<event>
 6    1  0.1773638E-005  0.3450722E+04  0.7818608E-02  0.8125569E-01
         -1   -1    0    0    0  501 -0.00000000000E+00  0.00000000000E+00  0.15141654367E+04  0.15141654367E+04  0.00000000000E+00 0.  1.
          1   -1    0    0  501    0  0.00000000000E+00 -0.00000000000E+00 -0.19660138373E+04  0.19660138373E+04  0.00000000000E+00 0. -1.
         23    2    1    2    0    0 -0.17653515697E+03 -0.14173632942E+04 -0.12002556631E+04  0.18676667003E+04  0.86497845576E+02 0.  0.
         13    1    3    3    0    0 -0.14178804957E+03 -0.85119533118E+03 -0.75413283251E+03  0.11460164361E+04  0.00000000000E+00 0. -1.
        -13    1    3    3    0    0 -0.34747107399E+02 -0.56616796304E+03 -0.44612283059E+03  0.72165026419E+03  0.00000000000E+00 0.  1.
         22    1    1    2    0    0  0.17653515697E+03  0.14173632942E+04  0.74840726251E+03  0.16125125736E+04  0.00000000000E+00 0.  1.
<mgrwt>
<rscale>  0 0.34507218E+04</rscale>
<asrwt>0</asrwt>
<pdfrwt beam="1">  1        1 0.30246367E+00 0.34507218E+04</pdfrwt>
<pdfrwt beam="2">  1       -1 0.23294853E+00 0.34507218E+04</pdfrwt>
<totfact> 0.23233194E-01</totfact>
</mgrwt>
</event>
<event>
 6    1  0.1773638E-005  0.6030065E+03  0.7818608E-02  0.9899188E-01
          1   -1    0    0  501    0  0.00000000000E+00  0.00000000000E+00  0.78475458423E+03  0.78475458423E+03  0.00000000000E+00 0. -1.
         -1   -1    0    0    0  501 -0.00000000000E+00 -0.00000000000E+00 -0.11583774919E+03  0.11583774919E+03  0.00000000000E+00 0.  1.
         23    2    1    2    0    0 -0.25928391219E+02 -0.17945570788E+03 -0.52219343417E+01  0.20249512462E+03  0.90002079605E+02 0.  0.
         11    1    3    3    0    0  0.28483423442E+02 -0.10893309373E+03 -0.11612794965E+02  0.11319267347E+03  0.00000000000E+00 0.  1.
        -11    1    3    3    0    0 -0.54411814661E+02 -0.70522614151E+02  0.63908606228E+01  0.89302451147E+02  0.00000000000E+00 0. -1.
         22    1    1    2    0    0  0.25928391219E+02  0.17945570788E+03  0.67413876938E+03  0.69809720880E+03  0.00000000000E+00 0. -1.
<mgrwt>
<rscale>  0 0.60300648E+03</rscale>
<asrwt>0</asrwt>
<pdfrwt beam="1">  1        1 0.12073147E+00 0.60300648E+03</pdfrwt>
<pdfrwt beam="2">  1       -1 0.17821193E-01 0.60300648E+03</pdfrwt>
<totfact> 0.57134014E+02</totfact>
</mgrwt>
</event>
<event>
 6    1  0.1773638E-005  0.1139154E+04  0.7818608E-02  0.9167848E-01
          2   -1    0    0  501    0  0.00000000000E+00  0.00000000000E+00  0.81699625562E+03  0.81699625562E+03  0.00000000000E+00 0. -1.
         -2   -1    0    0    0  501 -0.00000000000E+00 -0.00000000000E+00 -0.39708598532E+03  0.39708598532E+03  0.00000000000E+00 0.  1.
         23    2    1    2    0    0 -0.23381105769E+03 -0.35482175761E+03  0.60925334612E+03  0.74887595258E+03  0.95181207268E+02 0.  0.
         11    1    3    3    0    0 -0.72867273032E+02 -0.15646412415E+03  0.31524607743E+03  0.35940332631E+03  0.00000000000E+00 0.  1.
        -11    1    3    3    0    0 -0.16094378465E+03 -0.19835763346E+03  0.29400726869E+03  0.38947262627E+03  0.00000000000E+00 0. -1.
         22    1    1    2    0    0  0.23381105769E+03  0.35482175761E+03 -0.18934307582E+03  0.46520628836E+03  0.00000000000E+00 0.  1.
<mgrwt>
<rscale>  0 0.11391537E+04</rscale>
<asrwt>0</asrwt>
<pdfrwt beam="1">  1        2 0.12569173E+00 0.11391537E+04</pdfrwt>
<pdfrwt beam="2">  1       -2 0.61090152E-01 0.11391537E+04</pdfrwt>
<totfact> 0.82724331E+01</totfact>
</mgrwt>
</event>
<event>
 6    1  0.1773638E-005  0.2763127E+04  0.7818608E-02  0.8314808E-01
          1   -1    0    0  501    0  0.00000000000E+00  0.00000000000E+00  0.18041040911E+04  0.18041040911E+04  0.00000000000E+00 0. -1.
         -1   -1    0    0    0  501 -0.00000000000E+00 -0.00000000000E+00 -0.10579867193E+04  0.10579867193E+04  0.00000000000E+00 0.  1.
         23    2    1    2    0    0  0.37367169025E+03  0.40927161965E+03  0.16826393405E+04  0.17738779688E+04  0.90741980731E+02 0.  0.
         13    1    3    3    0    0  0.92099754156E+02  0.16308798740E+03  0.53616810110E+03  0.56794039210E+03  0.00000000000E+00 0.  1.
        -13    1    3    3    0    0  0.28157193609E+03  0.24618363225E+03  0.11464712394E+04  0.12059375767E+04  0.00000000000E+00 0. -1.
         22    1    1    2    0    0 -0.37367169025E+03 -0.40927161965E+03 -0.93652196879E+03  0.10882128417E+04  0.00000000000E+00 0.  1.
<mgrwt>
<rscale>  0 0.27631273E+04</rscale>
<asrwt>0</asrwt>
<pdfrwt beam="1">  1        1 0.27755448E+00 0.27631273E+04</pdfrwt>
<pdfrwt beam="2">  1       -1 0.16276719E+00 0.27631273E+04</pdfrwt>
<totfact> 0.97908954E-01</totfact>
</mgrwt>
</event>
<event>
 6    1  0.1773638E-005  0.1352503E+04  0.7818608E-02  0.8988936E-01
          2   -1    0    0  501    0  0.00000000000E+00  0.00000000000E+00  0.25185898542E+03  0.25185898542E+03  0.00000000000E+00 0.  1.
         -2   -1    0    0    0  501 -0.00000000000E+00 -0.00000000000E+00 -0.18157613021E+04  0.18157613021E+04  0.00000000000E+00 0. -1.
         23    2    1    2    0    0  0.55278786894E+03  0.14179030423E+03 -0.13317146413E+04  0.14515115025E+04  0.87993394852E+02 0.  0.
         11    1    3    3    0    0  0.32720542128E+02 -0.41477289306E+01 -0.43148493338E+02  0.54310496313E+02  0.00000000000E+00 0. -1.
        -11    1    3    3    0    0  0.52006732681E+03  0.14593803316E+03 -0.12885661480E+04  0.13972010062E+04  0.00000000000E+00 0.  1.
         22    1    1    2    0    0 -0.55278786894E+03 -0.14179030423E+03 -0.23218767538E+03  0.61610878505E+03  0.00000000000E+00 0.  1.
<mgrwt>
<rscale>  0 0.13525026E+04</rscale>
<asrwt>0</asrwt>
<pdfrwt beam="1">  1        2 0.38747537E-01 0.13525026E+04</pdfrwt>
<pdfrwt beam="2">  1       -2 0.27934789E+00 0.13525026E+04</pdfrwt>
<totfact> 0.55605651E+00</totfact>
</mgrwt>
</event>
<event>
 6    1  0.1773638E-005  0.2343623E+04  0.7818608E-02  0.8460917E-01
          1   -1    0    0  501    0  0.00000000000E+00  0.00000000000E+00  0.68775133361E+03  0.68775133361E+03  0.00000000000E+00 0. -1.
         -1   -1    0    0    0  501 -0.00000000000E+00 -0.00000000000E+00 -0.19965677940E+04  0.19965677940E+04  0.00000000000E+00 0.  1.
         23    2    1    2    0    0 -0.62178270231E+03 -0.96911452612E+03 -0.89135876024E+03  0.14595466487E+04  0.99796225904E+02 0.  0.
         13    1    3    3    0    0 -0.10575559977E+03 -0.19634903699E+03 -0.12919020406E+03  0.25773494143E+03  0.00000000000E+00 0.  1.
        -13    1    3    3    0    0 -0.51602710254E+03 -0.77276548913E+03 -0.76216855618E+03  0.12018117073E+04  0.00000000000E+00 0. -1.
         22    1    1    2    0    0  0.62178270231E+03  0.96911452612E+03 -0.41745770016E+03  0.12247724789E+04  0.00000000000E+00 0. -1.
<mgrwt>
<rscale>  0 0.23436230E+04</rscale>
<asrwt>0</asrwt>
<pdfrwt beam="1">  1        1 0.10580790E+00 0.23436230E+04</pdfrwt>
<pdfrwt beam="2">  1       -1 0.30716428E+00 0.23436230E+04</pdfrwt>
<totfact> 0.74788693E-01</totfact>
</mgrwt>
</event>
<event>
 6    1  0.1773638E-005  0.9954019E+03  0.7818608E-02  0.9313602E-01
         -2   -1    0    0    0  501 -0.00000000000E+00  0.00000000000E+00  0.20107857694E+03  0.20107857694E+03  0.00000000000E+00 0.  1.
          2   -1    0    0  501    0  0.00000000000E+00 -0.00000000000E+00 -0.12318878273E+04  0.12318878273E+04  0.00000000000E+00 0. -1.
         23    2    1    2    0    0  0.43412280737E+03 -0.23384402421E+03 -0.54939666505E+03  0.74383382134E+03  0.91139556013E+02 0.  0.
         13    1    3    3    0    0  0.15379812677E+03 -0.46093793491E+02 -0.21956934598E+03  0.27200955735E+03  0.00000000000E+00 0. -1.
        -13    1    3    3    0    0  0.28032468060E+03 -0.18775023072E+03 -0.32982731908E+03  0.47182426399E+03  0.00000000000E+00 0.  1.
         22    1    1    2    0    0 -0.43412280737E+03  0.23384402421E+03 -0.48141258535E+03  0.68913258294E+03  0.00000000000E+00 0.  1.
<mgrwt>
<rscale>  0 0.99540193E+03</rscale>
<asrwt>0</asrwt>
<pdfrwt beam="1">  1        2 0.18952120E+00 0.99540193E+03</pdfrwt>
<pdfrwt beam="2">  1       -2 0.30935166E-01 0.99540193E+03</pdfrwt>
<totfact> 0.17503004E+02</totfact>
</mgrwt>
</event>
<event>
 6    1  0.1773638E-005  0.4115432E+04  0.7818608E-02  0.7981657E-01
          2   -1    0    0  501    0  0.00000000000E+00  0.00000000000E+00  0.10617407019E+04  0.10617407019E+04  0.00000000000E+00 0. -1.
         -2   -1    0    0    0  501 -0.00000000000E+00 -0.00000000000E+00 -0.39879747517E+04  0.39879747517E+04  0.00000000000E+00 0.  1.
         23    2    1    2    0    0 -0.49883914648E+03 -0.17863457853E+04 -0.25545314921E+04  0.31581461183E+04  0.91564192377E+02 0.  0.
         11    1    3    3    0    0 -0.16461394671E+03 -0.48316538518E+03 -0.75304195979E+03  0.90973552975E+03  0.00000000000E+00 0.  1.
        -11    1    3    3    0    0 -0.33422519976E+03 -0.13031804002E+04 -0.18014895323E+04  0.22484105885E+04  0.00000000000E+00 0. -1.
         22    1    1    2    0    0  0.49883914648E+03  0.17863457853E+04 -0.37170255765E+03  0.18915693353E+04  0.00000000000E+00 0. -1.
<mgrwt>
<rscale>  0 0.41154320E+04</rscale>
<asrwt>0</asrwt>
<pdfrwt beam="1">  1        2 0.16334472E+00 0.41154320E+04</pdfrwt>
<pdfrwt beam="2">  1       -2 0.61353458E+00 0.41154320E+04</pdfrwt>
<totfact> 0.81060662E-03</totfact>
</mgrwt>
</event>
<event>
 6    1  0.1773638E-005  0.3628847E+04  0.7818608E-02  0.8083916E-01
         -1   -1    0    0    0  501 -0.00000000000E+00  0.00000000000E+00  0.98162511528E+03  0.98162511528E+03  0.00000000000E+00 0.  1.
          1   -1    0    0  501    0  0.00000000000E+00 -0.00000000000E+00 -0.33537569548E+04  0.33537569548E+04  0.00000000000E+00 0. -1.
         23    2    1    2    0    0 -0.18562752201E+03  0.36758057181E+03 -0.32965203154E+04  0.33234200608E+04  0.92204432502E+02 0.  0.
         13    1    3    3    0    0 -0.93799811894E+02  0.27232601590E+03 -0.21175729570E+04  0.21370716160E+04  0.00000000000E+00 0. -1.
        -13    1    3    3    0    0 -0.91827710117E+02  0.95254555906E+02 -0.11789473583E+04  0.11863484448E+04  0.00000000000E+00 0.  1.
         22    1    1    2    0    0  0.18562752201E+03 -0.36758057181E+03  0.92438847589E+03  0.10119620092E+04  0.00000000000E+00 0.  1.
<mgrwt>
<rscale>  0 0.36288467E+04</rscale>
<asrwt>0</asrwt>
<pdfrwt beam="1">  1        1 0.51596260E+00 0.36288467E+04</pdfrwt>
<pdfrwt beam="2">  1       -1 0.15101925E+00 0.36288467E+04</pdfrwt>
<totfact> 0.89696469E-02</totfact>
</mgrwt>
</event>
<event>
 6    1  0.1773638E-005  0.1267309E+04  0.7818608E-02  0.9055899E-01
         -2   -1    0    0    0  501 -0.00000000000E+00  0.00000000000E+00  0.23033017385E+04  0.23033017385E+04  0.00000000000E+00 0.  1.
          2   -1    0    0  501    0  0.00000000000E+00 -0.00000000000E+00 -0.17432288560E+03  0.17432288560E+03  0.00000000000E+00 0. -1.
         23    2    1    2    0    0 -0.42238338711E+03 -0.17725183870E+03  0.21818217232E+03  0.51268953749E+03  0.73628537304E+02 0.  0.
         13    1    3    3    0    0 -0.29743152332E+03 -0.15263744071E+03  0.13478104811E+03  0.36045752912E+03  0.00000000000E+00 0. -1.
        -13    1    3    3    0    0 -0.12495186379E+03 -0.24614397994E+02  0.83401124208E+02  0.15223200837E+03  0.00000000000E+00 0.  1.
         22    1    1    2    0    0  0.42238338711E+03  0.17725183870E+03  0.19107966806E+04  0.19649350866E+04  0.00000000000E+00 0.  1.
<mgrwt>
<rscale>  0 0.12673093E+04</rscale>
<asrwt>0</asrwt>
<pdfrwt beam="1">  1        2 0.26818907E-01 0.12673093E+04</pdfrwt>
<pdfrwt beam="2">  1       -2 0.35435409E+00 0.12673093E+04</pdfrwt>
<totfact> 0.29401497E+00</totfact>
</mgrwt>
</event>
<event>
 6    1  0.2869591E-005  0.3457039E+04  0.7818608E-02  0.8124047E-01
         -2   -1    0    0    0  501 -0.00000000000E+00  0.00000000000E+00  0.12698275555E+04  0.12698275555E+04  0.00000000000E+00 0.  1.
          2   -1    0    0  501    0  0.00000000000E+00 -0.00000000000E+00 -0.23529015746E+04  0.23529015746E+04  0.00000000000E+00 0. -1.
         23    2    1    2    0    0 -0.14905703949E+02 -0.12672316708E+04 -0.17716798573E+04  0.21804128375E+04  0.96189072091E+02 0.  0.
         13    1    3    3    0    0  0.29267182208E+02 -0.96759736893E+03 -0.13410509311E+04  0.16539403968E+04  0.00000000000E+00 0. -1.
        -13    1    3    3    0    0 -0.44172886157E+02 -0.29963430186E+03 -0.43062892627E+03  0.52647244074E+03  0.00000000000E+00 0.  1.
         22    1    1    2    0    0  0.14905703949E+02  0.12672316708E+04  0.68860583819E+03  0.14423162926E+04  0.00000000000E+00 0.  1.
<mgrwt>
<rscale>  0 0.34570388E+04</rscale>
<asrwt>0</asrwt>
<pdfrwt beam="1">  1        2 0.36198485E+00 0.34570388E+04</pdfrwt>
<pdfrwt beam="2">  1       -2 0.19535809E+00 0.34570388E+04</pdfrwt>
<totfact> 0.49783555E-01</totfact>
</mgrwt>
</event>
<event>
 6    1  0.1773638E-005  0.6859927E+03  0.7818608E-02  0.9741491E-01
          1   -1    0    0  501    0  0.00000000000E+00  0.00000000000E+00  0.67102608255E+02  0.67102608255E+02  0.00000000000E+00 0. -1.
         -1   -1    0    0    0  501 -0.00000000000E+00 -0.00000000000E+00 -0.17532328192E+04  0.17532328192E+04  0.00000000000E+00 0.  1.
         23    2    1    2    0    0 -0.24145740025E+03 -0.16154557537E+03 -0.37583399344E+03  0.47821962520E+03  0.55173999709E+02 0.  0.
         13    1    3    3    0    0 -0.34881438499E+02 -0.20103320496E+02 -0.87781079904E+02  0.96573165195E+02  0.00000000000E+00 0.  1.
        -13    1    3    3    0    0 -0.20657596175E+03 -0.14144225488E+03 -0.28805291353E+03  0.38164646000E+03  0.00000000000E+00 0. -1.
         22    1    1    2    0    0  0.24145740025E+03  0.16154557537E+03 -0.13102962175E+04  0.13421158022E+04  0.00000000000E+00 0.  1.
<mgrwt>
<rscale>  0 0.68599270E+03</rscale>
<asrwt>0</asrwt>
<pdfrwt beam="1">  1        1 0.10323481E-01 0.68599270E+03</pdfrwt>
<pdfrwt beam="2">  1       -1 0.26972807E+00 0.68599270E+03</pdfrwt>
<totfact> 0.34691201E+01</totfact>
</mgrwt>
</event>
<event>
 6    1  0.1773638E-005  0.2664224E+04  0.7818608E-02  0.8346707E-01
          1   -1    0    0  501    0  0.00000000000E+00  0.00000000000E+00  0.16652786701E+04  0.16652786701E+04  0.00000000000E+00 0. -1.
         -1   -1    0    0    0  501 -0.00000000000E+00 -0.00000000000E+00 -0.10656007405E+04  0.10656007405E+04  0.00000000000E+00 0.  1.
         23    2    1    2    0    0 -0.22302285226E+03 -0.73234728408E+03  0.14156921794E+04  0.16119732514E+04  0.90563122579E+02 0.  0.
         13    1    3    3    0    0 -0.13515442470E+03 -0.55795281595E+03  0.10990824045E+04  0.12399839496E+04  0.00000000000E+00 0. -1.
        -13    1    3    3    0    0 -0.87868427561E+02 -0.17439446813E+03  0.31660977485E+03  0.37198930174E+03  0.00000000000E+00 0.  1.
         22    1    1    2    0    0  0.22302285226E+03  0.73234728408E+03 -0.81601424982E+03  0.11189061592E+04  0.00000000000E+00 0.  1.
<mgrwt>
<rscale>  0 0.26642239E+04</rscale>
<asrwt>0</asrwt>
<pdfrwt beam="1">  1        1 0.25619672E+00 0.26642239E+04</pdfrwt>
<pdfrwt beam="2">  1       -1 0.16393858E+00 0.26642239E+04</pdfrwt>
<totfact> 0.12033057E+00</totfact>
</mgrwt>
</event>
<event>
 6    1  0.1773638E-005  0.3176662E+04  0.7818608E-02  0.8195008E-01
         -2   -1    0    0    0  501 -0.00000000000E+00  0.00000000000E+00  0.86314924469E+03  0.86314924469E+03  0.00000000000E+00 0. -1.
          2   -1    0    0  501    0  0.00000000000E+00 -0.00000000000E+00 -0.29227801753E+04  0.29227801753E+04  0.00000000000E+00 0.  1.
         23    2    1    2    0    0 -0.73796095024E+03 -0.43056318328E+03 -0.26245526622E+04  0.27616698915E+04  0.92589923378E+02 0.  0.
         13    1    3    3    0    0 -0.43876250925E+03 -0.20295905212E+03 -0.14869642845E+04  0.15635752939E+04  0.00000000000E+00 0. -1.
        -13    1    3    3    0    0 -0.29919844099E+03 -0.22760413116E+03 -0.11375883777E+04  0.11980945976E+04  0.00000000000E+00 0.  1.
         22    1    1    2    0    0  0.73796095024E+03  0.43056318328E+03  0.56492173160E+03  0.10242595285E+04  0.00000000000E+00 0. -1.
<mgrwt>
<rscale>  0 0.31766621E+04</rscale>
<asrwt>0</asrwt>
<pdfrwt beam="1">  1        2 0.44965849E+00 0.31766621E+04</pdfrwt>
<pdfrwt beam="2">  1       -2 0.13279219E+00 0.31766621E+04</pdfrwt>
<totfact> 0.67481445E-01</totfact>
</mgrwt>
</event>
<event>
 6    1  0.1773638E-005  0.3482603E+04  0.7818608E-02  0.8117925E-01
         -2   -1    0    0    0  501 -0.00000000000E+00  0.00000000000E+00  0.24793494709E+04  0.24793494709E+04  0.00000000000E+00 0.  1.
          2   -1    0    0  501    0  0.00000000000E+00 -0.00000000000E+00 -0.12229544040E+04  0.12229544040E+04  0.00000000000E+00 0. -1.
         23    2    1    2    0    0  0.17130429917E+04  0.32251966046E+02  0.95181787294E+03  0.19620959138E+04  0.91140722197E+02 0.  0.
         13    1    3    3    0    0  0.35323131050E+03  0.14266156693E+02  0.23843117241E+03  0.42640978638E+03  0.00000000000E+00 0. -1.
        -13    1    3    3    0    0  0.13598116812E+04  0.17985809353E+02  0.71338670053E+03  0.15356861274E+04  0.00000000000E+00 0.  1.
         22    1    1    2    0    0 -0.17130429917E+04 -0.32251966046E+02  0.30457719395E+03  0.17402079610E+04  0.00000000000E+00 0. -1.
<mgrwt>
<rscale>  0 0.34826033E+04</rscale>
<asrwt>0</asrwt>
<pdfrwt beam="1">  1        2 0.18814683E+00 0.34826033E+04</pdfrwt>
<pdfrwt beam="2">  1       -2 0.38143838E+00 0.34826033E+04</pdfrwt>
<totfact> 0.14790137E-01</totfact>
</mgrwt>
</event>
<event>
 6    1  0.1773638E-005  0.1391343E+04  0.7818608E-02  0.8960109E-01
         -1   -1    0    0    0  501 -0.00000000000E+00  0.00000000000E+00  0.11053850832E+04  0.11053850832E+04  0.00000000000E+00 0.  1.
          1   -1    0    0  501    0  0.00000000000E+00 -0.00000000000E+00 -0.43781891642E+03  0.43781891642E+03  0.00000000000E+00 0. -1.
         23    2    1    2    0    0  0.30485442874E+03  0.35939086437E+03  0.89791139792E+03  0.10186499590E+04  0.96461620562E+02 0.  0.
         13    1    3    3    0    0  0.13099358300E+03  0.11216651350E+03  0.40886223261E+03  0.44374426283E+03  0.00000000000E+00 0.  1.
        -13    1    3    3    0    0  0.17386084573E+03  0.24722435087E+03  0.48904916531E+03  0.57490569612E+03  0.00000000000E+00 0. -1.
         22    1    1    2    0    0 -0.30485442874E+03 -0.35939086437E+03 -0.23034523111E+03  0.52455404070E+03  0.00000000000E+00 0. -1.
<mgrwt>
<rscale>  0 0.13913425E+04</rscale>
<asrwt>0</asrwt>
<pdfrwt beam="1">  1        1 0.67356757E-01 0.13913425E+04</pdfrwt>
<pdfrwt beam="2">  1       -1 0.17005924E+00 0.13913425E+04</pdfrwt>
<totfact> 0.12745034E+01</totfact>
</mgrwt>
</event>
<event>
 6    1  0.1773638E-005  0.2580386E+04  0.7818608E-02  0.8374894E-01
         -2   -1    0    0    0  501 -0.00000000000E+00  0.00000000000E+00  0.19253394010E+04  0.19253394010E+04  0.00000000000E+00 0.  1.
          2   -1    0    0  501    0  0.00000000000E+00 -0.00000000000E+00 -0.86457391685E+03  0.86457391685E+03  0.00000000000E+00 0. -1.
         23    2    1    2    0    0  0.32262800939E+03 -0.29544962435E+03 -0.77839050092E+03  0.89944405060E+03  0.10829826990E+03 0.  0.
         13    1    3    3    0    0  0.91880882460E+02 -0.89459843899E+02 -0.33602167912E+03  0.35966057481E+03  0.00000000000E+00 0. -1.
        -13    1    3    3    0    0  0.23074712693E+03 -0.20598978045E+03 -0.44236882180E+03  0.53978347579E+03  0.00000000000E+00 0.  1.
         22    1    1    2    0    0 -0.32262800939E+03  0.29544962435E+03  0.18391559851E+04  0.18904692672E+04  0.00000000000E+00 0.  1.
<mgrwt>
<rscale>  0 0.25803862E+04</rscale>
<asrwt>0</asrwt>
<pdfrwt beam="1">  1        2 0.13301137E+00 0.25803862E+04</pdfrwt>
<pdfrwt beam="2">  1       -2 0.29620606E+00 0.25803862E+04</pdfrwt>
<totfact> 0.92117243E-01</totfact>
</mgrwt>
</event>
<event>
 6    1  0.1773638E-005  0.2486185E+04  0.7818608E-02  0.8407924E-01
          1   -1    0    0  501    0  0.00000000000E+00  0.00000000000E+00  0.28970081260E+04  0.28970081260E+04  0.00000000000E+00 0. -1.
         -1   -1    0    0    0  501 -0.00000000000E+00 -0.00000000000E+00 -0.53340513988E+03  0.53340513988E+03  0.00000000000E+00 0.  1.
         23    2    1    2    0    0  0.92018909626E+02 -0.45606530467E+03  0.27714406457E+04  0.28117092991E+04  0.91448828656E+02 0.  0.
         13    1    3    3    0    0  0.16888110658E+02 -0.24037482999E+03  0.16213246196E+04  0.16391335484E+04  0.00000000000E+00 0.  1.
        -13    1    3    3    0    0  0.75130798968E+02 -0.21569047468E+03  0.11501160261E+04  0.11725757508E+04  0.00000000000E+00 0. -1.
         22    1    1    2    0    0 -0.92018909626E+02  0.45606530467E+03 -0.40783765961E+03  0.61870396673E+03  0.00000000000E+00 0.  1.
<mgrwt>
<rscale>  0 0.24861850E+04</rscale>
<asrwt>0</asrwt>
<pdfrwt beam="1">  1        1 0.44569355E+00 0.24861850E+04</pdfrwt>
<pdfrwt beam="2">  1       -1 0.82062331E-01 0.24861850E+04</pdfrwt>
<totfact> 0.93278084E-01</totfact>
</mgrwt>
</event>
<event>
 6    1  0.1773638E-005  0.3075806E+04  0.7818608E-02  0.8222409E-01
          2   -1    0    0  501    0  0.00000000000E+00  0.00000000000E+00  0.15365061730E+04  0.15365061730E+04  0.00000000000E+00 0.  1.
         -2   -1    0    0    0  501 -0.00000000000E+00 -0.00000000000E+00 -0.15393007412E+04  0.15393007412E+04  0.00000000000E+00 0. -1.
         23    2    1    2    0    0 -0.10403174648E+04  0.89080786047E+03  0.69529837417E+03  0.15385584541E+04  0.89012445492E+02 0.  0.
         13    1    3    3    0    0 -0.70246949137E+03  0.64303930064E+03  0.51199919162E+03  0.10812520986E+04  0.00000000000E+00 0. -1.
        -13    1    3    3    0    0 -0.33784797347E+03  0.24776855983E+03  0.18329918255E+03  0.45730635546E+03  0.00000000000E+00 0.  1.
         22    1    1    2    0    0  0.10403174648E+04 -0.89080786047E+03 -0.69809294242E+03  0.15372484601E+04  0.00000000000E+00 0. -1.
<mgrwt>
<rscale>  0 0.30758056E+04</rscale>
<asrwt>0</asrwt>
<pdfrwt beam="1">  1        2 0.23638556E+00 0.30758056E+04</pdfrwt>
<pdfrwt beam="2">  1       -2 0.23681550E+00 0.30758056E+04</pdfrwt>
<totfact> 0.79842757E-01</totfact>
</mgrwt>
</event>
<event>
 6    1  0.1773638E-005  0.4738696E+04  0.7818608E-02  0.7870131E-01
         -2   -1    0    0    0  501 -0.00000000000E+00  0.00000000000E+00  0.23663653201E+04  0.23663653201E+04  0.00000000000E+00 0. -1.
          2   -1    0    0  501    0  0.00000000000E+00 -0.00000000000E+00 -0.23723348242E+04  0.23723348242E+04  0.00000000000E+00 0.  1.
         23    2    1    2    0    0  0.31609299875E+03 -0.14600773453E+04  0.18347858547E+04  0.23680207208E+04  0.96655902986E+02 0.  0.
         11    1    3    3    0    0  0.10716361302E+03 -0.44837663600E+03  0.63643221593E+03  0.78585724730E+03  0.00000000000E+00 0.  1.
        -11    1    3    3    0    0  0.20892938573E+03 -0.10117007093E+04  0.11983536387E+04  0.15821634735E+04  0.00000000000E+00 0. -1.
         22    1    1    2    0    0 -0.31609299875E+03  0.14600773453E+04 -0.18407553587E+04  0.23706794235E+04  0.00000000000E+00 0.  1.
<mgrwt>
<rscale>  0 0.47386964E+04</rscale>
<asrwt>0</asrwt>
<pdfrwt beam="1">  1        2 0.36497459E+00 0.47386964E+04</pdfrwt>
<pdfrwt beam="2">  1       -2 0.36405620E+00 0.47386964E+04</pdfrwt>
<totfact> 0.38836684E-02</totfact>
</mgrwt>
</event>
<event>
 6    1  0.1773638E-005  0.6215721E+04  0.7818608E-02  0.7664216E-01
         -2   -1    0    0    0  501 -0.00000000000E+00  0.00000000000E+00  0.29958756658E+04  0.29958756658E+04  0.00000000000E+00 0. -1.
          2   -1    0    0  501    0  0.00000000000E+00 -0.00000000000E+00 -0.32240309677E+04  0.32240309677E+04  0.00000000000E+00 0.  1.
         23    2    1    2    0    0 -0.26178644369E+04  0.14869786157E+04 -0.88289045164E+03  0.31388357597E+04  0.92058474644E+02 0.  0.
         13    1    3    3    0    0 -0.11041533891E+04  0.57652131875E+03 -0.35391455517E+03  0.12949081242E+04  0.00000000000E+00 0. -1.
        -13    1    3    3    0    0 -0.15137110478E+04  0.91045729698E+03 -0.52897589647E+03  0.18439276355E+04  0.00000000000E+00 0.  1.
         22    1    1    2    0    0  0.26178644369E+04 -0.14869786157E+04  0.65473514969E+03  0.30810708739E+04  0.00000000000E+00 0.  1.
<mgrwt>
<rscale>  0 0.62157207E+04</rscale>
<asrwt>0</asrwt>
<pdfrwt beam="1">  1        2 0.49600476E+00 0.62157207E+04</pdfrwt>
<pdfrwt beam="2">  1       -2 0.46090395E+00 0.62157207E+04</pdfrwt>
<totfact> 0.24482438E-03</totfact>
</mgrwt>
</event>
<event>
 6    1  0.1773638E-005  0.3295208E+04  0.7818608E-02  0.8164116E-01
          1   -1    0    0  501    0  0.00000000000E+00  0.00000000000E+00  0.19091728514E+04  0.19091728514E+04  0.00000000000E+00 0. -1.
         -1   -1    0    0    0  501 -0.00000000000E+00 -0.00000000000E+00 -0.14218720620E+04  0.14218720620E+04  0.00000000000E+00 0.  1.
         23    2    1    2    0    0 -0.50554586828E+03 -0.11474679919E+04  0.13223170499E+04  0.18245550950E+04  0.90661441285E+02 0.  0.
         11    1    3    3    0    0 -0.92201064082E+02 -0.13474776257E+03  0.16524196657E+03  0.23229916757E+03  0.00000000000E+00 0. -1.
        -11    1    3    3    0    0 -0.41334480420E+03 -0.10127202293E+04  0.11570750833E+04  0.15922559274E+04  0.00000000000E+00 0.  1.
         22    1    1    2    0    0  0.50554586828E+03  0.11474679919E+04 -0.83501626050E+03  0.15064898183E+04  0.00000000000E+00 0.  1.
<mgrwt>
<rscale>  0 0.32952084E+04</rscale>
<asrwt>0</asrwt>
<pdfrwt beam="1">  1        1 0.29371890E+00 0.32952084E+04</pdfrwt>
<pdfrwt beam="2">  1       -1 0.21874955E+00 0.32952084E+04</pdfrwt>
<totfact> 0.31983915E-01</totfact>
</mgrwt>
</event>
<event>
 6    1  0.1773638E-005  0.6486040E+03  0.7818608E-02  0.9809402E-01
          2   -1    0    0  501    0  0.00000000000E+00  0.00000000000E+00  0.16248307396E+03  0.16248307396E+03  0.00000000000E+00 0. -1.
         -2   -1    0    0    0  501 -0.00000000000E+00 -0.00000000000E+00 -0.64727841702E+03  0.64727841702E+03  0.00000000000E+00 0.  1.
         23    2    1    2    0    0  0.86460041654E+01 -0.31672695777E+03 -0.20939654142E+03  0.38995770454E+03  0.88483787216E+02 0.  0.
         11    1    3    3    0    0  0.42003914810E+02 -0.19193393468E+03 -0.98866041397E+02  0.21994876285E+03  0.00000000000E+00 0. -1.
        -11    1    3    3    0    0 -0.33357910645E+02 -0.12479302310E+03 -0.11053050003E+03  0.17000894168E+03  0.00000000000E+00 0.  1.
         22    1    1    2    0    0 -0.86460041654E+01  0.31672695777E+03 -0.27539880164E+03  0.41980378644E+03  0.00000000000E+00 0.  1.
<mgrwt>
<rscale>  0 0.64860400E+03</rscale>
<asrwt>0</asrwt>
<pdfrwt beam="1">  1        2 0.24997396E-01 0.64860400E+03</pdfrwt>
<pdfrwt beam="2">  1       -2 0.99581297E-01 0.64860400E+03</pdfrwt>
<totfact> 0.18494233E+02</totfact>
</mgrwt>
</event>
<event>
 6    1  0.1773638E-005  0.1116372E+04  0.7818608E-02  0.9189380E-01
          2   -1    0    0  501    0  0.00000000000E+00  0.00000000000E+00  0.17047996737E+04  0.17047996737E+04  0.00000000000E+00 0. -1.
         -2   -1    0    0    0  501 -0.00000000000E+00 -0.00000000000E+00 -0.18276147582E+03  0.18276147582E+03  0.00000000000E+00 0.  1.
         23    2    1    2    0    0 -0.33656544201E+03 -0.43955336917E+02  0.15071116926E+04  0.15478095211E+04  0.95500216113E+02 0.  0.
         11    1    3    3    0    0 -0.24830579907E+03  0.69537523741E+01  0.11450648915E+04  0.11716986517E+04  0.00000000000E+00 0.  1.
        -11    1    3    3    0    0 -0.88259642941E+02 -0.50909089291E+02  0.36204680111E+03  0.37611086948E+03  0.00000000000E+00 0. -1.
         22    1    1    2    0    0  0.33656544201E+03  0.43955336917E+02  0.14926505198E+02  0.33975162833E+03  0.00000000000E+00 0.  1.
<mgrwt>
<rscale>  0 0.11163722E+04</rscale>
<asrwt>0</asrwt>
<pdfrwt beam="1">  1        2 0.26227686E+00 0.11163722E+04</pdfrwt>
<pdfrwt beam="2">  1       -2 0.28117151E-01 0.11163722E+04</pdfrwt>
<totfact> 0.11182723E+02</totfact>
</mgrwt>
</event>
<event>
 6    1  0.1773638E-005  0.3092108E+04  0.7818608E-02  0.8217907E-01
         -2   -1    0    0    0  501 -0.00000000000E+00  0.00000000000E+00  0.20300148426E+04  0.20300148426E+04  0.00000000000E+00 0.  1.
          2   -1    0    0  501    0  0.00000000000E+00 -0.00000000000E+00 -0.11774706500E+04  0.11774706500E+04  0.00000000000E+00 0. -1.
         23    2    1    2    0    0  0.41776487000E+03 -0.30565078556E+03  0.19363424264E+04  0.20064157606E+04  0.91281558562E+02 0.  0.
         13    1    3    3    0    0  0.25558551426E+03 -0.19659057247E+03  0.13651149800E+04  0.14026798340E+04  0.00000000000E+00 0. -1.
        -13    1    3    3    0    0  0.16217935575E+03 -0.10906021309E+03  0.57122744642E+03  0.60373592659E+03  0.00000000000E+00 0.  1.
         22    1    1    2    0    0 -0.41776487000E+03  0.30565078556E+03 -0.10837982338E+04  0.12010697320E+04  0.00000000000E+00 0. -1.
<mgrwt>
<rscale>  0 0.30921080E+04</rscale>
<asrwt>0</asrwt>
<pdfrwt beam="1">  1        2 0.18114933E+00 0.30921080E+04</pdfrwt>
<pdfrwt beam="2">  1       -2 0.31230998E+00 0.30921080E+04</pdfrwt>
<totfact> 0.44329116E-01</totfact>
</mgrwt>
</event>
<event>
 6    1  0.1773638E-005  0.3283843E+04  0.7818608E-02  0.8167019E-01
         -1   -1    0    0    0  501 -0.00000000000E+00  0.00000000000E+00  0.10209045899E+04  0.10209045899E+04  0.00000000000E+00 0.  1.
          1   -1    0    0  501    0  0.00000000000E+00 -0.00000000000E+00 -0.26407031040E+04  0.26407031040E+04  0.00000000000E+00 0. -1.
         23    2    1    2    0    0 -0.46368196801E+03  0.15733097892E+04 -0.85332351903E+03  0.18511412959E+04  0.90875789739E+02 0.  0.
         13    1    3    3    0    0 -0.11696315382E+03  0.38688870497E+03 -0.25497082737E+03  0.47788426652E+03  0.00000000000E+00 0. -1.
        -13    1    3    3    0    0 -0.34671881418E+03  0.11864210842E+04 -0.59835269166E+03  0.13732570294E+04  0.00000000000E+00 0.  1.
         22    1    1    2    0    0  0.46368196801E+03 -0.15733097892E+04 -0.76647499503E+03  0.18104663980E+04  0.00000000000E+00 0. -1.
<mgrwt>
<rscale>  0 0.32838428E+04</rscale>
<asrwt>0</asrwt>
<pdfrwt beam="1">  1        1 0.40626202E+00 0.32838428E+04</pdfrwt>
<pdfrwt beam="2">  1       -1 0.15706224E+00 0.32838428E+04</pdfrwt>
<totfact> 0.27606671E-01</totfact>
</mgrwt>
</event>
<event>
 6    1  0.1773638E-005  0.1508182E+04  0.7818608E-02  0.8879030E-01
          1   -1    0    0  501    0  0.00000000000E+00  0.00000000000E+00  0.77126283066E+03  0.77126283066E+03  0.00000000000E+00 0. -1.
         -1   -1    0    0    0  501 -0.00000000000E+00 -0.00000000000E+00 -0.73730115629E+03  0.73730115629E+03  0.00000000000E+00 0.  1.
         23    2    1    2    0    0 -0.63088458566E+03 -0.13488742012E+03 -0.36847796681E+03  0.74819063041E+03  0.88335898039E+02 0.  0.
         13    1    3    3    0    0 -0.22012116361E+03 -0.70071845321E+01 -0.10823371011E+03  0.24539144914E+03  0.00000000000E+00 0.  1.
        -13    1    3    3    0    0 -0.41076342204E+03 -0.12788023559E+03 -0.26024425670E+03  0.50279918127E+03  0.00000000000E+00 0. -1.
         22    1    1    2    0    0  0.63088458566E+03  0.13488742012E+03  0.40243964119E+03  0.76037335653E+03  0.00000000000E+00 0. -1.
<mgrwt>
<rscale>  0 0.15081817E+04</rscale>
<asrwt>0</asrwt>
<pdfrwt beam="1">  1        1 0.11865582E+00 0.15081817E+04</pdfrwt>
<pdfrwt beam="2">  1       -1 0.11343095E+00 0.15081817E+04</pdfrwt>
<totfact> 0.16079180E+01</totfact>
</mgrwt>
</event>
<event>
 6    1  0.1773638E-005  0.6102412E+03  0.7818608E-02  0.9884384E-01
         -1   -1    0    0    0  501 -0.00000000000E+00  0.00000000000E+00  0.85901108171E+03  0.85901108171E+03  0.00000000000E+00 0.  1.
          1   -1    0    0  501    0  0.00000000000E+00 -0.00000000000E+00 -0.10837878376E+03  0.10837878376E+03  0.00000000000E+00 0. -1.
         23    2    1    2    0    0 -0.14132539342E+02 -0.18734578262E+03  0.75119713437E+03  0.77951094175E+03  0.89677213867E+02 0.  0.
         13    1    3    3    0    0 -0.45722267154E+02 -0.11285230666E+03  0.53465784954E+03  0.54834768615E+03  0.00000000000E+00 0.  1.
        -13    1    3    3    0    0  0.31589727812E+02 -0.74493475966E+02  0.21653928483E+03  0.23116325560E+03  0.00000000000E+00 0. -1.
         22    1    1    2    0    0  0.14132539342E+02  0.18734578262E+03 -0.56483642057E+00  0.18787892371E+03  0.00000000000E+00 0. -1.
<mgrwt>
<rscale>  0 0.61024119E+03</rscale>
<asrwt>0</asrwt>
<pdfrwt beam="1">  1        1 0.16673660E-01 0.61024119E+03</pdfrwt>
<pdfrwt beam="2">  1       -1 0.13215555E+00 0.61024119E+03</pdfrwt>
<totfact> 0.16612041E+02</totfact>
</mgrwt>
</event>
<event>
 6    1  0.1773638E-005  0.1358555E+04  0.7818608E-02  0.8984377E-01
          1   -1    0    0  501    0  0.00000000000E+00  0.00000000000E+00  0.12609309257E+04  0.12609309257E+04  0.00000000000E+00 0. -1.
         -1   -1    0    0    0  501 -0.00000000000E+00 -0.00000000000E+00 -0.36593457513E+03  0.36593457513E+03  0.00000000000E+00 0.  1.
         23    2    1    2    0    0  0.14067487597E+03  0.58724026898E+03  0.81384797618E+03  0.10175826331E+04  0.92115865641E+02 0.  0.
         11    1    3    3    0    0  0.15173405962E+03  0.48953697916E+03  0.68277355152E+03  0.85372677214E+03  0.00000000000E+00 0. -1.
        -11    1    3    3    0    0 -0.11059183658E+02  0.97703289825E+02  0.13107442466E+03  0.16385586101E+03  0.00000000000E+00 0.  1.
         22    1    1    2    0    0 -0.14067487597E+03 -0.58724026898E+03  0.81148374431E+02  0.60928286773E+03  0.00000000000E+00 0.  1.
<mgrwt>
<rscale>  0 0.13585554E+04</rscale>
<asrwt>0</asrwt>
<pdfrwt beam="1">  1        1 0.19398937E+00 0.13585554E+04</pdfrwt>
<pdfrwt beam="2">  1       -1 0.56297627E-01 0.13585554E+04</pdfrwt>
<totfact> 0.30133472E+01</totfact>
</mgrwt>
</event>
<event>
 6    1  0.1773638E-005  0.1517939E+04  0.7818608E-02  0.8872610E-01
         -4   -1    0    0    0  501 -0.00000000000E+00  0.00000000000E+00  0.14057317391E+04  0.14057317391E+04  0.00000000000E+00 0.  1.
          4   -1    0    0  501    0  0.00000000000E+00 -0.00000000000E+00 -0.40977577735E+03  0.40977577735E+03  0.00000000000E+00 0. -1.
         23    2    1    2    0    0 -0.49258675645E+03  0.20709320339E+02 -0.18604421732E+03  0.53480653188E+03  0.91296150889E+02 0.  0.
         11    1    3    3    0    0 -0.44749825228E+03  0.24333872695E+02 -0.19491452590E+03  0.48871105529E+03  0.00000000000E+00 0.  1.
        -11    1    3    3    0    0 -0.45088504170E+02 -0.36245523554E+01  0.88703085818E+01  0.46095476594E+02  0.00000000000E+00 0. -1.
         22    1    1    2    0    0  0.49258675645E+03 -0.20709320339E+02  0.11820001791E+04  0.12807009846E+04  0.00000000000E+00 0.  1.
<mgrwt>
<rscale>  0 0.15179392E+04</rscale>
<asrwt>0</asrwt>
<pdfrwt beam="1">  1        4 0.63042428E-01 0.15179392E+04</pdfrwt>
<pdfrwt beam="2">  1       -4 0.21626642E+00 0.15179392E+04</pdfrwt>
<totfact> 0.46892534E-01</totfact>
</mgrwt>
</event>
<event>
 6    1  0.1773638E-005  0.1100465E+04  0.7818608E-02  0.9204739E-01
         -2   -1    0    0    0  501 -0.00000000000E+00  0.00000000000E+00  0.88662954226E+02  0.88662954226E+02  0.00000000000E+00 0.  1.
          2   -1    0    0  501    0  0.00000000000E+00 -0.00000000000E+00 -0.34146803047E+04  0.34146803047E+04  0.00000000000E+00 0. -1.
         23    2    1    2    0    0 -0.23484597500E+03  0.47235503175E+03 -0.12253136894E+04  0.13374190267E+04  0.94995303084E+02 0.  0.
         13    1    3    3    0    0 -0.17540358425E+03  0.33629797897E+03 -0.76706253573E+03  0.85571471984E+03  0.00000000000E+00 0. -1.
        -13    1    3    3    0    0 -0.59442390749E+02  0.13605705278E+03 -0.45825115365E+03  0.48170430686E+03  0.00000000000E+00 0.  1.
         22    1    1    2    0    0  0.23484597500E+03 -0.47235503175E+03 -0.21007036611E+04  0.21659242322E+04  0.00000000000E+00 0.  1.
<mgrwt>
<rscale>  0 0.11004647E+04</rscale>
<asrwt>0</asrwt>
<pdfrwt beam="1">  1        2 0.52533548E+00 0.11004647E+04</pdfrwt>
<pdfrwt beam="2">  1       -2 0.13640453E-01 0.11004647E+04</pdfrwt>
<totfact> 0.39254783E+01</totfact>
</mgrwt>
</event>
<event>
 6    1  0.1773638E-005  0.3999798E+04  0.7818608E-02  0.8004587E-01
         -2   -1    0    0    0  501 -0.00000000000E+00  0.00000000000E+00  0.13306234128E+04  0.13306234128E+04  0.00000000000E+00 0.  1.
          2   -1    0    0  501    0  0.00000000000E+00 -0.00000000000E+00 -0.30058059780E+04  0.30058059780E+04  0.00000000000E+00 0. -1.
         23    2    1    2    0    0  0.95218240918E+03  0.15241084819E+04  0.11069711555E+03  0.18028697923E+04  0.92345176318E+02 0.  0.
         11    1    3    3    0    0  0.62693849217E+03  0.10836680693E+04  0.77656458523E+02  0.12543599495E+04  0.00000000000E+00 0. -1.
        -11    1    3    3    0    0  0.32524391701E+03  0.44044041259E+03  0.33040657024E+02  0.54850984277E+03  0.00000000000E+00 0.  1.
         22    1    1    2    0    0 -0.95218240918E+03 -0.15241084819E+04 -0.17858796807E+04  0.25335595985E+04  0.00000000000E+00 0. -1.
<mgrwt>
<rscale>  0 0.39997979E+04</rscale>
<asrwt>0</asrwt>
<pdfrwt beam="1">  1        2 0.46243168E+00 0.39997979E+04</pdfrwt>
<pdfrwt beam="2">  1       -2 0.20471130E+00 0.39997979E+04</pdfrwt>
<totfact> 0.16865442E-01</totfact>
</mgrwt>
</event>
<event>
 6    1  0.1773638E-005  0.4273352E+04  0.7818608E-02  0.7951564E-01
         -1   -1    0    0    0  501 -0.00000000000E+00  0.00000000000E+00  0.13882833878E+04  0.13882833878E+04  0.00000000000E+00 0.  1.
          1   -1    0    0  501    0  0.00000000000E+00 -0.00000000000E+00 -0.32885099790E+04  0.32885099790E+04  0.00000000000E+00 0. -1.
         23    2    1    2    0    0  0.69883749765E+03  0.13911394103E+04  0.64967217621E+03  0.16892146764E+04  0.87918026115E+02 0.  0.
         13    1    3    3    0    0  0.41421553355E+03  0.76267776093E+03  0.39838776427E+03  0.95496842146E+03  0.00000000000E+00 0. -1.
        -13    1    3    3    0    0  0.28462196410E+03  0.62846164940E+03  0.25128441194E+03  0.73424625495E+03  0.00000000000E+00 0.  1.
         22    1    1    2    0    0 -0.69883749765E+03 -0.13911394103E+04 -0.25498987674E+04  0.29875786904E+04  0.00000000000E+00 0. -1.
<mgrwt>
<rscale>  0 0.42733517E+04</rscale>
<asrwt>0</asrwt>
<pdfrwt beam="1">  1        1 0.50592460E+00 0.42733517E+04</pdfrwt>
<pdfrwt beam="2">  1       -1 0.21358206E+00 0.42733517E+04</pdfrwt>
<totfact> 0.33875123E-02</totfact>
</mgrwt>
</event>
<event>
 6    1  0.1773638E-005  0.1959742E+04  0.7818608E-02  0.8625677E-01
         -2   -1    0    0    0  501 -0.00000000000E+00  0.00000000000E+00  0.46703046042E+03  0.46703046042E+03  0.00000000000E+00 0.  1.
          2   -1    0    0  501    0  0.00000000000E+00 -0.00000000000E+00 -0.20558565085E+04  0.20558565085E+04  0.00000000000E+00 0. -1.
         23    2    1    2    0    0 -0.33717668699E+03  0.15710081671E+03  0.36774810910E+03  0.53126671964E+03  0.92934766318E+02 0.  0.
         13    1    3    3    0    0 -0.25052234575E+03  0.14208407921E+03  0.23347513064E+03  0.37075594117E+03  0.00000000000E+00 0. -1.
        -13    1    3    3    0    0 -0.86654341237E+02  0.15016737502E+02  0.13427297846E+03  0.16051077847E+03  0.00000000000E+00 0.  1.
         22    1    1    2    0    0  0.33717668699E+03 -0.15710081671E+03 -0.19565741572E+04  0.19916202493E+04  0.00000000000E+00 0. -1.
<mgrwt>
<rscale>  0 0.19597424E+04</rscale>
<asrwt>0</asrwt>
<pdfrwt beam="1">  1        2 0.31628562E+00 0.19597424E+04</pdfrwt>
<pdfrwt beam="2">  1       -2 0.71850839E-01 0.19597424E+04</pdfrwt>
<totfact> 0.10175815E+01</totfact>
</mgrwt>
</event>
<event>
 6    1  0.1773638E-005  0.2331562E+04  0.7818608E-02  0.8465580E-01
         -1   -1    0    0    0  501 -0.00000000000E+00  0.00000000000E+00  0.10961069997E+04  0.10961069997E+04  0.00000000000E+00 0.  1.
          1   -1    0    0  501    0  0.00000000000E+00 -0.00000000000E+00 -0.12398833188E+04  0.12398833188E+04  0.00000000000E+00 0. -1.
         23    2    1    2    0    0 -0.17440896090E+03 -0.33266081682E+03  0.10321249020E+04  0.11015570937E+04  0.84050655327E+02 0.  0.
         11    1    3    3    0    0 -0.86192024140E+02 -0.15893103151E+03  0.37770892862E+03  0.41875072843E+03  0.00000000000E+00 0. -1.
        -11    1    3    3    0    0 -0.88216936764E+02 -0.17372978531E+03  0.65441597341E+03  0.68280636530E+03  0.00000000000E+00 0.  1.
         22    1    1    2    0    0  0.17440896090E+03  0.33266081682E+03 -0.11759012211E+04  0.12344332248E+04  0.00000000000E+00 0. -1.
<mgrwt>
<rscale>  0 0.23315615E+04</rscale>
<asrwt>0</asrwt>
<pdfrwt beam="1">  1        1 0.19075128E+00 0.23315615E+04</pdfrwt>
<pdfrwt beam="2">  1       -1 0.16863185E+00 0.23315615E+04</pdfrwt>
<totfact> 0.22690151E+00</totfact>
</mgrwt>
</event>
<event>
 6    1  0.1773638E-005  0.2297305E+04  0.7818608E-02  0.8478984E-01
         -2   -1    0    0    0  501 -0.00000000000E+00  0.00000000000E+00  0.76920109726E+03  0.76920109726E+03  0.00000000000E+00 0.  1.
          2   -1    0    0  501    0  0.00000000000E+00 -0.00000000000E+00 -0.17152899981E+04  0.17152899981E+04  0.00000000000E+00 0. -1.
         23    2    1    2    0    0  0.56101734532E+03  0.80287757523E+03 -0.11191246470E+04  0.14898583833E+04  0.88798446127E+02 0.  0.
         11    1    3    3    0    0  0.34717061564E+03  0.47568185476E+03 -0.73507369800E+03  0.94187791396E+03  0.00000000000E+00 0. -1.
        -11    1    3    3    0    0  0.21384672968E+03  0.32719572047E+03 -0.38405094902E+03  0.54798046929E+03  0.00000000000E+00 0.  1.
         22    1    1    2    0    0 -0.56101734532E+03 -0.80287757523E+03  0.17303574616E+03  0.99463271212E+03  0.00000000000E+00 0.  1.
<mgrwt>
<rscale>  0 0.22973053E+04</rscale>
<asrwt>0</asrwt>
<pdfrwt beam="1">  1        2 0.26389077E+00 0.22973053E+04</pdfrwt>
<pdfrwt beam="2">  1       -2 0.11833863E+00 0.22973053E+04</pdfrwt>
<totfact> 0.47942171E+00</totfact>
</mgrwt>
</event>
<event>
 6    1  0.1773638E-005  0.2801732E+04  0.7818608E-02  0.8302731E-01
          2   -1    0    0  501    0  0.00000000000E+00  0.00000000000E+00  0.15015678699E+04  0.15015678699E+04  0.00000000000E+00 0. -1.
         -2   -1    0    0    0  501 -0.00000000000E+00 -0.00000000000E+00 -0.13069176099E+04  0.13069176099E+04  0.00000000000E+00 0.  1.
         23    2    1    2    0    0 -0.92067197591E+03 -0.64835332655E+03  0.93029557207E+03  0.14634304814E+04  0.90443348739E+02 0.  0.
         11    1    3    3    0    0 -0.35280907921E+03 -0.29768024478E+03  0.40493242240E+03  0.61405052008E+03  0.00000000000E+00 0.  1.
        -11    1    3    3    0    0 -0.56786289670E+03 -0.35067308176E+03  0.52536314967E+03  0.84937996136E+03  0.00000000000E+00 0. -1.
         22    1    1    2    0    0  0.92067197591E+03  0.64835332655E+03 -0.73564531215E+03  0.13450549983E+04  0.00000000000E+00 0.  1.
<mgrwt>
<rscale>  0 0.28017320E+04</rscale>
<asrwt>0</asrwt>
<pdfrwt beam="1">  1        2 0.23101044E+00 0.28017320E+04</pdfrwt>
<pdfrwt beam="2">  1       -2 0.20106425E+00 0.28017320E+04</pdfrwt>
<totfact> 0.14426211E+00</totfact>
</mgrwt>
</event>
<event>
 6    1  0.1773638E-005  0.3290433E+04  0.7818608E-02  0.8165334E-01
         -1   -1    0    0    0  501 -0.00000000000E+00  0.00000000000E+00  0.10105551516E+04  0.10105551516E+04  0.00000000000E+00 0.  1.
          1   -1    0    0  501    0  0.00000000000E+00 -0.00000000000E+00 -0.26784649578E+04  0.26784649578E+04  0.00000000000E+00 0. -1.
         23    2    1    2    0    0 -0.13780618680E+04 -0.23851641972E+03 -0.18032702952E+04  0.22839339709E+04  0.92876431024E+02 0.  0.
         13    1    3    3    0    0 -0.12063804694E+04 -0.22617287580E+03 -0.15382419636E+04  0.19679167526E+04  0.00000000000E+00 0. -1.
        -13    1    3    3    0    0 -0.17168139859E+03 -0.12343543912E+02 -0.26502833162E+03  0.31601721830E+03  0.00000000000E+00 0.  1.
         22    1    1    2    0    0  0.13780618680E+04  0.23851641972E+03  0.13536048910E+03  0.14050861385E+04  0.00000000000E+00 0. -1.
<mgrwt>
<rscale>  0 0.32904325E+04</rscale>
<asrwt>0</asrwt>
<pdfrwt beam="1">  1        1 0.41207153E+00 0.32904325E+04</pdfrwt>
<pdfrwt beam="2">  1       -1 0.15547002E+00 0.32904325E+04</pdfrwt>
<totfact> 0.26693619E-01</totfact>
</mgrwt>
</event>
<event>
 6    1  0.1773638E-005  0.2103876E+04  0.7818608E-02  0.8559538E-01
         -2   -1    0    0    0  501 -0.00000000000E+00  0.00000000000E+00  0.19580549718E+04  0.19580549718E+04  0.00000000000E+00 0.  1.
          2   -1    0    0  501    0  0.00000000000E+00 -0.00000000000E+00 -0.56513931939E+03  0.56513931939E+03  0.00000000000E+00 0. -1.
         23    2    1    2    0    0 -0.58042835610E+03  0.15754010545E+03  0.17294900704E+04  0.18339930868E+04  0.10333816947E+03 0.  0.
         13    1    3    3    0    0 -0.18342040502E+03  0.87190672877E+01  0.44745441579E+03  0.48366777991E+03  0.00000000000E+00 0. -1.
        -13    1    3    3    0    0 -0.39700795108E+03  0.14882103817E+03  0.12820356546E+04  0.13503253069E+04  0.00000000000E+00 0.  1.
         22    1    1    2    0    0  0.58042835610E+03 -0.15754010545E+03 -0.33657441796E+03  0.68920120445E+03  0.00000000000E+00 0. -1.
<mgrwt>
<rscale>  0 0.21038763E+04</rscale>
<asrwt>0</asrwt>
<pdfrwt beam="1">  1        2 0.86944511E-01 0.21038763E+04</pdfrwt>
<pdfrwt beam="2">  1       -2 0.30123922E+00 0.21038763E+04</pdfrwt>
<totfact> 0.15348629E+00</totfact>
</mgrwt>
</event>
<event>
 6    1  0.1773638E-005  0.3238679E+04  0.7818608E-02  0.8178676E-01
          2   -1    0    0  501    0  0.00000000000E+00  0.00000000000E+00  0.15264322908E+04  0.15264322908E+04  0.00000000000E+00 0. -1.
         -2   -1    0    0    0  501 -0.00000000000E+00 -0.00000000000E+00 -0.17179015961E+04  0.17179015961E+04  0.00000000000E+00 0.  1.
         23    2    1    2    0    0  0.52212160268E+03  0.95182434272E+03 -0.12982692392E+04  0.16939833971E+04  0.74136258137E+02 0.  0.
         11    1    3    3    0    0  0.31883141135E+03  0.52635373211E+03 -0.69505277657E+03  0.92833188160E+03  0.00000000000E+00 0.  1.
        -11    1    3    3    0    0  0.20329019133E+03  0.42547061061E+03 -0.60321646266E+03  0.76565151551E+03  0.00000000000E+00 0. -1.
         22    1    1    2    0    0 -0.52212160268E+03 -0.95182434272E+03  0.11067999339E+04  0.15503504898E+04  0.00000000000E+00 0. -1.
<mgrwt>
<rscale>  0 0.32386790E+04</rscale>
<asrwt>0</asrwt>
<pdfrwt beam="1">  1        2 0.23483574E+00 0.32386790E+04</pdfrwt>
<pdfrwt beam="2">  1       -2 0.26429255E+00 0.32386790E+04</pdfrwt>
<totfact> 0.54070587E-01</totfact>
</mgrwt>
</event>
<event>
 6    1  0.1773638E-005  0.3288239E+04  0.7818608E-02  0.8165894E-01
          2   -1    0    0  501    0  0.00000000000E+00  0.00000000000E+00  0.12923119705E+04  0.12923119705E+04  0.00000000000E+00 0. -1.
         -2   -1    0    0    0  501 -0.00000000000E+00 -0.00000000000E+00 -0.20916998117E+04  0.20916998117E+04  0.00000000000E+00 0.  1.
         23    2    1    2    0    0 -0.11911469587E+04  0.19949265986E+03 -0.15461040652E+04  0.19640774465E+04  0.92379851816E+02 0.  0.
         11    1    3    3    0    0 -0.32564977956E+03  0.15945987018E+02 -0.44112556579E+03  0.54853789132E+03  0.00000000000E+00 0. -1.
        -11    1    3    3    0    0 -0.86549717912E+03  0.18354667285E+03 -0.11049784994E+04  0.14155395552E+04  0.00000000000E+00 0.  1.
         22    1    1    2    0    0  0.11911469587E+04 -0.19949265986E+03  0.74671622393E+03  0.14199343357E+04  0.00000000000E+00 0. -1.
<mgrwt>
<rscale>  0 0.32882389E+04</rscale>
<asrwt>0</asrwt>
<pdfrwt beam="1">  1        2 0.19881723E+00 0.32882389E+04</pdfrwt>
<pdfrwt beam="2">  1       -2 0.32179997E+00 0.32882389E+04</pdfrwt>
<totfact> 0.32582428E-01</totfact>
</mgrwt>
</event>
<event>
 6    1  0.1773638E-005  0.3623758E+04  0.7818608E-02  0.8085071E-01
         -2   -1    0    0    0  501 -0.00000000000E+00  0.00000000000E+00  0.17116206245E+04  0.17116206245E+04  0.00000000000E+00 0. -1.
          2   -1    0    0  501    0  0.00000000000E+00 -0.00000000000E+00 -0.19180100214E+04  0.19180100214E+04  0.00000000000E+00 0.  1.
         23    2    1    2    0    0  0.12720754597E+03 -0.40211540108E+03  0.16605265162E+04  0.17156678505E+04  0.91045629836E+02 0.  0.
         11    1    3    3    0    0  0.13087847786E+03 -0.28255149643E+03  0.11634036439E+04  0.12043556629E+04  0.00000000000E+00 0. -1.
        -11    1    3    3    0    0 -0.36709318889E+01 -0.11956390465E+03  0.49712287229E+03  0.51131218760E+03  0.00000000000E+00 0.  1.
         22    1    1    2    0    0 -0.12720754597E+03  0.40211540108E+03 -0.18669159131E+04  0.19139627954E+04  0.00000000000E+00 0.  1.
<mgrwt>
<rscale>  0 0.36237580E+04</rscale>
<asrwt>0</asrwt>
<pdfrwt beam="1">  1        2 0.29507846E+00 0.36237580E+04</pdfrwt>
<pdfrwt beam="2">  1       -2 0.26332625E+00 0.36237580E+04</pdfrwt>
<totfact> 0.32138541E-01</totfact>
</mgrwt>
</event>
<event>
 6    1  0.1773638E-005  0.2950849E+03  0.7818608E-02  0.1087724E+00
          2   -1    0    0  501    0  0.00000000000E+00  0.00000000000E+00  0.11881693168E+04  0.11881693168E+04  0.00000000000E+00 0. -1.
         -2   -1    0    0    0  501 -0.00000000000E+00 -0.00000000000E+00 -0.18321273166E+02  0.18321273166E+02  0.00000000000E+00 0.  1.
         23    2    1    2    0    0  0.11801747453E+03  0.61882383821E+02  0.60098064734E+03  0.62222381161E+03  0.90703801134E+02 0.  0.
         13    1    3    3    0    0  0.14838084124E+02  0.22811775969E+02  0.29274712949E+02  0.39969421832E+02  0.00000000000E+00 0.  1.
        -13    1    3    3    0    0  0.10317939041E+03  0.39070607852E+02  0.57170593439E+03  0.58225438978E+03  0.00000000000E+00 0. -1.
         22    1    1    2    0    0 -0.11801747453E+03 -0.61882383821E+02  0.56886739633E+03  0.58426677839E+03  0.00000000000E+00 0.  1.
<mgrwt>
<rscale>  0 0.29508490E+03</rscale>
<asrwt>0</asrwt>
<pdfrwt beam="1">  1        2 0.18279522E+00 0.29508490E+03</pdfrwt>
<pdfrwt beam="2">  1       -2 0.28186583E-02 0.29508490E+03</pdfrwt>
<totfact> 0.94435393E+03</totfact>
</mgrwt>
</event>
<event>
 6    1  0.1773638E-005  0.2479866E+04  0.7818608E-02  0.8410194E-01
         -2   -1    0    0    0  501 -0.00000000000E+00  0.00000000000E+00  0.12527227434E+04  0.12527227434E+04  0.00000000000E+00 0.  1.
          2   -1    0    0  501    0  0.00000000000E+00 -0.00000000000E+00 -0.12272740701E+04  0.12272740701E+04  0.00000000000E+00 0. -1.
         23    2    1    2    0    0  0.30205347079E+03 -0.11078447086E+04 -0.45054632004E+03  0.12369652648E+04  0.92384426147E+02 0.  0.
         13    1    3    3    0    0  0.71898451005E+02 -0.20191186254E+03 -0.11929187473E+03  0.24529235387E+03  0.00000000000E+00 0.  1.
        -13    1    3    3    0    0  0.23015501978E+03 -0.90593284603E+03 -0.33125444531E+03  0.99167291089E+03  0.00000000000E+00 0. -1.
         22    1    1    2    0    0 -0.30205347079E+03  0.11078447086E+04  0.47599499331E+03  0.12430315487E+04  0.00000000000E+00 0.  1.
<mgrwt>
<rscale>  0 0.24798662E+04</rscale>
<asrwt>0</asrwt>
<pdfrwt beam="1">  1        2 0.18881140E+00 0.24798662E+04</pdfrwt>
<pdfrwt beam="2">  1       -2 0.19272658E+00 0.24798662E+04</pdfrwt>
<totfact> 0.24223032E+00</totfact>
</mgrwt>
</event>
<event>
 6    1  0.1773638E-005  0.1793589E+04  0.7818608E-02  0.8709716E-01
         -2   -1    0    0    0  501 -0.00000000000E+00  0.00000000000E+00  0.99232770794E+03  0.99232770794E+03  0.00000000000E+00 0.  1.
          2   -1    0    0  501    0  0.00000000000E+00 -0.00000000000E+00 -0.81045848111E+03  0.81045848111E+03  0.00000000000E+00 0. -1.
         23    2    1    2    0    0  0.13464782100E+03 -0.89337052489E+02 -0.79313549521E+03  0.81448190764E+03  0.90585426255E+02 0.  0.
         11    1    3    3    0    0  0.13973197909E+02 -0.51813398710E+02 -0.33349701745E+03  0.33778712112E+03  0.00000000000E+00 0.  1.
        -11    1    3    3    0    0  0.12067462309E+03 -0.37523653779E+02 -0.45963847777E+03  0.47669478652E+03  0.00000000000E+00 0. -1.
         22    1    1    2    0    0 -0.13464782100E+03  0.89337052489E+02  0.97500472204E+03  0.98830428141E+03  0.00000000000E+00 0.  1.
<mgrwt>
<rscale>  0 0.17935890E+04</rscale>
<asrwt>0</asrwt>
<pdfrwt beam="1">  1        2 0.12468592E+00 0.17935890E+04</pdfrwt>
<pdfrwt beam="2">  1       -2 0.15266580E+00 0.17935890E+04</pdfrwt>
<totfact> 0.91382845E+00</totfact>
</mgrwt>
</event>
<event>
 6    1  0.1773638E-005  0.1437854E+04  0.7818608E-02  0.8926865E-01
         -1   -1    0    0    0  501 -0.00000000000E+00  0.00000000000E+00  0.10686940778E+04  0.10686940778E+04  0.00000000000E+00 0.  1.
          1   -1    0    0  501    0  0.00000000000E+00 -0.00000000000E+00 -0.48363332888E+03  0.48363332888E+03  0.00000000000E+00 0. -1.
         23    2    1    2    0    0  0.25174117850E+03 -0.43970675693E+03  0.83994992349E+03  0.98515534785E+03  0.91101769408E+02 0.  0.
         13    1    3    3    0    0  0.18430198048E+03 -0.23247439648E+03  0.49772749777E+03  0.57943440273E+03  0.00000000000E+00 0.  1.
        -13    1    3    3    0    0  0.67439198018E+02 -0.20723236045E+03  0.34222242572E+03  0.40572094513E+03  0.00000000000E+00 0. -1.
         22    1    1    2    0    0 -0.25174117850E+03  0.43970675693E+03 -0.25488917454E+03  0.56717205885E+03  0.00000000000E+00 0. -1.
<mgrwt>
<rscale>  0 0.14378541E+04</rscale>
<asrwt>0</asrwt>
<pdfrwt beam="1">  1        1 0.74405128E-01 0.14378541E+04</pdfrwt>
<pdfrwt beam="2">  1       -1 0.16441447E+00 0.14378541E+04</pdfrwt>
<totfact> 0.12211345E+01</totfact>
</mgrwt>
</event>
<event>
 6    1  0.1773638E-005  0.2186664E+04  0.7818608E-02  0.8524000E-01
          2   -1    0    0  501    0  0.00000000000E+00  0.00000000000E+00  0.75194126604E+03  0.75194126604E+03  0.00000000000E+00 0. -1.
         -2   -1    0    0    0  501 -0.00000000000E+00 -0.00000000000E+00 -0.15897178376E+04  0.15897178376E+04  0.00000000000E+00 0.  1.
         23    2    1    2    0    0 -0.86817783658E+02  0.23390232709E+03 -0.15574595863E+04  0.15799562299E+04  0.91289095852E+02 0.  0.
         13    1    3    3    0    0 -0.63280482249E+02  0.11124618357E+03 -0.54518700556E+03  0.56000803907E+03  0.00000000000E+00 0.  1.
        -13    1    3    3    0    0 -0.23537301409E+02  0.12265614352E+03 -0.10122725808E+04  0.10199481908E+04  0.00000000000E+00 0. -1.
         22    1    1    2    0    0  0.86817783658E+02 -0.23390232709E+03  0.71968301477E+03  0.76170287378E+03  0.00000000000E+00 0. -1.
<mgrwt>
<rscale>  0 0.21866636E+04</rscale>
<asrwt>0</asrwt>
<pdfrwt beam="1">  1        2 0.11568327E+00 0.21866636E+04</pdfrwt>
<pdfrwt beam="2">  1       -2 0.24457197E+00 0.21866636E+04</pdfrwt>
<totfact> 0.23730611E+00</totfact>
</mgrwt>
</event>
<event>
 6    1  0.1773638E-005  0.5131926E+03  0.7818608E-02  0.1010392E+00
          2   -1    0    0  501    0  0.00000000000E+00  0.00000000000E+00  0.22222856018E+03  0.22222856018E+03  0.00000000000E+00 0. -1.
         -2   -1    0    0    0  501 -0.00000000000E+00 -0.00000000000E+00 -0.29627899544E+03  0.29627899544E+03  0.00000000000E+00 0.  1.
         23    2    1    2    0    0  0.23845324504E+02  0.37614554066E+02 -0.28468154894E+03  0.30321956193E+03  0.94419617965E+02 0.  0.
         11    1    3    3    0    0 -0.49026262906E+01  0.46160827638E+02 -0.26075128553E+03  0.26485107261E+03  0.00000000000E+00 0.  1.
        -11    1    3    3    0    0  0.28747950795E+02 -0.85462735716E+01 -0.23930263402E+02  0.38368489328E+02  0.00000000000E+00 0. -1.
         22    1    1    2    0    0 -0.23845324504E+02 -0.37614554066E+02  0.21063111368E+03  0.21528799369E+03  0.00000000000E+00 0. -1.
<mgrwt>
<rscale>  0 0.51319257E+03</rscale>
<asrwt>0</asrwt>
<pdfrwt beam="1">  1        2 0.34189009E-01 0.51319257E+03</pdfrwt>
<pdfrwt beam="2">  1       -2 0.45581384E-01 0.51319257E+03</pdfrwt>
<totfact> 0.70472621E+02</totfact>
</mgrwt>
</event>
<event>
 6    1  0.1773638E-005  0.3793400E+04  0.7818608E-02  0.8047573E-01
          2   -1    0    0  501    0  0.00000000000E+00  0.00000000000E+00  0.34209504151E+04  0.34209504151E+04  0.00000000000E+00 0. -1.
         -2   -1    0    0    0  501 -0.00000000000E+00 -0.00000000000E+00 -0.10515998979E+04  0.10515998979E+04  0.00000000000E+00 0.  1.
         23    2    1    2    0    0 -0.13957416346E+04 -0.95442317152E+03  0.21955744303E+04  0.27727807906E+04  0.93530383951E+02 0.  0.
         11    1    3    3    0    0 -0.74553748694E+03 -0.45350368084E+03  0.11395737216E+04  0.14353118128E+04  0.00000000000E+00 0. -1.
        -11    1    3    3    0    0 -0.65020414770E+03 -0.50091949068E+03  0.10560007088E+04  0.13374689779E+04  0.00000000000E+00 0.  1.
         22    1    1    2    0    0  0.13957416346E+04  0.95442317152E+03  0.17377608685E+03  0.16997695224E+04  0.00000000000E+00 0.  1.
<mgrwt>
<rscale>  0 0.37934001E+04</rscale>
<asrwt>0</asrwt>
<pdfrwt beam="1">  1        2 0.52630006E+00 0.37934001E+04</pdfrwt>
<pdfrwt beam="2">  1       -2 0.16178460E+00 0.37934001E+04</pdfrwt>
<totfact> 0.18055310E-01</totfact>
</mgrwt>
</event>
<event>
 6    1  0.1773638E-005  0.4247043E+04  0.7818608E-02  0.7956484E-01
         -2   -1    0    0    0  501 -0.00000000000E+00  0.00000000000E+00  0.28483419374E+04  0.28483419374E+04  0.00000000000E+00 0. -1.
          2   -1    0    0  501    0  0.00000000000E+00 -0.00000000000E+00 -0.15831467754E+04  0.15831467754E+04  0.00000000000E+00 0.  1.
         23    2    1    2    0    0  0.10829018758E+04 -0.11834139357E+04  0.20832145233E+04  0.26308497454E+04  0.91883715154E+02 0.  0.
         11    1    3    3    0    0  0.45566460225E+03 -0.44716617706E+03  0.87624894188E+03  0.10841586728E+04  0.00000000000E+00 0.  1.
        -11    1    3    3    0    0  0.62723727353E+03 -0.73624775861E+03  0.12069655814E+04  0.15466910726E+04  0.00000000000E+00 0. -1.
         22    1    1    2    0    0 -0.10829018758E+04  0.11834139357E+04 -0.81801936124E+03  0.18006389674E+04  0.00000000000E+00 0.  1.
<mgrwt>
<rscale>  0 0.42470429E+04</rscale>
<asrwt>0</asrwt>
<pdfrwt beam="1">  1        2 0.24356104E+00 0.42470429E+04</pdfrwt>
<pdfrwt beam="2">  1       -2 0.43820645E+00 0.42470429E+04</pdfrwt>
<totfact> 0.36627087E-02</totfact>
</mgrwt>
</event>
<event>
 6    1  0.1773638E-005  0.2740689E+04  0.7818608E-02  0.8321922E-01
         -2   -1    0    0    0  501 -0.00000000000E+00  0.00000000000E+00  0.23846668095E+04  0.23846668095E+04  0.00000000000E+00 0.  1.
          2   -1    0    0  501    0  0.00000000000E+00 -0.00000000000E+00 -0.78746616391E+03  0.78746616391E+03  0.00000000000E+00 0. -1.
         23    2    1    2    0    0  0.89488872790E+03 -0.88535731975E+03  0.14217006890E+04  0.19011161939E+04  0.91249737571E+02 0.  0.
         11    1    3    3    0    0  0.72990192769E+03 -0.67097573051E+03  0.11300271191E+04  0.15033052068E+04  0.00000000000E+00 0.  1.
        -11    1    3    3    0    0  0.16498680021E+03 -0.21438158924E+03  0.29167356998E+03  0.39781098712E+03  0.00000000000E+00 0. -1.
         22    1    1    2    0    0 -0.89488872790E+03  0.88535731975E+03  0.17549995653E+03  0.12710167795E+04  0.00000000000E+00 0. -1.
<mgrwt>
<rscale>  0 0.27406893E+04</rscale>
<asrwt>0</asrwt>
<pdfrwt beam="1">  1        2 0.12114864E+00 0.27406893E+04</pdfrwt>
<pdfrwt beam="2">  1       -2 0.36687181E+00 0.27406893E+04</pdfrwt>
<totfact> 0.37392634E-01</totfact>
</mgrwt>
</event>
<event>
 6    1  0.1773638E-005  0.1162367E+04  0.7818608E-02  0.9146450E-01
         -2   -1    0    0    0  501 -0.00000000000E+00  0.00000000000E+00  0.58015759717E+03  0.58015759717E+03  0.00000000000E+00 0.  1.
          2   -1    0    0  501    0  0.00000000000E+00 -0.00000000000E+00 -0.58221126153E+03  0.58221126153E+03  0.00000000000E+00 0. -1.
         23    2    1    2    0    0  0.34891746858E+03  0.28405378891E+03  0.36111320636E+03  0.58416462933E+03  0.91736641981E+02 0.  0.
         11    1    3    3    0    0  0.19164673770E+03  0.20644855121E+03  0.19494037351E+03  0.34256565151E+03  0.00000000000E+00 0. -1.
        -11    1    3    3    0    0  0.15727073088E+03  0.77605237700E+02  0.16617283284E+03  0.24159897782E+03  0.00000000000E+00 0.  1.
         22    1    1    2    0    0 -0.34891746858E+03 -0.28405378891E+03 -0.36316687071E+03  0.57820422937E+03  0.00000000000E+00 0. -1.
<mgrwt>
<rscale>  0 0.11623670E+04</rscale>
<asrwt>0</asrwt>
<pdfrwt beam="1">  1        2 0.89570963E-01 0.11623670E+04</pdfrwt>
<pdfrwt beam="2">  1       -2 0.89255015E-01 0.11623670E+04</pdfrwt>
<totfact> 0.54828253E+01</totfact>
</mgrwt>
</event>
<event>
 6    1  0.1773638E-005  0.2732710E+04  0.7818608E-02  0.8324469E-01
         -1   -1    0    0    0  501 -0.00000000000E+00  0.00000000000E+00  0.16745418802E+04  0.16745418802E+04  0.00000000000E+00 0.  1.
          1   -1    0    0  501    0  0.00000000000E+00 -0.00000000000E+00 -0.11148873865E+04  0.11148873865E+04  0.00000000000E+00 0. -1.
         23    2    1    2    0    0 -0.51690978008E+03 -0.12167945164E+04 -0.66181344057E+02  0.13267416337E+04  0.89882014192E+02 0.  0.
         11    1    3    3    0    0 -0.33004703197E+03 -0.78109835366E+03 -0.85543799488E+02  0.85226957181E+03  0.00000000000E+00 0. -1.
        -11    1    3    3    0    0 -0.18686274811E+03 -0.43569616274E+03  0.19362455432E+02  0.47447206192E+03  0.00000000000E+00 0.  1.
         22    1    1    2    0    0  0.51690978008E+03  0.12167945164E+04  0.62583583776E+03  0.14626876330E+04  0.00000000000E+00 0.  1.
<mgrwt>
<rscale>  0 0.27327097E+04</rscale>
<asrwt>0</asrwt>
<pdfrwt beam="1">  1        1 0.17152114E+00 0.27327097E+04</pdfrwt>
<pdfrwt beam="2">  1       -1 0.25762183E+00 0.27327097E+04</pdfrwt>
<totfact> 0.66890709E-01</totfact>
</mgrwt>
</event>
<event>
 6    1  0.2695956E-005  0.3534699E+04  0.7818608E-02  0.8105616E-01
          2   -1    0    0  501    0  0.00000000000E+00  0.00000000000E+00  0.27312475191E+04  0.27312475191E+04  0.00000000000E+00 0.  1.
         -2   -1    0    0    0  501 -0.00000000000E+00 -0.00000000000E+00 -0.11436252555E+04  0.11436252555E+04  0.00000000000E+00 0. -1.
         23    2    1    2    0    0  0.14728289890E+04  0.97476247694E+03  0.78548973427E+03  0.19350780144E+04  0.90253430035E+02 0.  0.
         13    1    3    3    0    0  0.67755794586E+03  0.43292485443E+03  0.31054063355E+03  0.86194210053E+03  0.00000000000E+00 0.  1.
        -13    1    3    3    0    0  0.79527104316E+03  0.54183762251E+03  0.47494910072E+03  0.10731359138E+04  0.00000000000E+00 0. -1.
         22    1    1    2    0    0 -0.14728289890E+04 -0.97476247694E+03  0.80213252936E+03  0.19397947603E+04  0.00000000000E+00 0. -1.
<mgrwt>
<rscale>  0 0.35346987E+04</rscale>
<asrwt>0</asrwt>
<pdfrwt beam="1">  1        2 0.42019192E+00 0.35346987E+04</pdfrwt>
<pdfrwt beam="2">  1       -2 0.17594235E+00 0.35346987E+04</pdfrwt>
<totfact> 0.40320542E-01</totfact>
</mgrwt>
</event>
<event>
 6    1  0.1773638E-005  0.3571162E+04  0.7818608E-02  0.8097130E-01
          1   -1    0    0  501    0  0.00000000000E+00  0.00000000000E+00  0.15467301150E+04  0.15467301150E+04  0.00000000000E+00 0. -1.
         -1   -1    0    0    0  501 -0.00000000000E+00 -0.00000000000E+00 -0.20613156662E+04  0.20613156662E+04  0.00000000000E+00 0.  1.
         23    2    1    2    0    0  0.13271594388E+04  0.64962209412E+03  0.75342787881E+03  0.16609404683E+04  0.87798800998E+02 0.  0.
         13    1    3    3    0    0  0.27889034687E+03  0.17430870904E+03  0.18252528253E+03  0.37613671768E+03  0.00000000000E+00 0.  1.
        -13    1    3    3    0    0  0.10482690919E+04  0.47531338508E+03  0.57090259628E+03  0.12848037506E+04  0.00000000000E+00 0. -1.
         22    1    1    2    0    0 -0.13271594388E+04 -0.64962209412E+03 -0.12680134300E+04  0.19471053129E+04  0.00000000000E+00 0.  1.
<mgrwt>
<rscale>  0 0.35711617E+04</rscale>
<asrwt>0</asrwt>
<pdfrwt beam="1">  1        1 0.23795848E+00 0.35711617E+04</pdfrwt>
<pdfrwt beam="2">  1       -1 0.31712549E+00 0.35711617E+04</pdfrwt>
<totfact> 0.12581924E-01</totfact>
</mgrwt>
</event>
<event>
 6    1  0.1773638E-005  0.2431163E+04  0.7818608E-02  0.8427928E-01
          2   -1    0    0  501    0  0.00000000000E+00  0.00000000000E+00  0.34544651128E+04  0.34544651128E+04  0.00000000000E+00 0. -1.
         -2   -1    0    0    0  501 -0.00000000000E+00 -0.00000000000E+00 -0.42774743813E+03  0.42774743813E+03  0.00000000000E+00 0.  1.
         23    2    1    2    0    0 -0.77832784895E+03 -0.36446617220E+03  0.14661699043E+03  0.87661614047E+03  0.91266010762E+02 0.  0.
         11    1    3    3    0    0 -0.41843009216E+03 -0.15486565119E+03  0.49055883204E+02  0.44885809742E+03  0.00000000000E+00 0. -1.
        -11    1    3    3    0    0 -0.35989775679E+03 -0.20960052101E+03  0.97561107227E+02  0.42775804305E+03  0.00000000000E+00 0.  1.
         22    1    1    2    0    0  0.77832784895E+03  0.36446617220E+03  0.28801006842E+04  0.30055964104E+04  0.00000000000E+00 0.  1.
<mgrwt>
<rscale>  0 0.24311632E+04</rscale>
<asrwt>0</asrwt>
<pdfrwt beam="1">  1        2 0.53145615E+00 0.24311632E+04</pdfrwt>
<pdfrwt beam="2">  1       -2 0.65807301E-01 0.24311632E+04</pdfrwt>
<totfact> 0.16702380E+00</totfact>
</mgrwt>
</event>
<event>
 6    1  0.1773638E-005  0.5313273E+03  0.7818608E-02  0.1005911E+00
          2   -1    0    0  501    0  0.00000000000E+00  0.00000000000E+00  0.74927620654E+03  0.74927620654E+03  0.00000000000E+00 0. -1.
         -2   -1    0    0    0  501 -0.00000000000E+00 -0.00000000000E+00 -0.94193818254E+02  0.94193818254E+02  0.00000000000E+00 0.  1.
         23    2    1    2    0    0 -0.23200556256E+03 -0.53190761548E+02  0.49494900869E+03  0.55659280815E+03  0.90361466930E+02 0.  0.
         13    1    3    3    0    0 -0.14417179754E+03 -0.71836958990E+02  0.27018170342E+03  0.31455398383E+03  0.00000000000E+00 0.  1.
        -13    1    3    3    0    0 -0.87833765013E+02  0.18646197442E+02  0.22476730527E+03  0.24203882432E+03  0.00000000000E+00 0. -1.
         22    1    1    2    0    0  0.23200556256E+03  0.53190761548E+02  0.16013337960E+03  0.28687721665E+03  0.00000000000E+00 0. -1.
<mgrwt>
<rscale>  0 0.53132734E+03</rscale>
<asrwt>0</asrwt>
<pdfrwt beam="1">  1        2 0.11527326E+00 0.53132734E+03</pdfrwt>
<pdfrwt beam="2">  1       -2 0.14491357E-01 0.53132734E+03</pdfrwt>
<totfact> 0.13986972E+03</totfact>
</mgrwt>
</event>
<event>
 6    1  0.1773638E-005  0.1146430E+04  0.7818608E-02  0.9161083E-01
          3   -1    0    0  501    0  0.00000000000E+00  0.00000000000E+00  0.15743868022E+04  0.15743868022E+04  0.00000000000E+00 0. -1.
         -3   -1    0    0    0  501 -0.00000000000E+00 -0.00000000000E+00 -0.20870074685E+03  0.20870074685E+03  0.00000000000E+00 0.  1.
         23    2    1    2    0    0  0.14401922207E+03 -0.39273256439E+03  0.86413688446E+02  0.43716103093E+03  0.93070070135E+02 0.  0.
         13    1    3    3    0    0  0.80956542757E+02 -0.11945449828E+03  0.21605909695E+01  0.14431911560E+03  0.00000000000E+00 0. -1.
        -13    1    3    3    0    0  0.63062679311E+02 -0.27327806611E+03  0.84253097476E+02  0.29284191533E+03  0.00000000000E+00 0.  1.
         22    1    1    2    0    0 -0.14401922207E+03  0.39273256439E+03  0.12792723670E+04  0.13459265182E+04  0.00000000000E+00 0. -1.
<mgrwt>
<rscale>  0 0.11464305E+04</rscale>
<asrwt>0</asrwt>
<pdfrwt beam="1">  1        3 0.24221335E+00 0.11464305E+04</pdfrwt>
<pdfrwt beam="2">  1       -3 0.32107808E-01 0.11464305E+04</pdfrwt>
<totfact> 0.20376006E+00</totfact>
</mgrwt>
</event>
<event>
 6    1  0.1773638E-005  0.5499019E+03  0.7818608E-02  0.1001517E+00
          3   -1    0    0  501    0  0.00000000000E+00  0.00000000000E+00  0.27441724576E+03  0.27441724576E+03  0.00000000000E+00 0. -1.
         -3   -1    0    0    0  501 -0.00000000000E+00 -0.00000000000E+00 -0.27548567645E+03  0.27548567645E+03  0.00000000000E+00 0.  1.
         23    2    1    2    0    0  0.93956225446E+01 -0.70243879122E+02  0.25714815335E+03  0.28213756868E+03  0.91945389298E+02 0.  0.
         13    1    3    3    0    0  0.50105715626E+02 -0.46071785047E+02  0.16633723239E+03  0.17972553239E+03  0.00000000000E+00 0. -1.
        -13    1    3    3    0    0 -0.40710093081E+02 -0.24172094075E+02  0.90810920965E+02  0.10241203629E+03  0.00000000000E+00 0.  1.
         22    1    1    2    0    0 -0.93956225446E+01  0.70243879122E+02 -0.25821658404E+03  0.26776535352E+03  0.00000000000E+00 0.  1.
<mgrwt>
<rscale>  0 0.54990188E+03</rscale>
<asrwt>0</asrwt>
<pdfrwt beam="1">  1        3 0.42218037E-01 0.54990188E+03</pdfrwt>
<pdfrwt beam="2">  1       -3 0.42382412E-01 0.54990188E+03</pdfrwt>
<totfact> 0.80977825E+01</totfact>
</mgrwt>
</event>
<event>
 6    1  0.1773638E-005  0.2065026E+04  0.7818608E-02  0.8576808E-01
          2   -1    0    0  501    0  0.00000000000E+00  0.00000000000E+00  0.16302288298E+04  0.16302288298E+04  0.00000000000E+00 0.  1.
         -2   -1    0    0    0  501 -0.00000000000E+00 -0.00000000000E+00 -0.65394659254E+03  0.65394659254E+03  0.00000000000E+00 0. -1.
         23    2    1    2    0    0 -0.48725394917E+03  0.60061150490E+03 -0.26440376996E+03  0.82217256348E+03  0.88925698041E+02 0.  0.
         11    1    3    3    0    0 -0.36392991999E+03  0.38965761796E+03 -0.16220404849E+03  0.55730440447E+03  0.00000000000E+00 0.  1.
        -11    1    3    3    0    0 -0.12332402918E+03  0.21095388693E+03 -0.10219972148E+03  0.26486815901E+03  0.00000000000E+00 0. -1.
         22    1    1    2    0    0  0.48725394917E+03 -0.60061150490E+03  0.12406860072E+04  0.14620028588E+04  0.00000000000E+00 0.  1.
<mgrwt>
<rscale>  0 0.20650255E+04</rscale>
<asrwt>0</asrwt>
<pdfrwt beam="1">  1        2 0.25080443E+00 0.20650255E+04</pdfrwt>
<pdfrwt beam="2">  1       -2 0.10060717E+00 0.20650255E+04</pdfrwt>
<totfact> 0.80716225E+00</totfact>
</mgrwt>
</event>
<event>
 6    1  0.1773638E-005  0.2563804E+04  0.7818608E-02  0.8380601E-01
         -2   -1    0    0    0  501 -0.00000000000E+00  0.00000000000E+00  0.54444217011E+03  0.54444217011E+03  0.00000000000E+00 0. -1.
          2   -1    0    0  501    0  0.00000000000E+00 -0.00000000000E+00 -0.30182676962E+04  0.30182676962E+04  0.00000000000E+00 0.  1.
         23    2    1    2    0    0 -0.41361968839E+03 -0.12071726444E+04 -0.10937620419E+04  0.16831029233E+04  0.90404678411E+02 0.  0.
         13    1    3    3    0    0 -0.38410101089E+03 -0.10275189135E+04 -0.92654639096E+03  0.14359028236E+04  0.00000000000E+00 0. -1.
        -13    1    3    3    0    0 -0.29518677502E+02 -0.17965373089E+03 -0.16721565099E+03  0.24720009968E+03  0.00000000000E+00 0.  1.
         22    1    1    2    0    0  0.41361968839E+03  0.12071726444E+04 -0.13800634842E+04  0.18796069431E+04  0.00000000000E+00 0.  1.
<mgrwt>
<rscale>  0 0.25638036E+04</rscale>
<asrwt>0</asrwt>
<pdfrwt beam="1">  1        2 0.46434887E+00 0.25638036E+04</pdfrwt>
<pdfrwt beam="2">  1       -2 0.83760336E-01 0.25638036E+04</pdfrwt>
<totfact> 0.18744160E+00</totfact>
</mgrwt>
</event>
<event>
 6    1  0.1773638E-005  0.2643439E+04  0.7818608E-02  0.8353594E-01
         -2   -1    0    0    0  501 -0.00000000000E+00  0.00000000000E+00  0.90668867261E+03  0.90668867261E+03  0.00000000000E+00 0.  1.
          2   -1    0    0  501    0  0.00000000000E+00 -0.00000000000E+00 -0.19267277066E+04  0.19267277066E+04  0.00000000000E+00 0. -1.
         23    2    1    2    0    0 -0.84575957324E+03 -0.78975133246E+03 -0.11916876763E+04  0.16635960173E+04  0.91737494363E+02 0.  0.
         11    1    3    3    0    0 -0.18110683900E+03 -0.13671846180E+03 -0.19503124266E+03  0.29921365367E+03  0.00000000000E+00 0. -1.
        -11    1    3    3    0    0 -0.66465273425E+03 -0.65303287067E+03 -0.99665643366E+03  0.13643823636E+04  0.00000000000E+00 0.  1.
         22    1    1    2    0    0  0.84575957324E+03  0.78975133246E+03  0.17164864231E+03  0.11698203620E+04  0.00000000000E+00 0. -1.
<mgrwt>
<rscale>  0 0.26434388E+04</rscale>
<asrwt>0</asrwt>
<pdfrwt beam="1">  1        2 0.29641965E+00 0.26434388E+04</pdfrwt>
<pdfrwt beam="2">  1       -2 0.13949056E+00 0.26434388E+04</pdfrwt>
<totfact> 0.23453466E+00</totfact>
</mgrwt>
</event>
<event>
 6    1  0.1773638E-005  0.1626623E+04  0.7818608E-02  0.8804358E-01
          1   -1    0    0  501    0  0.00000000000E+00  0.00000000000E+00  0.58078207275E+03  0.58078207275E+03  0.00000000000E+00 0. -1.
         -1   -1    0    0    0  501 -0.00000000000E+00 -0.00000000000E+00 -0.11389388940E+04  0.11389388940E+04  0.00000000000E+00 0.  1.
         23    2    1    2    0    0  0.15641304767E+03 -0.79171795040E+03 -0.36209580720E+03  0.88922576764E+03  0.91250960455E+02 0.  0.
         13    1    3    3    0    0  0.10146035983E+03 -0.55898992628E+03 -0.20930315904E+03  0.60545169476E+03  0.00000000000E+00 0. -1.
        -13    1    3    3    0    0  0.54952687839E+02 -0.23272802412E+03 -0.15279264816E+03  0.28377407289E+03  0.00000000000E+00 0.  1.
         22    1    1    2    0    0 -0.15641304767E+03  0.79171795040E+03 -0.19606101401E+03  0.83049519907E+03  0.00000000000E+00 0. -1.
<mgrwt>
<rscale>  0 0.16266226E+04</rscale>
<asrwt>0</asrwt>
<pdfrwt beam="1">  1        1 0.89351089E-01 0.16266226E+04</pdfrwt>
<pdfrwt beam="2">  1       -1 0.17522137E+00 0.16266226E+04</pdfrwt>
<totfact> 0.77436127E+00</totfact>
</mgrwt>
</event>
<event>
 6    1  0.1773638E-005  0.3113073E+03  0.7818608E-02  0.1079721E+00
         -2   -1    0    0    0  501 -0.00000000000E+00  0.00000000000E+00  0.83905213152E+02  0.83905213152E+02  0.00000000000E+00 0.  1.
          2   -1    0    0  501    0  0.00000000000E+00 -0.00000000000E+00 -0.28875508854E+03  0.28875508854E+03  0.00000000000E+00 0. -1.
         23    2    1    2    0    0  0.15967586937E+02  0.42902016915E+02  0.49629752669E+02  0.11409613561E+03  0.91974284027E+02 0.  0.
         11    1    3    3    0    0  0.18114600276E+01  0.18936216779E+02  0.74426067735E+02  0.76818625683E+02  0.00000000000E+00 0.  1.
        -11    1    3    3    0    0  0.14156126909E+02  0.23965800136E+02 -0.24796315066E+02  0.37277509924E+02  0.00000000000E+00 0. -1.
         22    1    1    2    0    0 -0.15967586937E+02 -0.42902016915E+02 -0.25447962806E+03  0.25856416609E+03  0.00000000000E+00 0. -1.
<mgrwt>
<rscale>  0 0.31130729E+03</rscale>
<asrwt>0</asrwt>
<pdfrwt beam="1">  1        2 0.44423860E-01 0.31130729E+03</pdfrwt>
<pdfrwt beam="2">  1       -2 0.12908494E-01 0.31130729E+03</pdfrwt>
<totfact> 0.49966184E+03</totfact>
</mgrwt>
</event>
<event>
 6    1  0.1773638E-005  0.4261075E+03  0.7818608E-02  0.1035097E+00
          1   -1    0    0  501    0  0.00000000000E+00  0.00000000000E+00  0.36606889459E+03  0.36606889459E+03  0.00000000000E+00 0. -1.
         -1   -1    0    0    0  501 -0.00000000000E+00 -0.00000000000E+00 -0.12399822293E+03  0.12399822293E+03  0.00000000000E+00 0.  1.
         23    2    1    2    0    0 -0.99200007167E+02  0.17542667157E+03  0.10819382998E+03  0.24812049684E+03  0.96139053383E+02 0.  0.
         13    1    3    3    0    0 -0.53821547387E+02  0.16748775213E+03  0.74507910903E+02  0.19105060813E+03  0.00000000000E+00 0. -1.
        -13    1    3    3    0    0 -0.45378459780E+02  0.79389194400E+01  0.33685919079E+02  0.57069888716E+02  0.00000000000E+00 0.  1.
         22    1    1    2    0    0  0.99200007167E+02 -0.17542667157E+03  0.13387684168E+03  0.24194662068E+03  0.00000000000E+00 0. -1.
<mgrwt>
<rscale>  0 0.42610746E+03</rscale>
<asrwt>0</asrwt>
<pdfrwt beam="1">  1        1 0.56318291E-01 0.42610746E+03</pdfrwt>
<pdfrwt beam="2">  1       -1 0.19076650E-01 0.42610746E+03</pdfrwt>
<totfact> 0.14870250E+03</totfact>
</mgrwt>
</event>
<event>
 6    1  0.1773638E-005  0.1615247E+04  0.7818608E-02  0.8811235E-01
         -1   -1    0    0    0  501 -0.00000000000E+00  0.00000000000E+00  0.54722628069E+03  0.54722628069E+03  0.00000000000E+00 0.  1.
          1   -1    0    0  501    0  0.00000000000E+00 -0.00000000000E+00 -0.11919309008E+04  0.11919309008E+04  0.00000000000E+00 0. -1.
         23    2    1    2    0    0  0.10843148096E+02  0.65947481213E+03  0.17366612469E+03  0.68808378843E+03  0.90965792101E+02 0.  0.
         11    1    3    3    0    0  0.30666621097E+02  0.13036153071E+03  0.58920507974E+02  0.14630856639E+03  0.00000000000E+00 0.  1.
        -11    1    3    3    0    0 -0.19823473001E+02  0.52911328142E+03  0.11474561671E+03  0.54177522204E+03  0.00000000000E+00 0. -1.
         22    1    1    2    0    0 -0.10843148096E+02 -0.65947481213E+03 -0.81837074484E+03  0.10510733931E+04  0.00000000000E+00 0. -1.
<mgrwt>
<rscale>  0 0.16152472E+04</rscale>
<asrwt>0</asrwt>
<pdfrwt beam="1">  1        1 0.18337398E+00 0.16152472E+04</pdfrwt>
<pdfrwt beam="2">  1       -1 0.84188660E-01 0.16152472E+04</pdfrwt>
<totfact> 0.14512540E+01</totfact>
</mgrwt>
</event>
<event>
 6    1  0.1773638E-005  0.2434304E+04  0.7818608E-02  0.8426771E-01
         -1   -1    0    0    0  501 -0.00000000000E+00  0.00000000000E+00  0.17783955414E+04  0.17783955414E+04  0.00000000000E+00 0.  1.
          1   -1    0    0  501    0  0.00000000000E+00 -0.00000000000E+00 -0.83303151998E+03  0.83303151998E+03  0.00000000000E+00 0. -1.
         23    2    1    2    0    0  0.92155888889E+03 -0.18088225718E+03  0.13010011611E+04  0.16072025090E+04  0.92231811908E+02 0.  0.
         13    1    3    3    0    0  0.66625646031E+03 -0.14999863674E+03  0.88061665780E+03  0.11143980258E+04  0.00000000000E+00 0.  1.
        -13    1    3    3    0    0  0.25530242857E+03 -0.30883620449E+02  0.42038450328E+03  0.49280448318E+03  0.00000000000E+00 0. -1.
         22    1    1    2    0    0 -0.92155888889E+03  0.18088225718E+03 -0.35563713960E+03  0.10042245524E+04  0.00000000000E+00 0. -1.
<mgrwt>
<rscale>  0 0.24343045E+04</rscale>
<asrwt>0</asrwt>
<pdfrwt beam="1">  1        1 0.12815870E+00 0.24343045E+04</pdfrwt>
<pdfrwt beam="2">  1       -1 0.27359931E+00 0.24343045E+04</pdfrwt>
<totfact> 0.90578179E-01</totfact>
</mgrwt>
</event>
<event>
 6    1  0.1773638E-005  0.1342828E+04  0.7818608E-02  0.8996275E-01
          2   -1    0    0  501    0  0.00000000000E+00  0.00000000000E+00  0.20289323560E+04  0.20289323560E+04  0.00000000000E+00 0.  1.
         -2   -1    0    0    0  501 -0.00000000000E+00 -0.00000000000E+00 -0.22218411122E+03  0.22218411122E+03  0.00000000000E+00 0. -1.
         23    2    1    2    0    0 -0.42218452147E+03  0.50535490656E+03  0.71720535801E+03  0.97803867940E+03  0.92481247233E+02 0.  0.
         11    1    3    3    0    0 -0.21652829901E+03  0.23902499661E+03  0.28584949887E+03  0.43096100668E+03  0.00000000000E+00 0.  1.
        -11    1    3    3    0    0 -0.20565622246E+03  0.26632990994E+03  0.43135585914E+03  0.54707767272E+03  0.00000000000E+00 0. -1.
         22    1    1    2    0    0  0.42218452147E+03 -0.50535490656E+03  0.10895428868E+04  0.12730777879E+04  0.00000000000E+00 0.  1.
<mgrwt>
<rscale>  0 0.13428277E+04</rscale>
<asrwt>0</asrwt>
<pdfrwt beam="1">  1        2 0.31214343E+00 0.13428277E+04</pdfrwt>
<pdfrwt beam="2">  1       -2 0.34182172E-01 0.13428277E+04</pdfrwt>
<totfact> 0.50472142E+01</totfact>
</mgrwt>
</event>
<event>
 6    1  0.1773638E-005  0.1558013E+04  0.7818608E-02  0.8846766E-01
         -2   -1    0    0    0  501 -0.00000000000E+00  0.00000000000E+00  0.39016444526E+03  0.39016444526E+03  0.00000000000E+00 0.  1.
          2   -1    0    0  501    0  0.00000000000E+00 -0.00000000000E+00 -0.15553717167E+04  0.15553717167E+04  0.00000000000E+00 0. -1.
         23    2    1    2    0    0  0.64521040956E+03  0.48601053687E+02 -0.49315962512E+02  0.65562455708E+03  0.93557258749E+02 0.  0.
         11    1    3    3    0    0  0.10186487482E+03  0.33541081688E+02  0.14959832533E+02  0.10828320956E+03  0.00000000000E+00 0.  1.
        -11    1    3    3    0    0  0.54334553474E+03  0.15059971999E+02 -0.64275795045E+02  0.54734134753E+03  0.00000000000E+00 0. -1.
         22    1    1    2    0    0 -0.64521040956E+03 -0.48601053687E+02 -0.11158913089E+04  0.12899116048E+04  0.00000000000E+00 0. -1.
<mgrwt>
<rscale>  0 0.15580125E+04</rscale>
<asrwt>0</asrwt>
<pdfrwt beam="1">  1        2 0.23928796E+00 0.15580125E+04</pdfrwt>
<pdfrwt beam="2">  1       -2 0.60025299E-01 0.15580125E+04</pdfrwt>
<totfact> 0.29403609E+01</totfact>
</mgrwt>
</event>
<event>
 6    1  0.1773638E-005  0.2293308E+04  0.7818608E-02  0.8480564E-01
          2   -1    0    0  501    0  0.00000000000E+00  0.00000000000E+00  0.15742186947E+04  0.15742186947E+04  0.00000000000E+00 0. -1.
         -2   -1    0    0    0  501 -0.00000000000E+00 -0.00000000000E+00 -0.83521792706E+03  0.83521792706E+03  0.00000000000E+00 0.  1.
         23    2    1    2    0    0  0.39956991548E+03  0.68672322360E+03 -0.49592765542E+03  0.94100442609E+03  0.91105363888E+02 0.  0.
         11    1    3    3    0    0  0.11320986636E+03  0.27799950582E+03 -0.17034338000E+03  0.34513340347E+03  0.00000000000E+00 0.  1.
        -11    1    3    3    0    0  0.28636004912E+03  0.40872371778E+03 -0.32558427542E+03  0.59587102263E+03  0.00000000000E+00 0. -1.
         22    1    1    2    0    0 -0.39956991548E+03 -0.68672322360E+03  0.12349284230E+04  0.14684321956E+04  0.00000000000E+00 0. -1.
<mgrwt>
<rscale>  0 0.22933082E+04</rscale>
<asrwt>0</asrwt>
<pdfrwt beam="1">  1        2 0.24218749E+00 0.22933082E+04</pdfrwt>
<pdfrwt beam="2">  1       -2 0.12849507E+00 0.22933082E+04</pdfrwt>
<totfact> 0.46786650E+00</totfact>
</mgrwt>
</event>
<event>
 6    1  0.1773638E-005  0.2701688E+04  0.7818608E-02  0.8334457E-01
          2   -1    0    0  501    0  0.00000000000E+00  0.00000000000E+00  0.13088550556E+04  0.13088550556E+04  0.00000000000E+00 0. -1.
         -2   -1    0    0    0  501 -0.00000000000E+00 -0.00000000000E+00 -0.13941803886E+04  0.13941803886E+04  0.00000000000E+00 0.  1.
         23    2    1    2    0    0  0.12182069990E+04  0.42958167487E+03 -0.43267854008E+03  0.13654170538E+04  0.92651518336E+02 0.  0.
         13    1    3    3    0    0  0.86077578834E+03  0.28225539815E+03 -0.34232902008E+03  0.96839672943E+03  0.00000000000E+00 0.  1.
        -13    1    3    3    0    0  0.35743121068E+03  0.14732627673E+03 -0.90349519994E+02  0.39702032435E+03  0.00000000000E+00 0. -1.
         22    1    1    2    0    0 -0.12182069990E+04 -0.42958167487E+03  0.34735320717E+03  0.13376183904E+04  0.00000000000E+00 0. -1.
<mgrwt>
<rscale>  0 0.27016884E+04</rscale>
<asrwt>0</asrwt>
<pdfrwt beam="1">  1        2 0.20136232E+00 0.27016884E+04</pdfrwt>
<pdfrwt beam="2">  1       -2 0.21448929E+00 0.27016884E+04</pdfrwt>
<totfact> 0.15355080E+00</totfact>
</mgrwt>
</event>
<event>
 6    1  0.1773638E-005  0.1390051E+04  0.7818608E-02  0.8961052E-01
          1   -1    0    0  501    0  0.00000000000E+00  0.00000000000E+00  0.17286819189E+04  0.17286819189E+04  0.00000000000E+00 0. -1.
         -1   -1    0    0    0  501 -0.00000000000E+00 -0.00000000000E+00 -0.27943860320E+03  0.27943860320E+03  0.00000000000E+00 0.  1.
         23    2    1    2    0    0  0.86905687002E+02  0.49330120531E+03  0.37744250623E+02  0.51037946027E+03  0.90354233019E+02 0.  0.
         11    1    3    3    0    0  0.78397574537E+02  0.20368844826E+03  0.31972815919E+02  0.22058428005E+03  0.00000000000E+00 0.  1.
        -11    1    3    3    0    0  0.85081124647E+01  0.28961275705E+03  0.57714347040E+01  0.28979518023E+03  0.00000000000E+00 0. -1.
         22    1    1    2    0    0 -0.86905687002E+02 -0.49330120531E+03  0.14114990651E+04  0.14977410619E+04  0.00000000000E+00 0. -1.
<mgrwt>
<rscale>  0 0.13900510E+04</rscale>
<asrwt>0</asrwt>
<pdfrwt beam="1">  1        1 0.26595106E+00 0.13900510E+04</pdfrwt>
<pdfrwt beam="2">  1       -1 0.42990555E-01 0.13900510E+04</pdfrwt>
<totfact> 0.23711688E+01</totfact>
</mgrwt>
</event>
<event>
 6    1  0.3729578E-005  0.3004456E+04  0.7818608E-02  0.8242460E-01
         -2   -1    0    0    0  501 -0.00000000000E+00  0.00000000000E+00  0.12632888879E+04  0.12632888879E+04  0.00000000000E+00 0.  1.
          2   -1    0    0  501    0  0.00000000000E+00 -0.00000000000E+00 -0.17863601003E+04  0.17863601003E+04  0.00000000000E+00 0. -1.
         23    2    1    2    0    0  0.62818721797E+02 -0.14311509981E+04 -0.71618418050E+03  0.16041622226E+04  0.90979585410E+02 0.  0.
         11    1    3    3    0    0  0.66730468041E+02 -0.10552433632E+04 -0.56633077346E+03  0.11994674051E+04  0.00000000000E+00 0. -1.
        -11    1    3    3    0    0 -0.39117462438E+01 -0.37590763488E+03 -0.14985340704E+03  0.40469481751E+03  0.00000000000E+00 0.  1.
         22    1    1    2    0    0 -0.62818721797E+02  0.14311509981E+04  0.19311296803E+03  0.14454867656E+04  0.00000000000E+00 0. -1.
<mgrwt>
<rscale>  0 0.30044559E+04</rscale>
<asrwt>0</asrwt>
<pdfrwt beam="1">  1        2 0.27482463E+00 0.30044559E+04</pdfrwt>
<pdfrwt beam="2">  1       -2 0.19435214E+00 0.30044559E+04</pdfrwt>
<totfact> 0.10892265E+00</totfact>
</mgrwt>
</event>
<event>
 6    1  0.1773638E-005  0.8980402E+03  0.7818608E-02  0.9428035E-01
          2   -1    0    0  501    0  0.00000000000E+00  0.00000000000E+00  0.29882310558E+03  0.29882310558E+03  0.00000000000E+00 0. -1.
         -2   -1    0    0    0  501 -0.00000000000E+00 -0.00000000000E+00 -0.67471042597E+03  0.67471042597E+03  0.00000000000E+00 0.  1.
         23    2    1    2    0    0 -0.12579960060E+03 -0.13130228073E+03  0.24672935932E+03  0.32490624389E+03  0.10780937870E+03 0.  0.
         13    1    3    3    0    0 -0.35675390647E+02 -0.10110793398E+03  0.17731312340E+03  0.20720881145E+03  0.00000000000E+00 0.  1.
        -13    1    3    3    0    0 -0.90124209956E+02 -0.30194346757E+02  0.69416235913E+02  0.11769743245E+03  0.00000000000E+00 0. -1.
         22    1    1    2    0    0  0.12579960060E+03  0.13130228073E+03 -0.62261667970E+03  0.64862728765E+03  0.00000000000E+00 0.  1.
<mgrwt>
<rscale>  0 0.89804023E+03</rscale>
<asrwt>0</asrwt>
<pdfrwt beam="1">  1        2 0.45972786E-01 0.89804023E+03</pdfrwt>
<pdfrwt beam="2">  1       -2 0.10380160E+00 0.89804023E+03</pdfrwt>
<totfact> 0.83603822E+01</totfact>
</mgrwt>
</event>
<event>
 6    1  0.1773638E-005  0.2026327E+04  0.7818608E-02  0.8594410E-01
          2   -1    0    0  501    0  0.00000000000E+00  0.00000000000E+00  0.11555195278E+04  0.11555195278E+04  0.00000000000E+00 0. -1.
         -2   -1    0    0    0  501 -0.00000000000E+00 -0.00000000000E+00 -0.88834500051E+03  0.88834500051E+03  0.00000000000E+00 0.  1.
         23    2    1    2    0    0  0.63547247891E+03  0.58899313725E+03  0.65979483090E+03  0.10926080487E+04  0.87891649291E+02 0.  0.
         11    1    3    3    0    0  0.36761275893E+03  0.28093399725E+03  0.34953304830E+03  0.57985895112E+03  0.00000000000E+00 0.  1.
        -11    1    3    3    0    0  0.26785971998E+03  0.30805914000E+03  0.31026178260E+03  0.51274909758E+03  0.00000000000E+00 0. -1.
         22    1    1    2    0    0 -0.63547247891E+03 -0.58899313725E+03 -0.39262030361E+03  0.95125647960E+03  0.00000000000E+00 0.  1.
<mgrwt>
<rscale>  0 0.20263267E+04</rscale>
<asrwt>0</asrwt>
<pdfrwt beam="1">  1        2 0.17777224E+00 0.20263267E+04</pdfrwt>
<pdfrwt beam="2">  1       -2 0.13666846E+00 0.20263267E+04</pdfrwt>
<totfact> 0.71408824E+00</totfact>
</mgrwt>
</event>
<event>
 6    1  0.1773638E-005  0.2120748E+04  0.7818608E-02  0.8552158E-01
          2   -1    0    0  501    0  0.00000000000E+00  0.00000000000E+00  0.77186191197E+03  0.77186191197E+03  0.00000000000E+00 0. -1.
         -2   -1    0    0    0  501 -0.00000000000E+00 -0.00000000000E+00 -0.14567288534E+04  0.14567288534E+04  0.00000000000E+00 0.  1.
         23    2    1    2    0    0 -0.68896336735E+03  0.20158625806E+03 -0.11603679738E+04  0.13675397955E+04  0.91671787535E+02 0.  0.
         13    1    3    3    0    0 -0.42500062016E+03  0.11725183726E+03 -0.62706856745E+03  0.76654322041E+03  0.00000000000E+00 0.  1.
        -13    1    3    3    0    0 -0.26396274719E+03  0.84334420801E+02 -0.53329940637E+03  0.60099657509E+03  0.00000000000E+00 0. -1.
         22    1    1    2    0    0  0.68896336735E+03 -0.20158625806E+03  0.47550103235E+03  0.86105096989E+03  0.00000000000E+00 0. -1.
<mgrwt>
<rscale>  0 0.21207485E+04</rscale>
<asrwt>0</asrwt>
<pdfrwt beam="1">  1        2 0.11874799E+00 0.21207485E+04</pdfrwt>
<pdfrwt beam="2">  1       -2 0.22411213E+00 0.21207485E+04</pdfrwt>
<totfact> 0.30920844E+00</totfact>
</mgrwt>
</event>
<event>
 6    1  0.1773638E-005  0.2400938E+04  0.7818608E-02  0.8439152E-01
          1   -1    0    0  501    0  0.00000000000E+00  0.00000000000E+00  0.17094840051E+04  0.17094840051E+04  0.00000000000E+00 0. -1.
         -1   -1    0    0    0  501 -0.00000000000E+00 -0.00000000000E+00 -0.84301830585E+03  0.84301830585E+03  0.00000000000E+00 0.  1.
         23    2    1    2    0    0 -0.29660228708E+03  0.46879175468E+03 -0.69578470948E+03  0.89468297052E+03  0.92750363008E+02 0.  0.
         11    1    3    3    0    0 -0.80986346593E+02  0.20986398062E+03 -0.29799955218E+03  0.37337034135E+03  0.00000000000E+00 0. -1.
        -11    1    3    3    0    0 -0.21561594048E+03  0.25892777406E+03 -0.39778515730E+03  0.52131262917E+03  0.00000000000E+00 0.  1.
         22    1    1    2    0    0  0.29660228708E+03 -0.46879175468E+03  0.15622504088E+04  0.16578193405E+04  0.00000000000E+00 0. -1.
<mgrwt>
<rscale>  0 0.24009384E+04</rscale>
<asrwt>0</asrwt>
<pdfrwt beam="1">  1        1 0.26299754E+00 0.24009384E+04</pdfrwt>
<pdfrwt beam="2">  1       -1 0.12969512E+00 0.24009384E+04</pdfrwt>
<totfact> 0.21463319E+00</totfact>
</mgrwt>
</event>
<event>
 6    1  0.1773638E-005  0.1659150E+04  0.7818608E-02  0.8785012E-01
         -1   -1    0    0    0  501 -0.00000000000E+00  0.00000000000E+00  0.62549771818E+03  0.62549771818E+03  0.00000000000E+00 0.  1.
          1   -1    0    0  501    0  0.00000000000E+00 -0.00000000000E+00 -0.11002353573E+04  0.11002353573E+04  0.00000000000E+00 0. -1.
         23    2    1    2    0    0  0.33412136336E+03 -0.46885233088E+03  0.37951338708E+03  0.69558531452E+03  0.91372453037E+02 0.  0.
         11    1    3    3    0    0  0.69299759375E+02 -0.16889764033E+03  0.12821919126E+03  0.22308973658E+03  0.00000000000E+00 0. -1.
        -11    1    3    3    0    0  0.26482160399E+03 -0.29995469054E+03  0.25129419582E+03  0.47249557794E+03  0.00000000000E+00 0.  1.
         22    1    1    2    0    0 -0.33412136336E+03  0.46885233088E+03 -0.85425102620E+03  0.10301477609E+04  0.00000000000E+00 0. -1.
<mgrwt>
<rscale>  0 0.16591500E+04</rscale>
<asrwt>0</asrwt>
<pdfrwt beam="1">  1        1 0.16926698E+00 0.16591500E+04</pdfrwt>
<pdfrwt beam="2">  1       -1 0.96230420E-01 0.16591500E+04</pdfrwt>
<totfact> 0.12589419E+01</totfact>
</mgrwt>
</event>
<event>
 6    1  0.1773638E-005  0.3255164E+04  0.7818608E-02  0.8174398E-01
         -1   -1    0    0    0  501 -0.00000000000E+00  0.00000000000E+00  0.13083020978E+04  0.13083020978E+04  0.00000000000E+00 0.  1.
          1   -1    0    0  501    0  0.00000000000E+00 -0.00000000000E+00 -0.20247799754E+04  0.20247799754E+04  0.00000000000E+00 0. -1.
         23    2    1    2    0    0 -0.13007187717E+04 -0.71278068290E+03 -0.10414274430E+04  0.18146888946E+04  0.92731010180E+02 0.  0.
         11    1    3    3    0    0 -0.91882488957E+03 -0.54945591391E+03 -0.76287638138E+03  0.13145802951E+04  0.00000000000E+00 0. -1.
        -11    1    3    3    0    0 -0.38189388210E+03 -0.16332476899E+03 -0.27855106162E+03  0.50010859949E+03  0.00000000000E+00 0.  1.
         22    1    1    2    0    0  0.13007187717E+04  0.71278068290E+03  0.32494956538E+03  0.15183931786E+04  0.00000000000E+00 0.  1.
<mgrwt>
<rscale>  0 0.32551644E+04</rscale>
<asrwt>0</asrwt>
<pdfrwt beam="1">  1        1 0.31150461E+00 0.32551644E+04</pdfrwt>
<pdfrwt beam="2">  1       -1 0.20127725E+00 0.32551644E+04</pdfrwt>
<totfact> 0.35209578E-01</totfact>
</mgrwt>
</event>
<event>
 6    1  0.1773638E-005  0.3543919E+04  0.7818608E-02  0.8103460E-01
         -1   -1    0    0    0  501 -0.00000000000E+00  0.00000000000E+00  0.71952228427E+03  0.71952228427E+03  0.00000000000E+00 0.  1.
          1   -1    0    0  501    0  0.00000000000E+00 -0.00000000000E+00 -0.43637838841E+04  0.43637838841E+04  0.00000000000E+00 0. -1.
         23    2    1    2    0    0 -0.80760943723E+03 -0.46366718605E+03  0.33708165765E+03  0.99450262743E+03  0.90505080138E+02 0.  0.
         11    1    3    3    0    0 -0.55215392164E+03 -0.33995139669E+03  0.27288828489E+03  0.70349763420E+03  0.00000000000E+00 0. -1.
        -11    1    3    3    0    0 -0.25545551558E+03 -0.12371578936E+03  0.64193372754E+02  0.29100499323E+03  0.00000000000E+00 0.  1.
         22    1    1    2    0    0  0.80760943723E+03  0.46366718605E+03 -0.39813432575E+04  0.40888035410E+04  0.00000000000E+00 0. -1.
<mgrwt>
<rscale>  0 0.35439186E+04</rscale>
<asrwt>0</asrwt>
<pdfrwt beam="1">  1        1 0.67135137E+00 0.35439186E+04</pdfrwt>
<pdfrwt beam="2">  1       -1 0.11069574E+00 0.35439186E+04</pdfrwt>
<totfact> 0.26869671E-02</totfact>
</mgrwt>
</event>
<event>
 6    1  0.1773638E-005  0.2745726E+04  0.7818608E-02  0.8320319E-01
         -2   -1    0    0    0  501 -0.00000000000E+00  0.00000000000E+00  0.14085915325E+04  0.14085915325E+04  0.00000000000E+00 0. -1.
          2   -1    0    0  501    0  0.00000000000E+00 -0.00000000000E+00 -0.13380410606E+04  0.13380410606E+04  0.00000000000E+00 0.  1.
         23    2    1    2    0    0 -0.65081587952E+03 -0.82867327163E+03  0.91287438397E+03  0.13976439820E+04  0.99037161805E+02 0.  0.
         11    1    3    3    0    0 -0.35861119874E+03 -0.37653058345E+03  0.45137255344E+03  0.68855969541E+03  0.00000000000E+00 0. -1.
        -11    1    3    3    0    0 -0.29220468078E+03 -0.45214268818E+03  0.46150183053E+03  0.70908428661E+03  0.00000000000E+00 0.  1.
         22    1    1    2    0    0  0.65081587952E+03  0.82867327163E+03 -0.84232391201E+03  0.13489886111E+04  0.00000000000E+00 0.  1.
<mgrwt>
<rscale>  0 0.27457264E+04</rscale>
<asrwt>0</asrwt>
<pdfrwt beam="1">  1        2 0.20585247E+00 0.27457264E+04</pdfrwt>
<pdfrwt beam="2">  1       -2 0.21670639E+00 0.27457264E+04</pdfrwt>
<totfact> 0.14242121E+00</totfact>
</mgrwt>
</event>
<event>
 6    1  0.1773638E-005  0.9291215E+03  0.7818608E-02  0.9389893E-01
         -1   -1    0    0    0  501 -0.00000000000E+00  0.00000000000E+00  0.29816873271E+03  0.29816873271E+03  0.00000000000E+00 0.  1.
          1   -1    0    0  501    0  0.00000000000E+00 -0.00000000000E+00 -0.72380718237E+03  0.72380718237E+03  0.00000000000E+00 0. -1.
         23    2    1    2    0    0  0.23917062749E+03  0.55546632460E+02  0.21312806950E+03  0.33764362486E+03  0.91058365704E+02 0.  0.
         13    1    3    3    0    0  0.50907465619E+02 -0.25450539707E+02  0.47800001881E+02  0.74324559917E+02  0.00000000000E+00 0.  1.
        -13    1    3    3    0    0  0.18826316188E+03  0.80997172167E+02  0.16532806762E+03  0.26331906494E+03  0.00000000000E+00 0. -1.
         22    1    1    2    0    0 -0.23917062749E+03 -0.55546632460E+02 -0.63876651917E+03  0.68433229022E+03  0.00000000000E+00 0. -1.
<mgrwt>
<rscale>  0 0.92912146E+03</rscale>
<asrwt>0</asrwt>
<pdfrwt beam="1">  1        1 0.11135495E+00 0.92912146E+03</pdfrwt>
<pdfrwt beam="2">  1       -1 0.45872113E-01 0.92912146E+03</pdfrwt>
<totfact> 0.12299294E+02</totfact>
</mgrwt>
</event>
<event>
 6    1  0.1773638E-005  0.3638017E+04  0.7818608E-02  0.8081839E-01
          1   -1    0    0  501    0  0.00000000000E+00  0.00000000000E+00  0.31425035897E+04  0.31425035897E+04  0.00000000000E+00 0. -1.
         -1   -1    0    0    0  501 -0.00000000000E+00 -0.00000000000E+00 -0.10529156412E+04  0.10529156412E+04  0.00000000000E+00 0.  1.
         23    2    1    2    0    0  0.88167943488E+02  0.14986664716E+04 -0.13566579191E+03  0.15111075895E+04  0.10614217187E+03 0.  0.
         11    1    3    3    0    0  0.70791245396E+02  0.98061643661E+03 -0.39785182504E+02  0.98397299603E+03  0.00000000000E+00 0.  1.
        -11    1    3    3    0    0  0.17376698091E+02  0.51805003496E+03 -0.95880609403E+02  0.52713459346E+03  0.00000000000E+00 0. -1.
         22    1    1    2    0    0 -0.88167943488E+02 -0.14986664716E+04  0.22252537403E+04  0.26843116414E+04  0.00000000000E+00 0. -1.
<mgrwt>
<rscale>  0 0.36380166E+04</rscale>
<asrwt>0</asrwt>
<pdfrwt beam="1">  1        1 0.48346209E+00 0.36380166E+04</pdfrwt>
<pdfrwt beam="2">  1       -1 0.16198702E+00 0.36380166E+04</pdfrwt>
<totfact> 0.10674902E-01</totfact>
</mgrwt>
</event>
<event>
 6    1  0.1773638E-005  0.2361704E+04  0.7818608E-02  0.8453982E-01
          1   -1    0    0  501    0  0.00000000000E+00  0.00000000000E+00  0.17614818748E+04  0.17614818748E+04  0.00000000000E+00 0. -1.
         -1   -1    0    0    0  501 -0.00000000000E+00 -0.00000000000E+00 -0.79161303493E+03  0.79161303493E+03  0.00000000000E+00 0.  1.
         23    2    1    2    0    0 -0.11572892999E+03 -0.29086783281E+03 -0.74328774748E+03  0.81157179068E+03  0.90414680613E+02 0.  0.
         11    1    3    3    0    0  0.33943989133E+01 -0.70665593902E+02 -0.11225223184E+03  0.13268651649E+03  0.00000000000E+00 0. -1.
        -11    1    3    3    0    0 -0.11912332890E+03 -0.22020223891E+03 -0.63103551564E+03  0.67888527419E+03  0.00000000000E+00 0.  1.
         22    1    1    2    0    0  0.11572892999E+03  0.29086783281E+03  0.17131565873E+04  0.17415231190E+04  0.00000000000E+00 0. -1.
<mgrwt>
<rscale>  0 0.23617045E+04</rscale>
<asrwt>0</asrwt>
<pdfrwt beam="1">  1        1 0.27099721E+00 0.23617045E+04</pdfrwt>
<pdfrwt beam="2">  1       -1 0.12178662E+00 0.23617045E+04</pdfrwt>
<totfact> 0.23224795E+00</totfact>
</mgrwt>
</event>
<event>
 6    1  0.1773638E-005  0.1775210E+04  0.7818608E-02  0.8719595E-01
          1   -1    0    0  501    0  0.00000000000E+00  0.00000000000E+00  0.13657997010E+04  0.13657997010E+04  0.00000000000E+00 0. -1.
         -1   -1    0    0    0  501 -0.00000000000E+00 -0.00000000000E+00 -0.57683586827E+03  0.57683586827E+03  0.00000000000E+00 0.  1.
         23    2    1    2    0    0  0.42862287275E+03  0.65045529259E+03  0.85496814694E+03  0.11608643597E+04  0.99125549843E+02 0.  0.
         11    1    3    3    0    0  0.15263477950E+03  0.15726964318E+03  0.26491392762E+03  0.34381754701E+03  0.00000000000E+00 0. -1.
        -11    1    3    3    0    0  0.27598809325E+03  0.49318564940E+03  0.59005421932E+03  0.81704681269E+03  0.00000000000E+00 0.  1.
         22    1    1    2    0    0 -0.42862287275E+03 -0.65045529259E+03 -0.66004314176E+02  0.78177120962E+03  0.00000000000E+00 0.  1.
<mgrwt>
<rscale>  0 0.17752096E+04</rscale>
<asrwt>0</asrwt>
<pdfrwt beam="1">  1        1 0.21012303E+00 0.17752096E+04</pdfrwt>
<pdfrwt beam="2">  1       -1 0.88743980E-01 0.17752096E+04</pdfrwt>
<totfact> 0.95688389E+00</totfact>
</mgrwt>
</event>
<event>
 6    1  0.1773638E-005  0.1757561E+04  0.7818608E-02  0.8729199E-01
         -1   -1    0    0    0  501 -0.00000000000E+00  0.00000000000E+00  0.83584762562E+03  0.83584762562E+03  0.00000000000E+00 0.  1.
          1   -1    0    0  501    0  0.00000000000E+00 -0.00000000000E+00 -0.92391854140E+03  0.92391854140E+03  0.00000000000E+00 0. -1.
         23    2    1    2    0    0 -0.75002377380E+03 -0.82685009311E+02  0.40208841916E+03  0.85997249864E+03  0.92223259339E+02 0.  0.
         13    1    3    3    0    0 -0.48734749306E+03 -0.31179202671E+02  0.30207421911E+03  0.57421995395E+03  0.00000000000E+00 0.  1.
        -13    1    3    3    0    0 -0.26267628074E+03 -0.51505806640E+02  0.10001420005E+03  0.28575254469E+03  0.00000000000E+00 0. -1.
         22    1    1    2    0    0  0.75002377380E+03  0.82685009311E+02 -0.49015933494E+03  0.89979366838E+03  0.00000000000E+00 0. -1.
<mgrwt>
<rscale>  0 0.17575609E+04</rscale>
<asrwt>0</asrwt>
<pdfrwt beam="1">  1        1 0.14214131E+00 0.17575609E+04</pdfrwt>
<pdfrwt beam="2">  1       -1 0.12859194E+00 0.17575609E+04</pdfrwt>
<totfact> 0.85895285E+00</totfact>
</mgrwt>
</event>
<event>
 6    1  0.1773638E-005  0.2192617E+04  0.7818608E-02  0.8521507E-01
          2   -1    0    0  501    0  0.00000000000E+00  0.00000000000E+00  0.25092492543E+04  0.25092492543E+04  0.00000000000E+00 0. -1.
         -2   -1    0    0    0  501 -0.00000000000E+00 -0.00000000000E+00 -0.47898474039E+03  0.47898474039E+03  0.00000000000E+00 0.  1.
         23    2    1    2    0    0  0.27082993786E+03  0.10141568499E+04  0.14392183763E+04  0.17835769861E+04  0.89075020108E+02 0.  0.
         11    1    3    3    0    0  0.19909496331E+03  0.62773418517E+03  0.84893633698E+03  0.10744216658E+04  0.00000000000E+00 0. -1.
        -11    1    3    3    0    0  0.71734974549E+02  0.38642266476E+03  0.59028203936E+03  0.70915532037E+03  0.00000000000E+00 0.  1.
         22    1    1    2    0    0 -0.27082993786E+03 -0.10141568499E+04  0.59104613757E+03  0.12046570085E+04  0.00000000000E+00 0.  1.
<mgrwt>
<rscale>  0 0.21926168E+04</rscale>
<asrwt>0</asrwt>
<pdfrwt beam="1">  1        2 0.38603834E+00 0.21926168E+04</pdfrwt>
<pdfrwt beam="2">  1       -2 0.73689961E-01 0.21926168E+04</pdfrwt>
<totfact> 0.52220338E+00</totfact>
</mgrwt>
</event>
<event>
 6    1  0.1773638E-005  0.3267802E+03  0.7818608E-02  0.1072570E+00
         -2   -1    0    0    0  501 -0.00000000000E+00  0.00000000000E+00  0.12644004483E+03  0.12644004483E+03  0.00000000000E+00 0.  1.
          2   -1    0    0  501    0  0.00000000000E+00 -0.00000000000E+00 -0.21113817893E+03  0.21113817893E+03  0.00000000000E+00 0. -1.
         23    2    1    2    0    0 -0.12394861418E+03  0.37915226233E+02  0.33551841417E+02  0.16212486801E+03  0.91421679200E+02 0.  0.
         13    1    3    3    0    0  0.11363051775E+02  0.24221106493E+01  0.17931183391E+02  0.21366162581E+02  0.00000000000E+00 0.  1.
        -13    1    3    3    0    0 -0.13531166595E+03  0.35493115584E+02  0.15620658026E+02  0.14075870543E+03  0.00000000000E+00 0. -1.
         22    1    1    2    0    0  0.12394861418E+03 -0.37915226233E+02 -0.11824997551E+03  0.17545335575E+03  0.00000000000E+00 0. -1.
<mgrwt>
<rscale>  0 0.32678018E+03</rscale>
<asrwt>0</asrwt>
<pdfrwt beam="1">  1        2 0.32482797E-01 0.32678018E+03</pdfrwt>
<pdfrwt beam="2">  1       -2 0.19452315E-01 0.32678018E+03</pdfrwt>
<totfact> 0.35460291E+03</totfact>
</mgrwt>
</event>
<event>
 6    1  0.1773638E-005  0.3030332E+04  0.7818608E-02  0.8235122E-01
          2   -1    0    0  501    0  0.00000000000E+00  0.00000000000E+00  0.19606780193E+04  0.19606780193E+04  0.00000000000E+00 0. -1.
         -2   -1    0    0    0  501 -0.00000000000E+00 -0.00000000000E+00 -0.11708844001E+04  0.11708844001E+04  0.00000000000E+00 0.  1.
         23    2    1    2    0    0 -0.13951470963E+04  0.58499406675E+03  0.45030788663E+03  0.15811095691E+04  0.92069528295E+02 0.  0.
         11    1    3    3    0    0 -0.36743721786E+03  0.19767853864E+03  0.13286508260E+03  0.43788131255E+03  0.00000000000E+00 0. -1.
        -11    1    3    3    0    0 -0.10277098785E+04  0.38731552811E+03  0.31744280402E+03  0.11432282565E+04  0.00000000000E+00 0.  1.
         22    1    1    2    0    0  0.13951470963E+04 -0.58499406675E+03  0.33948573253E+03  0.15504528503E+04  0.00000000000E+00 0.  1.
<mgrwt>
<rscale>  0 0.30303315E+04</rscale>
<asrwt>0</asrwt>
<pdfrwt beam="1">  1        2 0.30164277E+00 0.30303315E+04</pdfrwt>
<pdfrwt beam="2">  1       -2 0.18013606E+00 0.30303315E+04</pdfrwt>
<totfact> 0.10856616E+00</totfact>
</mgrwt>
</event>
<event>
 6    1  0.1773638E-005  0.2307347E+04  0.7818608E-02  0.8475030E-01
         -2   -1    0    0    0  501 -0.00000000000E+00  0.00000000000E+00  0.80739134429E+03  0.80739134429E+03  0.00000000000E+00 0.  1.
          2   -1    0    0  501    0  0.00000000000E+00 -0.00000000000E+00 -0.16484732299E+04  0.16484732299E+04  0.00000000000E+00 0. -1.
         23    2    1    2    0    0  0.65232665631E+03  0.84931740889E+03 -0.87269284010E+03  0.13844779119E+04  0.91193025417E+02 0.  0.
         13    1    3    3    0    0  0.39283501008E+03  0.43787149982E+03 -0.48685870871E+03  0.76359819130E+03  0.00000000000E+00 0. -1.
        -13    1    3    3    0    0  0.25949164623E+03  0.41144590907E+03 -0.38583413139E+03  0.62087972064E+03  0.00000000000E+00 0.  1.
         22    1    1    2    0    0 -0.65232665631E+03 -0.84931740889E+03  0.31610954515E+02  0.10713866622E+04  0.00000000000E+00 0.  1.
<mgrwt>
<rscale>  0 0.23073474E+04</rscale>
<asrwt>0</asrwt>
<pdfrwt beam="1">  1        2 0.25361126E+00 0.23073474E+04</pdfrwt>
<pdfrwt beam="2">  1       -2 0.12421405E+00 0.23073474E+04</pdfrwt>
<totfact> 0.46251153E+00</totfact>
</mgrwt>
</event>
<event>
 6    1  0.1773638E-005  0.2872732E+04  0.7818608E-02  0.8281037E-01
         -2   -1    0    0    0  501 -0.00000000000E+00  0.00000000000E+00  0.99816366163E+03  0.99816366163E+03  0.00000000000E+00 0.  1.
          2   -1    0    0  501    0  0.00000000000E+00 -0.00000000000E+00 -0.20669425850E+04  0.20669425850E+04  0.00000000000E+00 0. -1.
         23    2    1    2    0    0  0.81214705202E+03  0.20195968579E+03  0.70860167309E+03  0.11005573586E+04  0.93485933108E+02 0.  0.
         13    1    3    3    0    0  0.64916263451E+03  0.12347783830E+03  0.56986975474E+03  0.87258835654E+03  0.00000000000E+00 0. -1.
        -13    1    3    3    0    0  0.16298441751E+03  0.78481847485E+02  0.13873191835E+03  0.22796900207E+03  0.00000000000E+00 0.  1.
         22    1    1    2    0    0 -0.81214705202E+03 -0.20195968579E+03 -0.17773805964E+04  0.19645488880E+04  0.00000000000E+00 0. -1.
<mgrwt>
<rscale>  0 0.28727318E+04</rscale>
<asrwt>0</asrwt>
<pdfrwt beam="1">  1        2 0.31799117E+00 0.28727318E+04</pdfrwt>
<pdfrwt beam="2">  1       -2 0.15356364E+00 0.28727318E+04</pdfrwt>
<totfact> 0.14927304E+00</totfact>
</mgrwt>
</event>
<event>
 6    1  0.1773638E-005  0.1758584E+04  0.7818608E-02  0.8728640E-01
          2   -1    0    0  501    0  0.00000000000E+00  0.00000000000E+00  0.74375820309E+03  0.74375820309E+03  0.00000000000E+00 0.  1.
         -2   -1    0    0    0  501 -0.00000000000E+00 -0.00000000000E+00 -0.10395233512E+04  0.10395233512E+04  0.00000000000E+00 0. -1.
         23    2    1    2    0    0 -0.56434943730E+03  0.65990211697E+03 -0.26564462632E+02  0.87419954454E+03  0.97765441920E+02 0.  0.
         11    1    3    3    0    0 -0.43039447561E+03  0.49118141696E+03  0.21696056437E+02  0.65342888509E+03  0.00000000000E+00 0. -1.
        -11    1    3    3    0    0 -0.13395496169E+03  0.16872070001E+03 -0.48260519069E+02  0.22077065944E+03  0.00000000000E+00 0.  1.
         22    1    1    2    0    0  0.56434943730E+03 -0.65990211697E+03 -0.26920068545E+03  0.90908200973E+03  0.00000000000E+00 0. -1.
<mgrwt>
<rscale>  0 0.17585835E+04</rscale>
<asrwt>0</asrwt>
<pdfrwt beam="1">  1        2 0.11442434E+00 0.17585835E+04</pdfrwt>
<pdfrwt beam="2">  1       -2 0.15992667E+00 0.17585835E+04</pdfrwt>
<totfact> 0.90507728E+00</totfact>
</mgrwt>
</event>
<event>
 6    1  0.1773638E-005  0.2303335E+04  0.7818608E-02  0.8476607E-01
          2   -1    0    0  501    0  0.00000000000E+00  0.00000000000E+00  0.19111915523E+04  0.19111915523E+04  0.00000000000E+00 0. -1.
         -2   -1    0    0    0  501 -0.00000000000E+00 -0.00000000000E+00 -0.69398471785E+03  0.69398471785E+03  0.00000000000E+00 0.  1.
         23    2    1    2    0    0 -0.10743012056E+04  0.14903454328E+01  0.10733593297E+04  0.15212863283E+04  0.89925194852E+02 0.  0.
         13    1    3    3    0    0 -0.41548867932E+03 -0.37741019487E+02  0.38597160086E+03  0.56835666958E+03  0.00000000000E+00 0. -1.
        -13    1    3    3    0    0 -0.65881252625E+03  0.39231364920E+02  0.68738772881E+03  0.95292965871E+03  0.00000000000E+00 0.  1.
         22    1    1    2    0    0  0.10743012056E+04 -0.14903454328E+01  0.14384750477E+03  0.10838899418E+04  0.00000000000E+00 0.  1.
<mgrwt>
<rscale>  0 0.23033347E+04</rscale>
<asrwt>0</asrwt>
<pdfrwt beam="1">  1        2 0.29402947E+00 0.23033347E+04</pdfrwt>
<pdfrwt beam="2">  1       -2 0.10676688E+00 0.23033347E+04</pdfrwt>
<totfact> 0.47909168E+00</totfact>
</mgrwt>
</event>
<event>
 6    1  0.1773638E-005  0.1257420E+04  0.7818608E-02  0.9064030E-01
          2   -1    0    0  501    0  0.00000000000E+00  0.00000000000E+00  0.17128292529E+04  0.17128292529E+04  0.00000000000E+00 0. -1.
         -2   -1    0    0    0  501 -0.00000000000E+00 -0.00000000000E+00 -0.23077393581E+03  0.23077393581E+03  0.00000000000E+00 0.  1.
         23    2    1    2    0    0  0.22748430911E+03  0.37063968667E+03  0.50141524939E+02  0.44710728280E+03  0.90927782246E+02 0.  0.
         11    1    3    3    0    0  0.15752264269E+03  0.25035636437E+03  0.76409268098E+02  0.30549970277E+03  0.00000000000E+00 0.  1.
        -11    1    3    3    0    0  0.69961666421E+02  0.12028332229E+03 -0.26267743160E+02  0.14160758003E+03  0.00000000000E+00 0. -1.
         22    1    1    2    0    0 -0.22748430911E+03 -0.37063968667E+03  0.14319137921E+04  0.14964959059E+04  0.00000000000E+00 0. -1.
<mgrwt>
<rscale>  0 0.12574201E+04</rscale>
<asrwt>0</asrwt>
<pdfrwt beam="1">  1        2 0.26351219E+00 0.12574201E+04</pdfrwt>
<pdfrwt beam="2">  1       -2 0.35503683E-01 0.12574201E+04</pdfrwt>
<totfact> 0.70674391E+01</totfact>
</mgrwt>
</event>
<event>
 6    1  0.1773638E-005  0.4263219E+04  0.7818608E-02  0.7953454E-01
          2   -1    0    0  501    0  0.00000000000E+00  0.00000000000E+00  0.27790906258E+04  0.27790906258E+04  0.00000000000E+00 0. -1.
         -2   -1    0    0    0  501 -0.00000000000E+00 -0.00000000000E+00 -0.16349805294E+04  0.16349805294E+04  0.00000000000E+00 0.  1.
         23    2    1    2    0    0  0.12065131365E+04 -0.17444676711E+04  0.36348072047E+03  0.21539331888E+04  0.92024689454E+02 0.  0.
         13    1    3    3    0    0  0.71178110742E+03 -0.11013745488E+04  0.24244159830E+03  0.13335802077E+04  0.00000000000E+00 0.  1.
        -13    1    3    3    0    0  0.49473202913E+03 -0.64309312230E+03  0.12103912217E+03  0.82035298116E+03  0.00000000000E+00 0. -1.
         22    1    1    2    0    0 -0.12065131365E+04  0.17444676711E+04  0.78062937592E+03  0.22601379663E+04  0.00000000000E+00 0.  1.
<mgrwt>
<rscale>  0 0.42632190E+04</rscale>
<asrwt>0</asrwt>
<pdfrwt beam="1">  1        2 0.42755240E+00 0.42632190E+04</pdfrwt>
<pdfrwt beam="2">  1       -2 0.25153547E+00 0.42632190E+04</pdfrwt>
<totfact> 0.11558846E-01</totfact>
</mgrwt>
</event>
<event>
 6    1  0.1773638E-005  0.1812689E+04  0.7818608E-02  0.8699581E-01
         -2   -1    0    0    0  501 -0.00000000000E+00  0.00000000000E+00  0.28717005050E+03  0.28717005050E+03  0.00000000000E+00 0.  1.
          2   -1    0    0  501    0  0.00000000000E+00 -0.00000000000E+00 -0.28605363902E+04  0.28605363902E+04  0.00000000000E+00 0. -1.
         23    2    1    2    0    0  0.21912769801E+03  0.34120408636E+03 -0.26930125372E+04  0.27249152521E+04  0.91702938752E+02 0.  0.
         11    1    3    3    0    0  0.44738151714E+02  0.23065196785E+02 -0.24024320951E+03  0.24545937594E+03  0.00000000000E+00 0.  1.
        -11    1    3    3    0    0  0.17438954629E+03  0.31813888957E+03 -0.24527693277E+04  0.24794558762E+04  0.00000000000E+00 0. -1.
         22    1    1    2    0    0 -0.21912769801E+03 -0.34120408636E+03  0.11964619751E+03  0.42279118860E+03  0.00000000000E+00 0.  1.
<mgrwt>
<rscale>  0 0.18126890E+04</rscale>
<asrwt>0</asrwt>
<pdfrwt beam="1">  1        2 0.44008254E+00 0.18126890E+04</pdfrwt>
<pdfrwt beam="2">  1       -2 0.44180006E-01 0.18126890E+04</pdfrwt>
<totfact> 0.97619158E+00</totfact>
</mgrwt>
</event>
<event>
 6    1  0.1773638E-005  0.5771471E+04  0.7818608E-02  0.7719401E-01
         -2   -1    0    0    0  501 -0.00000000000E+00  0.00000000000E+00  0.27807671385E+04  0.27807671385E+04  0.00000000000E+00 0.  1.
          2   -1    0    0  501    0  0.00000000000E+00 -0.00000000000E+00 -0.29946660096E+04  0.29946660096E+04  0.00000000000E+00 0. -1.
         23    2    1    2    0    0 -0.27746565409E+03  0.85241917768E+03 -0.28510919464E+04  0.29900439544E+04  0.89620970805E+02 0.  0.
         13    1    3    3    0    0 -0.18413224070E+03  0.44208961435E+03 -0.15941942468E+04  0.16645729800E+04  0.00000000000E+00 0.  1.
        -13    1    3    3    0    0 -0.93333413382E+02  0.41032956333E+03 -0.12568976997E+04  0.13254709744E+04  0.00000000000E+00 0. -1.
         22    1    1    2    0    0  0.27746565409E+03 -0.85241917768E+03  0.26371930753E+04  0.27853891937E+04  0.00000000000E+00 0.  1.
<mgrwt>
<rscale>  0 0.57714708E+04</rscale>
<asrwt>0</asrwt>
<pdfrwt beam="1">  1        2 0.46071785E+00 0.57714708E+04</pdfrwt>
<pdfrwt beam="2">  1       -2 0.42781033E+00 0.57714708E+04</pdfrwt>
<totfact> 0.58646695E-03</totfact>
</mgrwt>
</event>
<event>
 6    1  0.1773638E-005  0.6830069E+03  0.7818608E-02  0.9746742E-01
          1   -1    0    0  501    0  0.00000000000E+00  0.00000000000E+00  0.14402845393E+03  0.14402845393E+03  0.00000000000E+00 0. -1.
         -1   -1    0    0    0  501 -0.00000000000E+00 -0.00000000000E+00 -0.80973309402E+03  0.80973309402E+03  0.00000000000E+00 0.  1.
         23    2    1    2    0    0 -0.22932457438E+03 -0.24464220215E+03 -0.34982714617E+03  0.49309012638E+03  0.91210049053E+02 0.  0.
         11    1    3    3    0    0 -0.50677156113E+02 -0.51574388705E+02 -0.28230694317E+02  0.77621284605E+02  0.00000000000E+00 0. -1.
        -11    1    3    3    0    0 -0.17864741827E+03 -0.19306781344E+03 -0.32159645185E+03  0.41546884177E+03  0.00000000000E+00 0.  1.
         22    1    1    2    0    0  0.22932457438E+03  0.24464220215E+03 -0.31587749392E+03  0.46067142157E+03  0.00000000000E+00 0.  1.
<mgrwt>
<rscale>  0 0.68300690E+03</rscale>
<asrwt>0</asrwt>
<pdfrwt beam="1">  1        1 0.22158224E-01 0.68300690E+03</pdfrwt>
<pdfrwt beam="2">  1       -1 0.12457432E+00 0.68300690E+03</pdfrwt>
<totfact> 0.13156459E+02</totfact>
</mgrwt>
</event>
<event>
 6    1  0.1773638E-005  0.8731167E+03  0.7818608E-02  0.9459825E-01
         -1   -1    0    0    0  501 -0.00000000000E+00  0.00000000000E+00  0.33777472345E+03  0.33777472345E+03  0.00000000000E+00 0.  1.
          1   -1    0    0  501    0  0.00000000000E+00 -0.00000000000E+00 -0.56423169840E+03  0.56423169840E+03  0.00000000000E+00 0. -1.
         23    2    1    2    0    0 -0.41185801778E+02 -0.41443567558E+03 -0.23244948934E+03  0.48548618262E+03  0.90613845323E+02 0.  0.
         11    1    3    3    0    0 -0.81345513840E+00 -0.18660819466E+03 -0.57033026429E+02  0.19513084361E+03  0.00000000000E+00 0.  1.
        -11    1    3    3    0    0 -0.40372346639E+02 -0.22782748092E+03 -0.17541646291E+03  0.29035533901E+03  0.00000000000E+00 0. -1.
         22    1    1    2    0    0  0.41185801778E+02  0.41443567558E+03  0.59925143880E+01  0.41652023923E+03  0.00000000000E+00 0.  1.
<mgrwt>
<rscale>  0 0.87311673E+03</rscale>
<asrwt>0</asrwt>
<pdfrwt beam="1">  1        1 0.86804875E-01 0.87311673E+03</pdfrwt>
<pdfrwt beam="2">  1       -1 0.51965343E-01 0.87311673E+03</pdfrwt>
<totfact> 0.14071260E+02</totfact>
</mgrwt>
</event>
<event>
 6    1  0.1773638E-005  0.2875428E+04  0.7818608E-02  0.8280226E-01
          2   -1    0    0  501    0  0.00000000000E+00  0.00000000000E+00  0.26283553581E+04  0.26283553581E+04  0.00000000000E+00 0. -1.
         -2   -1    0    0    0  501 -0.00000000000E+00 -0.00000000000E+00 -0.78643170377E+03  0.78643170377E+03  0.00000000000E+00 0.  1.
         23    2    1    2    0    0 -0.29143215472E+03 -0.76387241354E+03  0.23242524798E+04  0.24655374314E+04  0.91057515211E+02 0.  0.
         13    1    3    3    0    0 -0.13521935029E+03 -0.45935574078E+03  0.14291312905E+04  0.15072187017E+04  0.00000000000E+00 0.  1.
        -13    1    3    3    0    0 -0.15621280443E+03 -0.30451667277E+03  0.89512118930E+03  0.95831872975E+03  0.00000000000E+00 0. -1.
         22    1    1    2    0    0  0.29143215472E+03  0.76387241354E+03 -0.48232882547E+03  0.94924963042E+03  0.00000000000E+00 0.  1.
<mgrwt>
<rscale>  0 0.28754283E+04</rscale>
<asrwt>0</asrwt>
<pdfrwt beam="1">  1        2 0.40436236E+00 0.28754283E+04</pdfrwt>
<pdfrwt beam="2">  1       -2 0.12098949E+00 0.28754283E+04</pdfrwt>
<totfact> 0.13171547E+00</totfact>
</mgrwt>
</event>
<event>
 6    1  0.1773638E-005  0.1685450E+04  0.7818608E-02  0.8769707E-01
          2   -1    0    0  501    0  0.00000000000E+00  0.00000000000E+00  0.16026020654E+04  0.16026020654E+04  0.00000000000E+00 0.  1.
         -2   -1    0    0    0  501 -0.00000000000E+00 -0.00000000000E+00 -0.44314497175E+03  0.44314497175E+03  0.00000000000E+00 0. -1.
         23    2    1    2    0    0  0.73127620302E+03 -0.32714705385E+03  0.88988297872E+03  0.12004895122E+04  0.86563694506E+02 0.  0.
         11    1    3    3    0    0  0.51544569312E+03 -0.21446238478E+03  0.56275746488E+03  0.79270066312E+03  0.00000000000E+00 0.  1.
        -11    1    3    3    0    0  0.21583050990E+03 -0.11268466908E+03  0.32712551384E+03  0.40778884911E+03  0.00000000000E+00 0. -1.
         22    1    1    2    0    0 -0.73127620302E+03  0.32714705385E+03  0.26957411489E+03  0.84525752488E+03  0.00000000000E+00 0. -1.
<mgrwt>
<rscale>  0 0.16854496E+04</rscale>
<asrwt>0</asrwt>
<pdfrwt beam="1">  1        2 0.24655416E+00 0.16854496E+04</pdfrwt>
<pdfrwt beam="2">  1       -2 0.68176150E-01 0.16854496E+04</pdfrwt>
<totfact> 0.20846580E+01</totfact>
</mgrwt>
</event>
<event>
 6    1  0.1773638E-005  0.2847060E+04  0.7818608E-02  0.8288805E-01
         -1   -1    0    0    0  501 -0.00000000000E+00  0.00000000000E+00  0.83761320576E+03  0.83761320576E+03  0.00000000000E+00 0.  1.
          1   -1    0    0  501    0  0.00000000000E+00 -0.00000000000E+00 -0.24193006699E+04  0.24193006699E+04  0.00000000000E+00 0. -1.
         23    2    1    2    0    0 -0.17563424279E+03  0.77290824251E+03  0.55924328283E+03  0.97397300873E+03  0.87383257941E+02 0.  0.
         13    1    3    3    0    0 -0.93625544416E+02  0.53241065834E+03  0.41737279619E+03  0.68295453925E+03  0.00000000000E+00 0. -1.
        -13    1    3    3    0    0 -0.82008698378E+02  0.24049758417E+03  0.14187048664E+03  0.29101846949E+03  0.00000000000E+00 0.  1.
         22    1    1    2    0    0  0.17563424279E+03 -0.77290824251E+03 -0.21409307470E+04  0.22829408670E+04  0.00000000000E+00 0. -1.
<mgrwt>
<rscale>  0 0.28470604E+04</rscale>
<asrwt>0</asrwt>
<pdfrwt beam="1">  1        1 0.37220010E+00 0.28470604E+04</pdfrwt>
<pdfrwt beam="2">  1       -1 0.12886357E+00 0.28470604E+04</pdfrwt>
<totfact> 0.68858346E-01</totfact>
</mgrwt>
</event>
<event>
 6    1  0.1773638E-005  0.3597637E+04  0.7818608E-02  0.8091033E-01
         -2   -1    0    0    0  501 -0.00000000000E+00  0.00000000000E+00  0.29801140699E+04  0.29801140699E+04  0.00000000000E+00 0.  1.
          2   -1    0    0  501    0  0.00000000000E+00 -0.00000000000E+00 -0.10857798961E+04  0.10857798961E+04  0.00000000000E+00 0. -1.
         23    2    1    2    0    0 -0.63398378288E+03  0.83016690161E+03 -0.70563627965E+03  0.12639377066E+04  0.92214128143E+02 0.  0.
         13    1    3    3    0    0 -0.45355035328E+03  0.56666926552E+03 -0.44193698795E+03  0.84978249027E+03  0.00000000000E+00 0. -1.
        -13    1    3    3    0    0 -0.18043342959E+03  0.26349763609E+03 -0.26369929170E+03  0.41415521629E+03  0.00000000000E+00 0.  1.
         22    1    1    2    0    0  0.63398378288E+03 -0.83016690161E+03  0.25999704534E+04  0.28019562594E+04  0.00000000000E+00 0.  1.
<mgrwt>
<rscale>  0 0.35976370E+04</rscale>
<asrwt>0</asrwt>
<pdfrwt beam="1">  1        2 0.16704306E+00 0.35976370E+04</pdfrwt>
<pdfrwt beam="2">  1       -2 0.45847909E+00 0.35976370E+04</pdfrwt>
<totfact> 0.55249568E-02</totfact>
</mgrwt>
</event>
<event>
 6    1  0.1773638E-005  0.2494652E+04  0.7818608E-02  0.8404893E-01
          2   -1    0    0  501    0  0.00000000000E+00  0.00000000000E+00  0.19309511957E+04  0.19309511957E+04  0.00000000000E+00 0. -1.
         -2   -1    0    0    0  501 -0.00000000000E+00 -0.00000000000E+00 -0.80572827070E+03  0.80572827070E+03  0.00000000000E+00 0.  1.
         23    2    1    2    0    0  0.67874350943E+03  0.14750285436E+03 -0.57076282514E+03  0.90397176784E+03  0.94577538910E+02 0.  0.
         11    1    3    3    0    0  0.36131161973E+03  0.85315875928E+02 -0.36489317651E+03  0.52054962828E+03  0.00000000000E+00 0.  1.
        -11    1    3    3    0    0  0.31743188969E+03  0.62186978436E+02 -0.20586964863E+03  0.38342213956E+03  0.00000000000E+00 0. -1.
         22    1    1    2    0    0 -0.67874350943E+03 -0.14750285436E+03  0.16959857501E+04  0.18327076985E+04  0.00000000000E+00 0. -1.
<mgrwt>
<rscale>  0 0.24946519E+04</rscale>
<asrwt>0</asrwt>
<pdfrwt beam="1">  1        2 0.29706941E+00 0.24946519E+04</pdfrwt>
<pdfrwt beam="2">  1       -2 0.12395820E+00 0.24946519E+04</pdfrwt>
<totfact> 0.31890275E+00</totfact>
</mgrwt>
</event>
<event>
 6    1  0.1773638E-005  0.3458085E+04  0.7818608E-02  0.8123796E-01
          2   -1    0    0  501    0  0.00000000000E+00  0.00000000000E+00  0.11548690698E+04  0.11548690698E+04  0.00000000000E+00 0. -1.
         -2   -1    0    0    0  501 -0.00000000000E+00 -0.00000000000E+00 -0.25886816602E+04  0.25886816602E+04  0.00000000000E+00 0.  1.
         23    2    1    2    0    0 -0.14045807930E+04 -0.96174057231E+03 -0.39675438784E+03  0.17502414594E+04  0.90216348603E+02 0.  0.
         11    1    3    3    0    0 -0.51288689606E+03 -0.30023981683E+03 -0.12909443973E+03  0.60816304568E+03  0.00000000000E+00 0. -1.
        -11    1    3    3    0    0 -0.89169389694E+03 -0.66150075548E+03 -0.26765994812E+03  0.11420784138E+04  0.00000000000E+00 0.  1.
         22    1    1    2    0    0  0.14045807930E+04  0.96174057231E+03 -0.10370582026E+04  0.19933092705E+04  0.00000000000E+00 0.  1.
<mgrwt>
<rscale>  0 0.34580852E+04</rscale>
<asrwt>0</asrwt>
<pdfrwt beam="1">  1        2 0.17767216E+00 0.34580852E+04</pdfrwt>
<pdfrwt beam="2">  1       -2 0.39825872E+00 0.34580852E+04</pdfrwt>
<totfact> 0.12657571E-01</totfact>
</mgrwt>
</event>
<event>
 6    1  0.1773638E-005  0.4302193E+04  0.7818608E-02  0.7946213E-01
         -3   -1    0    0    0  501 -0.00000000000E+00  0.00000000000E+00  0.29162668444E+04  0.29162668444E+04  0.00000000000E+00 0.  1.
          3   -1    0    0  501    0  0.00000000000E+00 -0.00000000000E+00 -0.15866918135E+04  0.15866918135E+04  0.00000000000E+00 0. -1.
         23    2    1    2    0    0 -0.19988829690E+04  0.34884294391E+02 -0.16330287076E+03  0.20078766017E+04  0.90280575216E+02 0.  0.
         11    1    3    3    0    0 -0.13906530555E+04  0.20254119893E+02 -0.72051061440E+02  0.13926656116E+04  0.00000000000E+00 0.  1.
        -11    1    3    3    0    0 -0.60822991347E+03  0.14630174498E+02 -0.91251809320E+02  0.61521099010E+03  0.00000000000E+00 0. -1.
         22    1    1    2    0    0  0.19988829690E+04 -0.34884294391E+02  0.14928779017E+04  0.24950820561E+04  0.00000000000E+00 0.  1.
<mgrwt>
<rscale>  0 0.43021933E+04</rscale>
<asrwt>0</asrwt>
<pdfrwt beam="1">  1        3 0.24410643E+00 0.43021933E+04</pdfrwt>
<pdfrwt beam="2">  1       -3 0.44865644E+00 0.43021933E+04</pdfrwt>
<totfact> 0.90533598E-04</totfact>
</mgrwt>
</event>
<event>
 6    1  0.1773638E-005  0.9397226E+03  0.7818608E-02  0.9377245E-01
         -2   -1    0    0    0  501 -0.00000000000E+00  0.00000000000E+00  0.23898871125E+03  0.23898871125E+03  0.00000000000E+00 0.  1.
          2   -1    0    0  501    0  0.00000000000E+00 -0.00000000000E+00 -0.92376602943E+03  0.92376602943E+03  0.00000000000E+00 0. -1.
         23    2    1    2    0    0 -0.17162413293E+03 -0.27493689131E+03  0.67605358481E+02  0.34353265275E+03  0.91646395468E+02 0.  0.
         11    1    3    3    0    0 -0.10461501111E+03 -0.94994695044E+02  0.53153526479E+02  0.15097546163E+03  0.00000000000E+00 0. -1.
        -11    1    3    3    0    0 -0.67009121813E+02 -0.17994219627E+03  0.14451832002E+02  0.19255719112E+03  0.00000000000E+00 0.  1.
         22    1    1    2    0    0  0.17162413293E+03  0.27493689131E+03 -0.75238267667E+03  0.81922208793E+03  0.00000000000E+00 0. -1.
<mgrwt>
<rscale>  0 0.93972262E+03</rscale>
<asrwt>0</asrwt>
<pdfrwt beam="1">  1        2 0.14211785E+00 0.93972262E+03</pdfrwt>
<pdfrwt beam="2">  1       -2 0.36767493E-01 0.93972262E+03</pdfrwt>
<totfact> 0.19695040E+02</totfact>
</mgrwt>
</event>
<event>
 6    1  0.1773638E-005  0.3020401E+04  0.7818608E-02  0.8237929E-01
         -2   -1    0    0    0  501 -0.00000000000E+00  0.00000000000E+00  0.25889990876E+04  0.25889990876E+04  0.00000000000E+00 0.  1.
          2   -1    0    0  501    0  0.00000000000E+00 -0.00000000000E+00 -0.88092166361E+03  0.88092166361E+03  0.00000000000E+00 0. -1.
         23    2    1    2    0    0 -0.60718715338E+03 -0.12625903131E+04  0.14983027710E+04  0.20532994387E+04  0.91196785367E+02 0.  0.
         11    1    3    3    0    0 -0.54378807323E+03 -0.11399527647E+04  0.13087140810E+04  0.18187716515E+04  0.00000000000E+00 0. -1.
        -11    1    3    3    0    0 -0.63399080157E+02 -0.12263754836E+03  0.18958868997E+03  0.23452778726E+03  0.00000000000E+00 0.  1.
         22    1    1    2    0    0  0.60718715338E+03  0.12625903131E+04  0.20977465296E+03  0.14166213125E+04  0.00000000000E+00 0. -1.
<mgrwt>
<rscale>  0 0.30204009E+04</rscale>
<asrwt>0</asrwt>
<pdfrwt beam="1">  1        2 0.13552641E+00 0.30204009E+04</pdfrwt>
<pdfrwt beam="2">  1       -2 0.39830755E+00 0.30204009E+04</pdfrwt>
<totfact> 0.19644743E-01</totfact>
</mgrwt>
</event>
<event>
 6    1  0.1773638E-005  0.3570605E+04  0.7818608E-02  0.8097258E-01
         -2   -1    0    0    0  501 -0.00000000000E+00  0.00000000000E+00  0.11735714086E+04  0.11735714086E+04  0.00000000000E+00 0.  1.
          2   -1    0    0  501    0  0.00000000000E+00 -0.00000000000E+00 -0.27159024487E+04  0.27159024487E+04  0.00000000000E+00 0. -1.
         23    2    1    2    0    0 -0.86269553448E+03  0.15103602765E+04 -0.33870304321E+03  0.17742546949E+04  0.88477233631E+02 0.  0.
         13    1    3    3    0    0 -0.77101449208E+03  0.13833724512E+04 -0.32748388899E+03  0.16172286119E+04  0.00000000000E+00 0.  1.
        -13    1    3    3    0    0 -0.91681042400E+02  0.12698782536E+03 -0.11219154219E+02  0.15702608301E+03  0.00000000000E+00 0. -1.
         22    1    1    2    0    0  0.86269553448E+03 -0.15103602765E+04 -0.12036279969E+04  0.21152191624E+04  0.00000000000E+00 0. -1.
<mgrwt>
<rscale>  0 0.35706052E+04</rscale>
<asrwt>0</asrwt>
<pdfrwt beam="1">  1        2 0.41783114E+00 0.35706052E+04</pdfrwt>
<pdfrwt beam="2">  1       -2 0.18054945E+00 0.35706052E+04</pdfrwt>
<totfact> 0.38142568E-01</totfact>
</mgrwt>
</event>
<event>
 6    1  0.1773638E-005  0.1264349E+04  0.7818608E-02  0.9058325E-01
         -2   -1    0    0    0  501 -0.00000000000E+00  0.00000000000E+00  0.80813112482E+03  0.80813112482E+03  0.00000000000E+00 0. -1.
          2   -1    0    0  501    0  0.00000000000E+00 -0.00000000000E+00 -0.49452914936E+03  0.49452914936E+03  0.00000000000E+00 0.  1.
         23    2    1    2    0    0 -0.10162846970E+03 -0.40794270522E+03 -0.32424199106E+03  0.53872930725E+03  0.91382717876E+02 0.  0.
         11    1    3    3    0    0 -0.74342993467E+02 -0.14558889846E+03 -0.15540558579E+03  0.22555244208E+03  0.00000000000E+00 0. -1.
        -11    1    3    3    0    0 -0.27285476235E+02 -0.26235380676E+03 -0.16883640528E+03  0.31317686518E+03  0.00000000000E+00 0.  1.
         22    1    1    2    0    0  0.10162846970E+03  0.40794270522E+03  0.63784396653E+03  0.76393096693E+03  0.00000000000E+00 0.  1.
<mgrwt>
<rscale>  0 0.12643487E+04</rscale>
<asrwt>0</asrwt>
<pdfrwt beam="1">  1        2 0.76081407E-01 0.12643487E+04</pdfrwt>
<pdfrwt beam="2">  1       -2 0.12432787E+00 0.12643487E+04</pdfrwt>
<totfact> 0.29773480E+01</totfact>
</mgrwt>
</event>
<event>
 6    1  0.1773638E-005  0.3382665E+04  0.7818608E-02  0.8142174E-01
          2   -1    0    0  501    0  0.00000000000E+00  0.00000000000E+00  0.16795425660E+04  0.16795425660E+04  0.00000000000E+00 0. -1.
         -2   -1    0    0    0  501 -0.00000000000E+00 -0.00000000000E+00 -0.17032056805E+04  0.17032056805E+04  0.00000000000E+00 0.  1.
         23    2    1    2    0    0  0.11972539532E+04  0.11506191179E+04  0.30320771070E+03  0.16903576535E+04  0.89625319681E+02 0.  0.
         13    1    3    3    0    0  0.33015702646E+03  0.26632814270E+03  0.63936163210E+02  0.42897805851E+03  0.00000000000E+00 0. -1.
        -13    1    3    3    0    0  0.86709692678E+03  0.88429097519E+03  0.23927154749E+03  0.12613795950E+04  0.00000000000E+00 0.  1.
         22    1    1    2    0    0 -0.11972539532E+04 -0.11506191179E+04 -0.32687082518E+03  0.16923905930E+04  0.00000000000E+00 0.  1.
<mgrwt>
<rscale>  0 0.33826655E+04</rscale>
<asrwt>0</asrwt>
<pdfrwt beam="1">  1        2 0.25839116E+00 0.33826655E+04</pdfrwt>
<pdfrwt beam="2">  1       -2 0.26203164E+00 0.33826655E+04</pdfrwt>
<totfact> 0.45285212E-01</totfact>
</mgrwt>
</event>
<event>
 6    1  0.1773638E-005  0.5188605E+03  0.7818608E-02  0.1008970E+00
          2   -1    0    0  501    0  0.00000000000E+00  0.00000000000E+00  0.48478392449E+03  0.48478392449E+03  0.00000000000E+00 0. -1.
         -2   -1    0    0    0  501 -0.00000000000E+00 -0.00000000000E+00 -0.13883309461E+03  0.13883309461E+03  0.00000000000E+00 0.  1.
         23    2    1    2    0    0 -0.12443970854E+02  0.24659163581E+03  0.11484212885E+03  0.28542547729E+03  0.85537718396E+02 0.  0.
         13    1    3    3    0    0  0.25263734479E+02  0.33800695340E+02  0.35560033765E+01  0.42348417270E+02  0.00000000000E+00 0. -1.
        -13    1    3    3    0    0 -0.37707705333E+02  0.21279094047E+03  0.11128612547E+03  0.24307706002E+03  0.00000000000E+00 0.  1.
         22    1    1    2    0    0  0.12443970854E+02 -0.24659163581E+03  0.23110870103E+03  0.33819154181E+03  0.00000000000E+00 0. -1.
<mgrwt>
<rscale>  0 0.51886049E+03</rscale>
<asrwt>0</asrwt>
<pdfrwt beam="1">  1        2 0.74582142E-01 0.51886049E+03</pdfrwt>
<pdfrwt beam="2">  1       -2 0.21358938E-01 0.51886049E+03</pdfrwt>
<totfact> 0.12140575E+03</totfact>
</mgrwt>
</event>
<event>
 6    1  0.1773638E-005  0.1328776E+04  0.7818608E-02  0.9007052E-01
         -2   -1    0    0    0  501 -0.00000000000E+00  0.00000000000E+00  0.91643554204E+03  0.91643554204E+03  0.00000000000E+00 0.  1.
          2   -1    0    0  501    0  0.00000000000E+00 -0.00000000000E+00 -0.48166122747E+03  0.48166122747E+03  0.00000000000E+00 0. -1.
         23    2    1    2    0    0  0.21369116423E+03 -0.20273345315E+03 -0.40457016334E+03  0.50856660178E+03  0.90543937826E+02 0.  0.
         13    1    3    3    0    0  0.97541810328E+02 -0.13877234163E+03 -0.17679211333E+03  0.24500534463E+03  0.00000000000E+00 0.  1.
        -13    1    3    3    0    0  0.11614935390E+03 -0.63961111528E+02 -0.22777805001E+03  0.26356125714E+03  0.00000000000E+00 0. -1.
         22    1    1    2    0    0 -0.21369116423E+03  0.20273345315E+03  0.83934447791E+03  0.88953016773E+03  0.00000000000E+00 0.  1.
<mgrwt>
<rscale>  0 0.13287761E+04</rscale>
<asrwt>0</asrwt>
<pdfrwt beam="1">  1        2 0.74101727E-01 0.13287761E+04</pdfrwt>
<pdfrwt beam="2">  1       -2 0.14099008E+00 0.13287761E+04</pdfrwt>
<totfact> 0.22166846E+01</totfact>
</mgrwt>
</event>
<event>
 6    1  0.1773638E-005  0.2367555E+04  0.7818608E-02  0.8451751E-01
          2   -1    0    0  501    0  0.00000000000E+00  0.00000000000E+00  0.19096606635E+04  0.19096606635E+04  0.00000000000E+00 0. -1.
         -2   -1    0    0    0  501 -0.00000000000E+00 -0.00000000000E+00 -0.73381037719E+03  0.73381037719E+03  0.00000000000E+00 0.  1.
         23    2    1    2    0    0 -0.45433957568E+03 -0.62041170371E+03  0.15910467604E+04  0.17695584339E+04  0.92585770158E+02 0.  0.
         11    1    3    3    0    0 -0.25768979269E+03 -0.36267215375E+03  0.10220796813E+04  0.11147116198E+04  0.00000000000E+00 0.  1.
        -11    1    3    3    0    0 -0.19664978299E+03 -0.25773954997E+03  0.56896707910E+03  0.65484681405E+03  0.00000000000E+00 0. -1.
         22    1    1    2    0    0  0.45433957568E+03  0.62041170371E+03 -0.41519647416E+03  0.87391260678E+03  0.00000000000E+00 0.  1.
<mgrwt>
<rscale>  0 0.23675547E+04</rscale>
<asrwt>0</asrwt>
<pdfrwt beam="1">  1        2 0.29379395E+00 0.23675547E+04</pdfrwt>
<pdfrwt beam="2">  1       -2 0.11289391E+00 0.23675547E+04</pdfrwt>
<totfact> 0.41714018E+00</totfact>
</mgrwt>
</event>
<event>
 6    1  0.1773638E-005  0.3452260E+04  0.7818608E-02  0.8125198E-01
          2   -1    0    0  501    0  0.00000000000E+00  0.00000000000E+00  0.21303067455E+04  0.21303067455E+04  0.00000000000E+00 0. -1.
         -2   -1    0    0    0  501 -0.00000000000E+00 -0.00000000000E+00 -0.13986364905E+04  0.13986364905E+04  0.00000000000E+00 0.  1.
         23    2    1    2    0    0 -0.17019702668E+04  0.24565423809E+03  0.22835158382E+03  0.17371903293E+04  0.92935464256E+02 0.  0.
         11    1    3    3    0    0 -0.59932739737E+03  0.41772822471E+02  0.80828629656E+02  0.60619432965E+03  0.00000000000E+00 0. -1.
        -11    1    3    3    0    0 -0.11026428695E+04  0.20388141562E+03  0.14752295416E+03  0.11309959997E+04  0.00000000000E+00 0.  1.
         22    1    1    2    0    0  0.17019702668E+04 -0.24565423809E+03  0.50331867116E+03  0.17917529067E+04  0.00000000000E+00 0. -1.
<mgrwt>
<rscale>  0 0.34522600E+04</rscale>
<asrwt>0</asrwt>
<pdfrwt beam="1">  1        2 0.32773950E+00 0.34522600E+04</pdfrwt>
<pdfrwt beam="2">  1       -2 0.21517485E+00 0.34522600E+04</pdfrwt>
<totfact> 0.49449568E-01</totfact>
</mgrwt>
</event>
<event>
 6    1  0.1773638E-005  0.1505151E+04  0.7818608E-02  0.8881035E-01
         -2   -1    0    0    0  501 -0.00000000000E+00  0.00000000000E+00  0.19122464716E+03  0.19122464716E+03  0.00000000000E+00 0. -1.
          2   -1    0    0  501    0  0.00000000000E+00 -0.00000000000E+00 -0.29618053282E+04  0.29618053282E+04  0.00000000000E+00 0.  1.
         23    2    1    2    0    0 -0.52344829201E+03  0.36094694332E+03 -0.55779784105E+03  0.85070751591E+03  0.91016678970E+02 0.  0.
         13    1    3    3    0    0 -0.18530627278E+03  0.78488707534E+02 -0.19022772805E+03  0.27692143373E+03  0.00000000000E+00 0. -1.
        -13    1    3    3    0    0 -0.33814201923E+03  0.28245823579E+03 -0.36757011300E+03  0.57378608218E+03  0.00000000000E+00 0.  1.
         22    1    1    2    0    0  0.52344829201E+03 -0.36094694332E+03 -0.22127828400E+04  0.23023224594E+04  0.00000000000E+00 0.  1.
<mgrwt>
<rscale>  0 0.15051514E+04</rscale>
<asrwt>0</asrwt>
<pdfrwt beam="1">  1        2 0.45566232E+00 0.15051514E+04</pdfrwt>
<pdfrwt beam="2">  1       -2 0.29419179E-01 0.15051514E+04</pdfrwt>
<totfact> 0.19025223E+01</totfact>
</mgrwt>
</event>
<event>
 6    1  0.1773638E-005  0.1390619E+04  0.7818608E-02  0.8960637E-01
         -2   -1    0    0    0  501 -0.00000000000E+00  0.00000000000E+00  0.51627220920E+03  0.51627220920E+03  0.00000000000E+00 0.  1.
          2   -1    0    0  501    0  0.00000000000E+00 -0.00000000000E+00 -0.93643501739E+03  0.93643501739E+03  0.00000000000E+00 0. -1.
         23    2    1    2    0    0 -0.28725218765E+02 -0.13225184664E+03 -0.92025402788E+03  0.93462719691E+03  0.91350053248E+02 0.  0.
         11    1    3    3    0    0 -0.17211921953E+02 -0.14503845733E+03 -0.81891091386E+03  0.83183381105E+03  0.00000000000E+00 0. -1.
        -11    1    3    3    0    0 -0.11513296811E+02  0.12786610691E+02 -0.10134311402E+03  0.10279338586E+03  0.00000000000E+00 0.  1.
         22    1    1    2    0    0  0.28725218765E+02  0.13225184664E+03  0.50009121969E+03  0.51808002967E+03  0.00000000000E+00 0.  1.
<mgrwt>
<rscale>  0 0.13906191E+04</rscale>
<asrwt>0</asrwt>
<pdfrwt beam="1">  1        2 0.14406692E+00 0.13906191E+04</pdfrwt>
<pdfrwt beam="2">  1       -2 0.79426495E-01 0.13906191E+04</pdfrwt>
<totfact> 0.37935906E+01</totfact>
</mgrwt>
</event>
<event>
 6    1  0.1773638E-005  0.5155516E+04  0.7818608E-02  0.7804955E-01
          2   -1    0    0  501    0  0.00000000000E+00  0.00000000000E+00  0.32703051252E+04  0.32703051252E+04  0.00000000000E+00 0. -1.
         -2   -1    0    0    0  501 -0.00000000000E+00 -0.00000000000E+00 -0.20318707359E+04  0.20318707359E+04  0.00000000000E+00 0.  1.
         23    2    1    2    0    0  0.57272662784E+03 -0.23950204088E+04 -0.16151033583E+03  0.24695121355E+04  0.90917820091E+02 0.  0.
         13    1    3    3    0    0  0.33419301775E+03 -0.14749181876E+04 -0.58632091776E+02  0.15134418904E+04  0.00000000000E+00 0.  1.
        -13    1    3    3    0    0  0.23853361009E+03 -0.92010222118E+03 -0.10287824406E+03  0.95607024515E+03  0.00000000000E+00 0. -1.
         22    1    1    2    0    0 -0.57272662784E+03  0.23950204088E+04  0.13999447251E+04  0.28326637256E+04  0.00000000000E+00 0. -1.
<mgrwt>
<rscale>  0 0.51555164E+04</rscale>
<asrwt>0</asrwt>
<pdfrwt beam="1">  1        2 0.50312386E+00 0.51555164E+04</pdfrwt>
<pdfrwt beam="2">  1       -2 0.31259550E+00 0.51555164E+04</pdfrwt>
<totfact> 0.22271249E-02</totfact>
</mgrwt>
</event>
<event>
 6    1  0.1773638E-005  0.4130398E+04  0.7818608E-02  0.7978746E-01
          1   -1    0    0  501    0  0.00000000000E+00  0.00000000000E+00  0.19887041330E+04  0.19887041330E+04  0.00000000000E+00 0. -1.
         -1   -1    0    0    0  501 -0.00000000000E+00 -0.00000000000E+00 -0.21446362950E+04  0.21446362950E+04  0.00000000000E+00 0.  1.
         23    2    1    2    0    0  0.10047465801E+04  0.87998676771E+03  0.14968844307E+04  0.20083239362E+04  0.93859640262E+02 0.  0.
         11    1    3    3    0    0  0.71750884891E+03  0.57128758083E+03  0.10362646214E+04  0.13838471063E+04  0.00000000000E+00 0.  1.
        -11    1    3    3    0    0  0.28723773123E+03  0.30869918688E+03  0.46061980934E+03  0.62447682982E+03  0.00000000000E+00 0. -1.
         22    1    1    2    0    0 -0.10047465801E+04 -0.87998676771E+03 -0.16528165927E+04  0.21250164919E+04  0.00000000000E+00 0.  1.
<mgrwt>
<rscale>  0 0.41303981E+04</rscale>
<asrwt>0</asrwt>
<pdfrwt beam="1">  1        1 0.30595448E+00 0.41303981E+04</pdfrwt>
<pdfrwt beam="2">  1       -1 0.32994404E+00 0.41303981E+04</pdfrwt>
<totfact> 0.49478196E-02</totfact>
</mgrwt>
</event>
<event>
 6    1  0.1773638E-005  0.3882912E+04  0.7818608E-02  0.8028593E-01
          2   -1    0    0  501    0  0.00000000000E+00  0.00000000000E+00  0.20535669171E+04  0.20535669171E+04  0.00000000000E+00 0. -1.
         -2   -1    0    0    0  501 -0.00000000000E+00 -0.00000000000E+00 -0.18354652061E+04  0.18354652061E+04  0.00000000000E+00 0.  1.
         23    2    1    2    0    0 -0.18016134837E+04 -0.71463804172E+03  0.16606465458E+02  0.19404123529E+04  0.91682327971E+02 0.  0.
         13    1    3    3    0    0 -0.84467994544E+03 -0.29009249439E+03 -0.10831618617E+02  0.89317142223E+03  0.00000000000E+00 0. -1.
        -13    1    3    3    0    0 -0.95693353825E+03 -0.42454554733E+03  0.27438084075E+02  0.10472409307E+04  0.00000000000E+00 0.  1.
         22    1    1    2    0    0  0.18016134837E+04  0.71463804172E+03  0.20149524554E+03  0.19486197703E+04  0.00000000000E+00 0. -1.
<mgrwt>
<rscale>  0 0.38829116E+04</rscale>
<asrwt>0</asrwt>
<pdfrwt beam="1">  1        2 0.31593337E+00 0.38829116E+04</pdfrwt>
<pdfrwt beam="2">  1       -2 0.28237926E+00 0.38829116E+04</pdfrwt>
<totfact> 0.20232750E-01</totfact>
</mgrwt>
</event>
<event>
 6    1  0.1773638E-005  0.1619714E+04  0.7818608E-02  0.8808528E-01
         -1   -1    0    0    0  501 -0.00000000000E+00  0.00000000000E+00  0.12769490222E+04  0.12769490222E+04  0.00000000000E+00 0.  1.
          1   -1    0    0  501    0  0.00000000000E+00 -0.00000000000E+00 -0.51362123109E+03  0.51362123109E+03  0.00000000000E+00 0. -1.
         23    2    1    2    0    0  0.66943215487E+03 -0.32628829691E+03  0.38215554979E+02  0.75115156112E+03  0.90359152634E+02 0.  0.
         13    1    3    3    0    0  0.57152482100E+03 -0.24970204277E+03  0.10422679123E+02  0.62377909826E+03  0.00000000000E+00 0. -1.
        -13    1    3    3    0    0  0.97907333863E+02 -0.76586254136E+02  0.27792875856E+02  0.12737246286E+03  0.00000000000E+00 0.  1.
         22    1    1    2    0    0 -0.66943215487E+03  0.32628829691E+03  0.72511223615E+03  0.10394186922E+04  0.00000000000E+00 0.  1.
<mgrwt>
<rscale>  0 0.16197137E+04</rscale>
<asrwt>0</asrwt>
<pdfrwt beam="1">  1        1 0.79018652E-01 0.16197137E+04</pdfrwt>
<pdfrwt beam="2">  1       -1 0.19645369E+00 0.16197137E+04</pdfrwt>
<totfact> 0.65135264E+00</totfact>
</mgrwt>
</event>
<event>
 6    1  0.1773638E-005  0.1668698E+04  0.7818608E-02  0.8779421E-01
          2   -1    0    0  501    0  0.00000000000E+00  0.00000000000E+00  0.19535586586E+04  0.19535586586E+04  0.00000000000E+00 0.  1.
         -2   -1    0    0    0  501 -0.00000000000E+00 -0.00000000000E+00 -0.35634381250E+03  0.35634381250E+03  0.00000000000E+00 0. -1.
         23    2    1    2    0    0  0.12442331574E+03 -0.78915542916E+03  0.11218268318E+04  0.13802567230E+04  0.91464353355E+02 0.  0.
         11    1    3    3    0    0  0.93488348255E+02 -0.41109597909E+03  0.65177408512E+03  0.77624057696E+03  0.00000000000E+00 0. -1.
        -11    1    3    3    0    0  0.30934967481E+02 -0.37805945007E+03  0.47005274664E+03  0.60401614600E+03  0.00000000000E+00 0.  1.
         22    1    1    2    0    0 -0.12442331574E+03  0.78915542916E+03  0.47538801436E+03  0.92964574816E+03  0.00000000000E+00 0. -1.
<mgrwt>
<rscale>  0 0.16686983E+04</rscale>
<asrwt>0</asrwt>
<pdfrwt beam="1">  1        2 0.30054748E+00 0.16686983E+04</pdfrwt>
<pdfrwt beam="2">  1       -2 0.54822126E-01 0.16686983E+04</pdfrwt>
<totfact> 0.21171544E+01</totfact>
</mgrwt>
</event>
<event>
 6    1  0.1773638E-005  0.9842589E+03  0.7818608E-02  0.9325980E-01
          2   -1    0    0  501    0  0.00000000000E+00  0.00000000000E+00  0.30776347413E+03  0.30776347413E+03  0.00000000000E+00 0. -1.
         -2   -1    0    0    0  501 -0.00000000000E+00 -0.00000000000E+00 -0.78694009027E+03  0.78694009027E+03  0.00000000000E+00 0.  1.
         23    2    1    2    0    0  0.31747073775E+03 -0.34342602638E+03 -0.39602486046E+03  0.61968428122E+03  0.91890224524E+02 0.  0.
         11    1    3    3    0    0  0.64979622494E+02 -0.43669133995E+02 -0.10760239575E+03  0.13306998225E+03  0.00000000000E+00 0. -1.
        -11    1    3    3    0    0  0.25249111526E+03 -0.29975689238E+03 -0.28842246471E+03  0.48661429897E+03  0.00000000000E+00 0.  1.
         22    1    1    2    0    0 -0.31747073775E+03  0.34342602638E+03 -0.83151755684E+02  0.47501928318E+03  0.00000000000E+00 0. -1.
<mgrwt>
<rscale>  0 0.98425894E+03</rscale>
<asrwt>0</asrwt>
<pdfrwt beam="1">  1        2 0.47348228E-01 0.98425894E+03</pdfrwt>
<pdfrwt beam="2">  1       -2 0.12106770E+00 0.98425894E+03</pdfrwt>
<totfact> 0.55354111E+01</totfact>
</mgrwt>
</event>
<event>
 6    1  0.1773638E-005  0.3061714E+04  0.7818608E-02  0.8226324E-01
          1   -1    0    0  501    0  0.00000000000E+00  0.00000000000E+00  0.15174465592E+04  0.15174465592E+04  0.00000000000E+00 0. -1.
         -1   -1    0    0    0  501 -0.00000000000E+00 -0.00000000000E+00 -0.15443862267E+04  0.15443862267E+04  0.00000000000E+00 0.  1.
         23    2    1    2    0    0 -0.22779981457E+03  0.52664245053E+03 -0.14312166709E+04  0.15448492896E+04  0.94515302399E+02 0.  0.
         13    1    3    3    0    0 -0.18651748012E+03  0.48609459211E+03 -0.13297127890E+04  0.14280100924E+04  0.00000000000E+00 0.  1.
        -13    1    3    3    0    0 -0.41282334448E+02  0.40547858418E+02 -0.10150388190E+03  0.11683919719E+03  0.00000000000E+00 0. -1.
         22    1    1    2    0    0  0.22779981457E+03 -0.52664245053E+03  0.14042770033E+04  0.15169834963E+04  0.00000000000E+00 0. -1.
<mgrwt>
<rscale>  0 0.30617143E+04</rscale>
<asrwt>0</asrwt>
<pdfrwt beam="1">  1        1 0.23345332E+00 0.30617143E+04</pdfrwt>
<pdfrwt beam="2">  1       -1 0.23759788E+00 0.30617143E+04</pdfrwt>
<totfact> 0.45286112E-01</totfact>
</mgrwt>
</event>
<event>
 6    1  0.1773638E-005  0.1399820E+04  0.7818608E-02  0.8953949E-01
          1   -1    0    0  501    0  0.00000000000E+00  0.00000000000E+00  0.97698888986E+03  0.97698888986E+03  0.00000000000E+00 0. -1.
         -1   -1    0    0    0  501 -0.00000000000E+00 -0.00000000000E+00 -0.50141199034E+03  0.50141199034E+03  0.00000000000E+00 0.  1.
         23    2    1    2    0    0 -0.62740727853E+03 -0.27369992932E+03  0.10045680022E+03  0.69784554369E+03  0.91352557018E+02 0.  0.
         13    1    3    3    0    0 -0.70987776729E+02 -0.59151396039E+02 -0.36598520212E+01  0.92474572803E+02  0.00000000000E+00 0.  1.
        -13    1    3    3    0    0 -0.55641950180E+03 -0.21454853328E+03  0.10411665224E+03  0.60537097088E+03  0.00000000000E+00 0. -1.
         22    1    1    2    0    0  0.62740727853E+03  0.27369992932E+03  0.37512009930E+03  0.78055533651E+03  0.00000000000E+00 0. -1.
<mgrwt>
<rscale>  0 0.13998199E+04</rscale>
<asrwt>0</asrwt>
<pdfrwt beam="1">  1        1 0.15030598E+00 0.13998199E+04</pdfrwt>
<pdfrwt beam="2">  1       -1 0.77140307E-01 0.13998199E+04</pdfrwt>
<totfact> 0.25927324E+01</totfact>
</mgrwt>
</event>
<event>
 6    1  0.1773638E-005  0.1679978E+04  0.7818608E-02  0.8772867E-01
         -1   -1    0    0    0  501 -0.00000000000E+00  0.00000000000E+00  0.10541463091E+04  0.10541463091E+04  0.00000000000E+00 0.  1.
          1   -1    0    0  501    0  0.00000000000E+00 -0.00000000000E+00 -0.66933927112E+03  0.66933927112E+03  0.00000000000E+00 0. -1.
         23    2    1    2    0    0 -0.55613088605E+03  0.56732165296E+03  0.46500513007E+03  0.92500755651E+03  0.90960366525E+02 0.  0.
         13    1    3    3    0    0 -0.16295482243E+03  0.12342404932E+03  0.14996395249E+03  0.25352900652E+03  0.00000000000E+00 0. -1.
        -13    1    3    3    0    0 -0.39317606363E+03  0.44389760364E+03  0.31504117758E+03  0.67147854999E+03  0.00000000000E+00 0.  1.
         22    1    1    2    0    0  0.55613088605E+03 -0.56732165296E+03 -0.80198092103E+02  0.79847802369E+03  0.00000000000E+00 0. -1.
<mgrwt>
<rscale>  0 0.16799780E+04</rscale>
<asrwt>0</asrwt>
<pdfrwt beam="1">  1        1 0.10297527E+00 0.16799780E+04</pdfrwt>
<pdfrwt beam="2">  1       -1 0.16217636E+00 0.16799780E+04</pdfrwt>
<totfact> 0.78189217E+00</totfact>
</mgrwt>
</event>
<event>
 6    1  0.1773638E-005  0.1811775E+04  0.7818608E-02  0.8700063E-01
          2   -1    0    0  501    0  0.00000000000E+00  0.00000000000E+00  0.80443281350E+03  0.80443281350E+03  0.00000000000E+00 0. -1.
         -2   -1    0    0    0  501 -0.00000000000E+00 -0.00000000000E+00 -0.10201374460E+04  0.10201374460E+04  0.00000000000E+00 0.  1.
         23    2    1    2    0    0 -0.58057910192E+03  0.12675953701E+03 -0.79362814701E+03  0.99563379491E+03  0.91109516624E+02 0.  0.
         13    1    3    3    0    0 -0.52130911036E+03  0.13927544424E+03 -0.73003738030E+03  0.90780802737E+03  0.00000000000E+00 0.  1.
        -13    1    3    3    0    0 -0.59269991555E+02 -0.12515907229E+02 -0.63590766712E+02  0.87825767539E+02  0.00000000000E+00 0. -1.
         22    1    1    2    0    0  0.58057910192E+03 -0.12675953701E+03  0.57792351447E+03  0.82893646463E+03  0.00000000000E+00 0. -1.
<mgrwt>
<rscale>  0 0.18117749E+04</rscale>
<asrwt>0</asrwt>
<pdfrwt beam="1">  1        2 0.12375889E+00 0.18117749E+04</pdfrwt>
<pdfrwt beam="2">  1       -2 0.15694422E+00 0.18117749E+04</pdfrwt>
<totfact> 0.85567626E+00</totfact>
</mgrwt>
</event>
<event>
 6    1  0.1773638E-005  0.2157038E+04  0.7818608E-02  0.8536526E-01
          2   -1    0    0  501    0  0.00000000000E+00  0.00000000000E+00  0.16222962672E+04  0.16222962672E+04  0.00000000000E+00 0. -1.
         -2   -1    0    0    0  501 -0.00000000000E+00 -0.00000000000E+00 -0.71701018535E+03  0.71701018535E+03  0.00000000000E+00 0.  1.
         23    2    1    2    0    0  0.68848315939E+03  0.41803467246E+03  0.12281588978E+04  0.14715455964E+04  0.91159836901E+02 0.  0.
         13    1    3    3    0    0  0.48234975098E+02  0.15215922182E+02  0.11576432636E+03  0.12633097945E+03  0.00000000000E+00 0.  1.
        -13    1    3    3    0    0  0.64024818430E+03  0.40281875028E+03  0.11123945715E+04  0.13452146170E+04  0.00000000000E+00 0. -1.
         22    1    1    2    0    0 -0.68848315939E+03 -0.41803467246E+03 -0.32287281599E+03  0.86776085614E+03  0.00000000000E+00 0.  1.
<mgrwt>
<rscale>  0 0.21570377E+04</rscale>
<asrwt>0</asrwt>
<pdfrwt beam="1">  1        2 0.24958404E+00 0.21570377E+04</pdfrwt>
<pdfrwt beam="2">  1       -2 0.11030926E+00 0.21570377E+04</pdfrwt>
<totfact> 0.64869135E+00</totfact>
</mgrwt>
</event>
<event>
 6    1  0.1773638E-005  0.1008999E+04  0.7818608E-02  0.9298729E-01
          2   -1    0    0  501    0  0.00000000000E+00  0.00000000000E+00  0.25093614520E+04  0.25093614520E+04  0.00000000000E+00 0. -1.
         -2   -1    0    0    0  501 -0.00000000000E+00 -0.00000000000E+00 -0.10142810540E+03  0.10142810540E+03  0.00000000000E+00 0.  1.
         23    2    1    2    0    0 -0.19292184352E+03 -0.29302064112E+03  0.29018841007E+03  0.46418210608E+03  0.90420022330E+02 0.  0.
         11    1    3    3    0    0 -0.12863806186E+03 -0.12735270576E+03  0.11388718472E+03  0.21386152872E+03  0.00000000000E+00 0.  1.
        -11    1    3    3    0    0 -0.64283781662E+02 -0.16566793535E+03  0.17630122535E+03  0.25032057736E+03  0.00000000000E+00 0. -1.
         22    1    1    2    0    0  0.19292184352E+03  0.29302064112E+03  0.21177449366E+04  0.21466074513E+04  0.00000000000E+00 0. -1.
<mgrwt>
<rscale>  0 0.10089991E+04</rscale>
<asrwt>0</asrwt>
<pdfrwt beam="1">  1        2 0.38605556E+00 0.10089991E+04</pdfrwt>
<pdfrwt beam="2">  1       -2 0.15604326E-01 0.10089991E+04</pdfrwt>
<totfact> 0.11403033E+02</totfact>
</mgrwt>
</event>
<event>
 6    1  0.1773638E-005  0.4317243E+04  0.7818608E-02  0.7943437E-01
          2   -1    0    0  501    0  0.00000000000E+00  0.00000000000E+00  0.26578162341E+04  0.26578162341E+04  0.00000000000E+00 0.  1.
         -2   -1    0    0    0  501 -0.00000000000E+00 -0.00000000000E+00 -0.17531864365E+04  0.17531864365E+04  0.00000000000E+00 0. -1.
         23    2    1    2    0    0  0.82157216074E+03 -0.19806265206E+04  0.69777782507E+03  0.22567858831E+04  0.91249106010E+02 0.  0.
         11    1    3    3    0    0  0.67482187707E+03 -0.16003124797E+04  0.52865587631E+03  0.18154508073E+04  0.00000000000E+00 0.  1.
        -11    1    3    3    0    0  0.14675028367E+03 -0.38031404096E+03  0.16912194875E+03  0.44133507572E+03  0.00000000000E+00 0. -1.
         22    1    1    2    0    0 -0.82157216074E+03  0.19806265206E+04  0.20685197256E+03  0.21542167876E+04  0.00000000000E+00 0.  1.
<mgrwt>
<rscale>  0 0.43172433E+04</rscale>
<asrwt>0</asrwt>
<pdfrwt beam="1">  1        2 0.40889481E+00 0.43172433E+04</pdfrwt>
<pdfrwt beam="2">  1       -2 0.26972099E+00 0.43172433E+04</pdfrwt>
<totfact> 0.10525354E-01</totfact>
</mgrwt>
</event>
<event>
 6    1  0.1773638E-005  0.5117841E+04  0.7818608E-02  0.7810582E-01
         -1   -1    0    0    0  501 -0.00000000000E+00  0.00000000000E+00  0.22668293268E+04  0.22668293268E+04  0.00000000000E+00 0.  1.
          1   -1    0    0  501    0  0.00000000000E+00 -0.00000000000E+00 -0.28886494643E+04  0.28886494643E+04  0.00000000000E+00 0. -1.
         23    2    1    2    0    0 -0.13895805442E+04 -0.20209340706E+04  0.42209977930E+03  0.24899812016E+04  0.82033861648E+02 0.  0.
         13    1    3    3    0    0 -0.37212980729E+03 -0.53119954478E+03  0.75466996704E+02  0.65295391678E+03  0.00000000000E+00 0. -1.
        -13    1    3    3    0    0 -0.10174507369E+04 -0.14897345258E+04  0.34663278259E+03  0.18370272849E+04  0.00000000000E+00 0.  1.
         22    1    1    2    0    0  0.13895805442E+04  0.20209340706E+04 -0.10439199168E+04  0.26654975894E+04  0.00000000000E+00 0.  1.
<mgrwt>
<rscale>  0 0.51178415E+04</rscale>
<asrwt>0</asrwt>
<pdfrwt beam="1">  1        1 0.44440761E+00 0.51178415E+04</pdfrwt>
<pdfrwt beam="2">  1       -1 0.34874297E+00 0.51178415E+04</pdfrwt>
<totfact> 0.81565917E-03</totfact>
</mgrwt>
</event>
<event>
 6    1  0.1773638E-005  0.5282517E+04  0.7818608E-02  0.7786345E-01
         -2   -1    0    0    0  501 -0.00000000000E+00  0.00000000000E+00  0.30406735250E+04  0.30406735250E+04  0.00000000000E+00 0. -1.
          2   -1    0    0  501    0  0.00000000000E+00 -0.00000000000E+00 -0.22943093260E+04  0.22943093260E+04  0.00000000000E+00 0.  1.
         23    2    1    2    0    0  0.63132536007E+03 -0.12875247179E+04 -0.18658965098E+04  0.23550168075E+04  0.90789694445E+02 0.  0.
         11    1    3    3    0    0  0.27407592547E+03 -0.46398725502E+03 -0.67780611903E+03  0.86592316099E+03  0.00000000000E+00 0. -1.
        -11    1    3    3    0    0  0.35724943459E+03 -0.82353746289E+03 -0.11880903908E+04  0.14890936465E+04  0.00000000000E+00 0.  1.
         22    1    1    2    0    0 -0.63132536007E+03  0.12875247179E+04  0.26122607088E+04  0.29799660435E+04  0.00000000000E+00 0. -1.
<mgrwt>
<rscale>  0 0.52825167E+04</rscale>
<asrwt>0</asrwt>
<pdfrwt beam="1">  1        2 0.35297066E+00 0.52825167E+04</pdfrwt>
<pdfrwt beam="2">  1       -2 0.46779593E+00 0.52825167E+04</pdfrwt>
<totfact> 0.86613583E-03</totfact>
</mgrwt>
</event>
<event>
 6    1  0.1773638E-005  0.2979006E+04  0.7818608E-02  0.8249751E-01
          1   -1    0    0  501    0  0.00000000000E+00  0.00000000000E+00  0.38057358067E+04  0.38057358067E+04  0.00000000000E+00 0. -1.
         -1   -1    0    0    0  501 -0.00000000000E+00 -0.00000000000E+00 -0.58296737844E+03  0.58296737844E+03  0.00000000000E+00 0.  1.
         23    2    1    2    0    0  0.73289894811E+02 -0.86695684565E+02  0.37988099183E+04  0.38015819467E+04  0.90448611986E+02 0.  0.
         13    1    3    3    0    0 -0.15139227228E+02 -0.37692569095E+02  0.15001963326E+04  0.15007461352E+04  0.00000000000E+00 0.  1.
        -13    1    3    3    0    0  0.88429122040E+02 -0.49003115470E+02  0.22986135857E+04  0.23008358114E+04  0.00000000000E+00 0. -1.
         22    1    1    2    0    0 -0.73289894811E+02  0.86695684565E+02 -0.57604149004E+03  0.58712123846E+03  0.00000000000E+00 0.  1.
<mgrwt>
<rscale>  0 0.29790064E+04</rscale>
<asrwt>0</asrwt>
<pdfrwt beam="1">  1        1 0.58549780E+00 0.29790064E+04</pdfrwt>
<pdfrwt beam="2">  1       -1 0.89687291E-01 0.29790064E+04</pdfrwt>
<totfact> 0.14617895E-01</totfact>
</mgrwt>
</event>
<event>
 6    1  0.1773638E-005  0.2306501E+04  0.7818608E-02  0.8475362E-01
          1   -1    0    0  501    0  0.00000000000E+00  0.00000000000E+00  0.13673138234E+04  0.13673138234E+04  0.00000000000E+00 0. -1.
         -1   -1    0    0    0  501 -0.00000000000E+00 -0.00000000000E+00 -0.97270055920E+03  0.97270055920E+03  0.00000000000E+00 0.  1.
         23    2    1    2    0    0  0.24842447304E+03  0.11242996479E+04  0.17988522557E+03  0.11687447520E+04  0.88550459924E+02 0.  0.
         11    1    3    3    0    0  0.55498365929E+02  0.44453368363E+03  0.58673394007E+02  0.45181061483E+03  0.00000000000E+00 0. -1.
        -11    1    3    3    0    0  0.19292610711E+03  0.67976596423E+03  0.12121183156E+03  0.71693413717E+03  0.00000000000E+00 0.  1.
         22    1    1    2    0    0 -0.24842447304E+03 -0.11242996479E+04  0.21472803861E+03  0.11712696306E+04  0.00000000000E+00 0.  1.
<mgrwt>
<rscale>  0 0.23065012E+04</rscale>
<asrwt>0</asrwt>
<pdfrwt beam="1">  1        1 0.21035597E+00 0.23065012E+04</pdfrwt>
<pdfrwt beam="2">  1       -1 0.14964624E+00 0.23065012E+04</pdfrwt>
<totfact> 0.25700080E+00</totfact>
</mgrwt>
</event>
<event>
 6    1  0.1773638E-005  0.1228507E+04  0.7818608E-02  0.9088264E-01
         -2   -1    0    0    0  501 -0.00000000000E+00  0.00000000000E+00  0.91792497652E+03  0.91792497652E+03  0.00000000000E+00 0.  1.
          2   -1    0    0  501    0  0.00000000000E+00 -0.00000000000E+00 -0.41104352867E+03  0.41104352867E+03  0.00000000000E+00 0. -1.
         23    2    1    2    0    0  0.13382468701E+03 -0.18882109710E+03 -0.35723699132E+03  0.43439423188E+03  0.86704251138E+02 0.  0.
         13    1    3    3    0    0  0.96349793881E+02 -0.91612074454E+02 -0.25934142547E+03  0.29143443504E+03  0.00000000000E+00 0.  1.
        -13    1    3    3    0    0  0.37474893127E+02 -0.97209022650E+02 -0.97895565850E+02  0.14295979684E+03  0.00000000000E+00 0. -1.
         22    1    1    2    0    0 -0.13382468701E+03  0.18882109710E+03  0.86411843916E+03  0.89457427331E+03  0.00000000000E+00 0.  1.
<mgrwt>
<rscale>  0 0.12285066E+04</rscale>
<asrwt>0</asrwt>
<pdfrwt beam="1">  1        2 0.63237466E-01 0.12285066E+04</pdfrwt>
<pdfrwt beam="2">  1       -2 0.14121923E+00 0.12285066E+04</pdfrwt>
<totfact> 0.26642588E+01</totfact>
</mgrwt>
</event>
<event>
 6    1  0.1773638E-005  0.2894219E+04  0.7818608E-02  0.8274599E-01
          2   -1    0    0  501    0  0.00000000000E+00  0.00000000000E+00  0.32441301806E+04  0.32441301806E+04  0.00000000000E+00 0.  1.
         -2   -1    0    0    0  501 -0.00000000000E+00 -0.00000000000E+00 -0.64551245417E+03  0.64551245417E+03  0.00000000000E+00 0. -1.
         23    2    1    2    0    0  0.10431398083E+04  0.98851724669E+03  0.10899447766E+04  0.18060397273E+04  0.92156789036E+02 0.  0.
         11    1    3    3    0    0  0.10706280322E+03  0.12101695310E+03  0.91870299181E+02  0.18587011230E+03  0.00000000000E+00 0. -1.
        -11    1    3    3    0    0  0.93607700507E+03  0.86750029359E+03  0.99807447745E+03  0.16201696150E+04  0.00000000000E+00 0.  1.
         22    1    1    2    0    0 -0.10431398083E+04 -0.98851724669E+03  0.15086729498E+04  0.20836029075E+04  0.00000000000E+00 0. -1.
<mgrwt>
<rscale>  0 0.28942194E+04</rscale>
<asrwt>0</asrwt>
<pdfrwt beam="1">  1        2 0.49909694E+00 0.28942194E+04</pdfrwt>
<pdfrwt beam="2">  1       -2 0.99309610E-01 0.28942194E+04</pdfrwt>
<totfact> 0.87906122E-01</totfact>
</mgrwt>
</event>
<event>
 6    1  0.1773638E-005  0.1443616E+04  0.7818608E-02  0.8922838E-01
          2   -1    0    0  501    0  0.00000000000E+00  0.00000000000E+00  0.17313606327E+04  0.17313606327E+04  0.00000000000E+00 0. -1.
         -2   -1    0    0    0  501 -0.00000000000E+00 -0.00000000000E+00 -0.30092333999E+03  0.30092333999E+03  0.00000000000E+00 0.  1.
         23    2    1    2    0    0  0.57842541451E+03  0.14299896559E+03  0.12843949859E+04  0.14188077957E+04  0.91216320213E+02 0.  0.
         13    1    3    3    0    0  0.14658033689E+03  0.29169127363E+02  0.23717771757E+03  0.28033890716E+03  0.00000000000E+00 0. -1.
        -13    1    3    3    0    0  0.43184507762E+03  0.11382983822E+03  0.10472172683E+04  0.11384688885E+04  0.00000000000E+00 0.  1.
         22    1    1    2    0    0 -0.57842541451E+03 -0.14299896559E+03  0.14604230677E+03  0.61347617694E+03  0.00000000000E+00 0.  1.
<mgrwt>
<rscale>  0 0.14436160E+04</rscale>
<asrwt>0</asrwt>
<pdfrwt beam="1">  1        2 0.26636317E+00 0.14436160E+04</pdfrwt>
<pdfrwt beam="2">  1       -2 0.46295899E-01 0.14436160E+04</pdfrwt>
<totfact> 0.40429666E+01</totfact>
</mgrwt>
</event>
<event>
 6    1  0.1773638E-005  0.1483703E+04  0.7818608E-02  0.8895363E-01
          1   -1    0    0  501    0  0.00000000000E+00  0.00000000000E+00  0.13127336998E+04  0.13127336998E+04  0.00000000000E+00 0. -1.
         -1   -1    0    0    0  501 -0.00000000000E+00 -0.00000000000E+00 -0.41923493987E+03  0.41923493987E+03  0.00000000000E+00 0.  1.
         23    2    1    2    0    0 -0.30999789361E+03  0.18311285816E+03 -0.30484231344E+03  0.48070913780E+03  0.92322403744E+02 0.  0.
         11    1    3    3    0    0 -0.11221333360E+03  0.39030200403E+02 -0.54746634786E+02  0.13081430656E+03  0.00000000000E+00 0. -1.
        -11    1    3    3    0    0 -0.19778456002E+03  0.14408265776E+03 -0.25009567865E+03  0.34989483124E+03  0.00000000000E+00 0.  1.
         22    1    1    2    0    0  0.30999789361E+03 -0.18311285816E+03  0.11983410734E+04  0.12512595019E+04  0.00000000000E+00 0. -1.
<mgrwt>
<rscale>  0 0.14837033E+04</rscale>
<asrwt>0</asrwt>
<pdfrwt beam="1">  1        1 0.20195903E+00 0.14837033E+04</pdfrwt>
<pdfrwt beam="2">  1       -1 0.64497684E-01 0.14837033E+04</pdfrwt>
<totfact> 0.20913812E+01</totfact>
</mgrwt>
</event>
<event>
 6    1  0.1773638E-005  0.8278801E+03  0.7818608E-02  0.9520516E-01
         -1   -1    0    0    0  501 -0.00000000000E+00  0.00000000000E+00  0.25928057158E+03  0.25928057158E+03  0.00000000000E+00 0.  1.
          1   -1    0    0  501    0  0.00000000000E+00 -0.00000000000E+00 -0.66085303954E+03  0.66085303954E+03  0.00000000000E+00 0. -1.
         23    2    1    2    0    0  0.23060413630E+03 -0.33764728628E+03 -0.21485412723E+03  0.47063645164E+03  0.90290730500E+02 0.  0.
         11    1    3    3    0    0  0.11839429852E+03 -0.18668150126E+03 -0.16556250490E+03  0.27618496675E+03  0.00000000000E+00 0.  1.
        -11    1    3    3    0    0  0.11220983778E+03 -0.15096578503E+03 -0.49291622337E+02  0.19445148489E+03  0.00000000000E+00 0. -1.
         22    1    1    2    0    0 -0.23060413630E+03  0.33764728628E+03 -0.18671834073E+03  0.44949715947E+03  0.00000000000E+00 0.  1.
<mgrwt>
<rscale>  0 0.82788007E+03</rscale>
<asrwt>0</asrwt>
<pdfrwt beam="1">  1        1 0.10166970E+00 0.82788007E+03</pdfrwt>
<pdfrwt beam="2">  1       -1 0.39889319E-01 0.82788007E+03</pdfrwt>
<totfact> 0.18367200E+02</totfact>
</mgrwt>
</event>
<event>
 6    1  0.1773638E-005  0.7868695E+03  0.7818608E-02  0.9579220E-01
          1   -1    0    0  501    0  0.00000000000E+00  0.00000000000E+00  0.78842453224E+03  0.78842453224E+03  0.00000000000E+00 0. -1.
         -1   -1    0    0    0  501 -0.00000000000E+00 -0.00000000000E+00 -0.19632939404E+03  0.19632939404E+03  0.00000000000E+00 0.  1.
         23    2    1    2    0    0  0.28093833313E+02  0.15466490622E+03  0.74351270290E+03  0.76649312910E+03  0.99950392198E+02 0.  0.
         13    1    3    3    0    0  0.64172645326E+00  0.42386920170E+02  0.43462991147E+03  0.43669236627E+03  0.00000000000E+00 0.  1.
        -13    1    3    3    0    0  0.27452106860E+02  0.11227798605E+03  0.30888279143E+03  0.32980076283E+03  0.00000000000E+00 0. -1.
         22    1    1    2    0    0 -0.28093833313E+02 -0.15466490622E+03 -0.15141756470E+03  0.21826079718E+03  0.00000000000E+00 0.  1.
<mgrwt>
<rscale>  0 0.78686952E+03</rscale>
<asrwt>0</asrwt>
<pdfrwt beam="1">  1        1 0.12129608E+00 0.78686952E+03</pdfrwt>
<pdfrwt beam="2">  1       -1 0.30204523E-01 0.78686952E+03</pdfrwt>
<totfact> 0.23048135E+02</totfact>
</mgrwt>
</event>
<event>
 6    1  0.1773638E-005  0.1125861E+04  0.7818608E-02  0.9180347E-01
          1   -1    0    0  501    0  0.00000000000E+00  0.00000000000E+00  0.11336579805E+04  0.11336579805E+04  0.00000000000E+00 0. -1.
         -1   -1    0    0    0  501 -0.00000000000E+00 -0.00000000000E+00 -0.27952921577E+03  0.27952921577E+03  0.00000000000E+00 0.  1.
         23    2    1    2    0    0  0.46320454239E+02  0.43559570942E+03  0.86618064670E+03  0.97496983653E+03  0.91695490000E+02 0.  0.
         13    1    3    3    0    0  0.66635025409E+02  0.28249486221E+03  0.51128074921E+03  0.58792140486E+03  0.00000000000E+00 0. -1.
        -13    1    3    3    0    0 -0.20314571170E+02  0.15310084721E+03  0.35489989749E+03  0.38704843167E+03  0.00000000000E+00 0.  1.
         22    1    1    2    0    0 -0.46320454239E+02 -0.43559570942E+03 -0.12051881935E+02  0.43821735977E+03  0.00000000000E+00 0.  1.
<mgrwt>
<rscale>  0 0.11258606E+04</rscale>
<asrwt>0</asrwt>
<pdfrwt beam="1">  1        1 0.17440892E+00 0.11258606E+04</pdfrwt>
<pdfrwt beam="2">  1       -1 0.43004495E-01 0.11258606E+04</pdfrwt>
<totfact> 0.63382909E+01</totfact>
</mgrwt>
</event>
<event>
 6    1  0.1773638E-005  0.1316478E+04  0.7818608E-02  0.9016599E-01
         -2   -1    0    0    0  501 -0.00000000000E+00  0.00000000000E+00  0.20229106626E+03  0.20229106626E+03  0.00000000000E+00 0.  1.
          2   -1    0    0  501    0  0.00000000000E+00 -0.00000000000E+00 -0.21418573333E+04  0.21418573333E+04  0.00000000000E+00 0. -1.
         23    2    1    2    0    0  0.23886496303E+03 -0.60962745090E+03 -0.10116449055E+04  0.12084811275E+04  0.91099513824E+02 0.  0.
         13    1    3    3    0    0  0.10483185559E+03 -0.35633803715E+03 -0.51291347849E+03  0.63328252075E+03  0.00000000000E+00 0. -1.
        -13    1    3    3    0    0  0.13403310744E+03 -0.25328941376E+03 -0.49873142698E+03  0.57519860680E+03  0.00000000000E+00 0.  1.
         22    1    1    2    0    0 -0.23886496303E+03  0.60962745090E+03 -0.92792136153E+03  0.11356672720E+04  0.00000000000E+00 0.  1.
<mgrwt>
<rscale>  0 0.13164780E+04</rscale>
<asrwt>0</asrwt>
<pdfrwt beam="1">  1        2 0.32951652E+00 0.13164780E+04</pdfrwt>
<pdfrwt beam="2">  1       -2 0.31121702E-01 0.13164780E+04</pdfrwt>
<totfact> 0.52262986E+01</totfact>
</mgrwt>
</event>
<event>
 6    1  0.1773638E-005  0.1706433E+04  0.7818608E-02  0.8757704E-01
         -2   -1    0    0    0  501 -0.00000000000E+00  0.00000000000E+00  0.29747704342E+03  0.29747704342E+03  0.00000000000E+00 0. -1.
          2   -1    0    0  501    0  0.00000000000E+00 -0.00000000000E+00 -0.24471749159E+04  0.24471749159E+04  0.00000000000E+00 0.  1.
         23    2    1    2    0    0 -0.82472282394E+03  0.53606774935E+01 -0.74176090678E+03  0.11129402898E+04  0.90721400911E+02 0.  0.
         13    1    3    3    0    0 -0.74808004718E+03  0.31276874040E+02 -0.67382304509E+03  0.10072931529E+04  0.00000000000E+00 0. -1.
        -13    1    3    3    0    0 -0.76642776762E+02 -0.25916196547E+02 -0.67937861694E+02  0.10564713685E+03  0.00000000000E+00 0.  1.
         22    1    1    2    0    0  0.82472282394E+03 -0.53606774935E+01 -0.14079369657E+04  0.16317116696E+04  0.00000000000E+00 0. -1.
<mgrwt>
<rscale>  0 0.17064330E+04</rscale>
<asrwt>0</asrwt>
<pdfrwt beam="1">  1        2 0.37648843E+00 0.17064330E+04</pdfrwt>
<pdfrwt beam="2">  1       -2 0.45765701E-01 0.17064330E+04</pdfrwt>
<totfact> 0.16103280E+01</totfact>
</mgrwt>
</event>
<event>
 6    1  0.1773638E-005  0.8043601E+03  0.7818608E-02  0.9553727E-01
          2   -1    0    0  501    0  0.00000000000E+00  0.00000000000E+00  0.12025240209E+04  0.12025240209E+04  0.00000000000E+00 0. -1.
         -2   -1    0    0    0  501 -0.00000000000E+00 -0.00000000000E+00 -0.13450774541E+03  0.13450774541E+03  0.00000000000E+00 0.  1.
         23    2    1    2    0    0  0.30727818796E+03 -0.25076672777E+03  0.54894799144E+03  0.68378164571E+03  0.94390704820E+02 0.  0.
         13    1    3    3    0    0  0.87739396669E+02 -0.97922016165E+02  0.11859399480E+03  0.17706343095E+03  0.00000000000E+00 0.  1.
        -13    1    3    3    0    0  0.21953879129E+03 -0.15284471161E+03  0.43035399664E+03  0.50671821476E+03  0.00000000000E+00 0. -1.
         22    1    1    2    0    0 -0.30727818796E+03  0.25076672777E+03  0.51906828401E+03  0.65325012056E+03  0.00000000000E+00 0. -1.
<mgrwt>
<rscale>  0 0.80436011E+03</rscale>
<asrwt>0</asrwt>
<pdfrwt beam="1">  1        2 0.18500369E+00 0.80436011E+03</pdfrwt>
<pdfrwt beam="2">  1       -2 0.20693500E-01 0.80436011E+03</pdfrwt>
<totfact> 0.38155037E+02</totfact>
</mgrwt>
</event>
<event>
 6    1  0.1773638E-005  0.2085153E+04  0.7818608E-02  0.8567812E-01
         -2   -1    0    0    0  501 -0.00000000000E+00  0.00000000000E+00  0.54093528147E+03  0.54093528147E+03  0.00000000000E+00 0. -1.
          2   -1    0    0  501    0  0.00000000000E+00 -0.00000000000E+00 -0.20094192179E+04  0.20094192179E+04  0.00000000000E+00 0.  1.
         23    2    1    2    0    0 -0.39659131483E+03  0.65238968024E+03 -0.16004753138E+04  0.17755521442E+04  0.90372677479E+02 0.  0.
         13    1    3    3    0    0 -0.26453764444E+03  0.41790268392E+03 -0.93578564074E+03  0.10584505581E+04  0.00000000000E+00 0.  1.
        -13    1    3    3    0    0 -0.13205367039E+03  0.23448699632E+03 -0.66468967308E+03  0.71710158611E+03  0.00000000000E+00 0. -1.
         22    1    1    2    0    0  0.39659131483E+03 -0.65238968024E+03  0.13199137737E+03  0.77480235517E+03  0.00000000000E+00 0. -1.
<mgrwt>
<rscale>  0 0.20851530E+04</rscale>
<asrwt>0</asrwt>
<pdfrwt beam="1">  1        2 0.30914142E+00 0.20851530E+04</pdfrwt>
<pdfrwt beam="2">  1       -2 0.83220812E-01 0.20851530E+04</pdfrwt>
<totfact> 0.76995012E+00</totfact>
</mgrwt>
</event>
<event>
 6    1  0.1773638E-005  0.6795548E+04  0.7818608E-02  0.7598896E-01
         -2   -1    0    0    0  501 -0.00000000000E+00  0.00000000000E+00  0.47057051229E+04  0.47057051229E+04  0.00000000000E+00 0. -1.
          2   -1    0    0  501    0  0.00000000000E+00 -0.00000000000E+00 -0.24533769284E+04  0.24533769284E+04  0.00000000000E+00 0.  1.
         23    2    1    2    0    0  0.23537799980E+04 -0.22729158173E+04  0.16444800627E+03  0.32776299684E+04  0.96894125788E+02 0.  0.
         13    1    3    3    0    0  0.15515766943E+04 -0.15542152449E+04  0.13164401836E+03  0.22000694110E+04  0.00000000000E+00 0.  1.
        -13    1    3    3    0    0  0.80220330364E+03 -0.71870057246E+03  0.32803987913E+02  0.10775605574E+04  0.00000000000E+00 0. -1.
         22    1    1    2    0    0 -0.23537799980E+04  0.22729158173E+04  0.20878801882E+04  0.38814520829E+04  0.00000000000E+00 0. -1.
<mgrwt>
<rscale>  0 0.67955481E+04</rscale>
<asrwt>0</asrwt>
<pdfrwt beam="1">  1        2 0.37744261E+00 0.67955481E+04</pdfrwt>
<pdfrwt beam="2">  1       -2 0.72395463E+00 0.67955481E+04</pdfrwt>
<totfact> 0.44307132E-04</totfact>
</mgrwt>
</event>
<event>
 6    1  0.1773638E-005  0.5606560E+04  0.7818608E-02  0.7741194E-01
          1   -1    0    0  501    0  0.00000000000E+00  0.00000000000E+00  0.34304541563E+04  0.34304541563E+04  0.00000000000E+00 0. -1.
         -1   -1    0    0    0  501 -0.00000000000E+00 -0.00000000000E+00 -0.22907690882E+04  0.22907690882E+04  0.00000000000E+00 0.  1.
         23    2    1    2    0    0  0.15190087346E+04 -0.19775615639E+04  0.18753436654E+04  0.31213519309E+04  0.88242498254E+02 0.  0.
         11    1    3    3    0    0  0.78266089019E+03 -0.10039238698E+04  0.10112714143E+04  0.16257586164E+04  0.00000000000E+00 0. -1.
        -11    1    3    3    0    0  0.73634784446E+03 -0.97363769411E+03  0.86407225104E+03  0.14955933145E+04  0.00000000000E+00 0.  1.
         22    1    1    2    0    0 -0.15190087346E+04  0.19775615639E+04 -0.73565859728E+03  0.25998713135E+04  0.00000000000E+00 0.  1.
<mgrwt>
<rscale>  0 0.56065599E+04</rscale>
<asrwt>0</asrwt>
<pdfrwt beam="1">  1        1 0.52776218E+00 0.56065599E+04</pdfrwt>
<pdfrwt beam="2">  1       -1 0.35242601E+00 0.56065599E+04</pdfrwt>
<totfact> 0.29179726E-03</totfact>
</mgrwt>
</event>
<event>
 6    1  0.1773638E-005  0.2429140E+04  0.7818608E-02  0.8428674E-01
          1   -1    0    0  501    0  0.00000000000E+00  0.00000000000E+00  0.28867459133E+04  0.28867459133E+04  0.00000000000E+00 0. -1.
         -1   -1    0    0    0  501 -0.00000000000E+00 -0.00000000000E+00 -0.51101851391E+03  0.51101851391E+03  0.00000000000E+00 0.  1.
         23    2    1    2    0    0  0.39231293767E+03 -0.56921096374E+03  0.25834348265E+04  0.26759244604E+04  0.92334460358E+02 0.  0.
         11    1    3    3    0    0  0.10720775687E+03 -0.96317407436E+02  0.47516188877E+03  0.49653737689E+03  0.00000000000E+00 0.  1.
        -11    1    3    3    0    0  0.28510518080E+03 -0.47289355631E+03  0.21082729378E+04  0.21793870835E+04  0.00000000000E+00 0. -1.
         22    1    1    2    0    0 -0.39231293767E+03  0.56921096374E+03 -0.20770742718E+03  0.72183996676E+03  0.00000000000E+00 0.  1.
<mgrwt>
<rscale>  0 0.24291403E+04</rscale>
<asrwt>0</asrwt>
<pdfrwt beam="1">  1        1 0.44411475E+00 0.24291403E+04</pdfrwt>
<pdfrwt beam="2">  1       -1 0.78618235E-01 0.24291403E+04</pdfrwt>
<totfact> 0.10450472E+00</totfact>
</mgrwt>
</event>
<event>
 6    1  0.1773638E-005  0.2694935E+04  0.7818608E-02  0.8336650E-01
         -2   -1    0    0    0  501 -0.00000000000E+00  0.00000000000E+00  0.11704750382E+04  0.11704750382E+04  0.00000000000E+00 0.  1.
          2   -1    0    0  501    0  0.00000000000E+00 -0.00000000000E+00 -0.15512233516E+04  0.15512233516E+04  0.00000000000E+00 0. -1.
         23    2    1    2    0    0 -0.12145818694E+04 -0.42042278585E+03  0.21290365511E+03  0.13059346043E+04  0.90403473662E+02 0.  0.
         11    1    3    3    0    0 -0.22074974594E+03 -0.11379876219E+03  0.36535981649E+02  0.25102885604E+03  0.00000000000E+00 0.  1.
        -11    1    3    3    0    0 -0.99383212346E+03 -0.30662402366E+03  0.17636767346E+03  0.10549057483E+04  0.00000000000E+00 0. -1.
         22    1    1    2    0    0  0.12145818694E+04  0.42042278585E+03 -0.59365196853E+03  0.14157637854E+04  0.00000000000E+00 0. -1.
<mgrwt>
<rscale>  0 0.26949347E+04</rscale>
<asrwt>0</asrwt>
<pdfrwt beam="1">  1        2 0.23864975E+00 0.26949347E+04</pdfrwt>
<pdfrwt beam="2">  1       -2 0.18007308E+00 0.26949347E+04</pdfrwt>
<totfact> 0.18882842E+00</totfact>
</mgrwt>
</event>
<event>
 6    1  0.1773638E-005  0.2213905E+04  0.7818608E-02  0.8512663E-01
          1   -1    0    0  501    0  0.00000000000E+00  0.00000000000E+00  0.15103659999E+04  0.15103659999E+04  0.00000000000E+00 0. -1.
         -1   -1    0    0    0  501 -0.00000000000E+00 -0.00000000000E+00 -0.81128952899E+03  0.81128952899E+03  0.00000000000E+00 0.  1.
         23    2    1    2    0    0  0.10348078154E+04  0.12656227681E+03 -0.35908150084E+02  0.10460977616E+04  0.78650536089E+02 0.  0.
         13    1    3    3    0    0  0.97935472315E+03  0.12503577269E+03 -0.16871985660E+02  0.98744836934E+03  0.00000000000E+00 0. -1.
        -13    1    3    3    0    0  0.55453092228E+02  0.15265041237E+01 -0.19036164424E+02  0.58649392226E+02  0.00000000000E+00 0.  1.
         22    1    1    2    0    0 -0.10348078154E+04 -0.12656227681E+03  0.73498462100E+03  0.12755577673E+04  0.00000000000E+00 0. -1.
<mgrwt>
<rscale>  0 0.22139053E+04</rscale>
<asrwt>0</asrwt>
<pdfrwt beam="1">  1        1 0.23236400E+00 0.22139053E+04</pdfrwt>
<pdfrwt beam="2">  1       -1 0.12481377E+00 0.22139053E+04</pdfrwt>
<totfact> 0.32911564E+00</totfact>
</mgrwt>
</event>
<event>
 6    1  0.1965087E-005  0.3247701E+04  0.7818608E-02  0.8176332E-01
         -2   -1    0    0    0  501 -0.00000000000E+00  0.00000000000E+00  0.15242446074E+04  0.15242446074E+04  0.00000000000E+00 0.  1.
          2   -1    0    0  501    0  0.00000000000E+00 -0.00000000000E+00 -0.17299654416E+04  0.17299654416E+04  0.00000000000E+00 0. -1.
         23    2    1    2    0    0  0.11624421304E+04 -0.10217344449E+04 -0.59149030716E+03  0.16592081466E+04  0.88870174812E+02 0.  0.
         13    1    3    3    0    0  0.37819417433E+03 -0.28217133502E+03 -0.19698336720E+03  0.51132567191E+03  0.00000000000E+00 0. -1.
        -13    1    3    3    0    0  0.78424795605E+03 -0.73956310989E+03 -0.39450693996E+03  0.11478824747E+04  0.00000000000E+00 0.  1.
         22    1    1    2    0    0 -0.11624421304E+04  0.10217344449E+04  0.38576947298E+03  0.15950019024E+04  0.00000000000E+00 0. -1.
<mgrwt>
<rscale>  0 0.32477010E+04</rscale>
<asrwt>0</asrwt>
<pdfrwt beam="1">  1        2 0.26614853E+00 0.32477010E+04</pdfrwt>
<pdfrwt beam="2">  1       -2 0.23449917E+00 0.32477010E+04</pdfrwt>
<totfact> 0.63442872E-01</totfact>
</mgrwt>
</event>
<event>
 6    1  0.2043340E-005  0.2956560E+04  0.7818608E-02  0.8256245E-01
         -2   -1    0    0    0  501 -0.00000000000E+00  0.00000000000E+00  0.13280242230E+04  0.13280242230E+04  0.00000000000E+00 0.  1.
          2   -1    0    0  501    0  0.00000000000E+00 -0.00000000000E+00 -0.16455358314E+04  0.16455358314E+04  0.00000000000E+00 0. -1.
         23    2    1    2    0    0  0.14306002851E+04 -0.36282087447E+03 -0.20973450536E+03  0.14937384212E+04  0.94919679474E+02 0.  0.
         11    1    3    3    0    0  0.49022581180E+03 -0.17105274777E+03 -0.72890590015E+02  0.52430280105E+03  0.00000000000E+00 0. -1.
        -11    1    3    3    0    0  0.94037447325E+03 -0.19176812670E+03 -0.13684391534E+03  0.96943562010E+03  0.00000000000E+00 0.  1.
         22    1    1    2    0    0 -0.14306002851E+04  0.36282087447E+03 -0.10777710303E+03  0.14798216333E+04  0.00000000000E+00 0. -1.
<mgrwt>
<rscale>  0 0.29565598E+04</rscale>
<asrwt>0</asrwt>
<pdfrwt beam="1">  1        2 0.25315936E+00 0.29565598E+04</pdfrwt>
<pdfrwt beam="2">  1       -2 0.20431142E+00 0.29565598E+04</pdfrwt>
<totfact> 0.11262173E+00</totfact>
</mgrwt>
</event>
<event>
 6    1  0.1773638E-005  0.1693452E+04  0.7818608E-02  0.8765108E-01
          2   -1    0    0  501    0  0.00000000000E+00  0.00000000000E+00  0.10794871128E+04  0.10794871128E+04  0.00000000000E+00 0. -1.
         -2   -1    0    0    0  501 -0.00000000000E+00 -0.00000000000E+00 -0.66415303459E+03  0.66415303459E+03  0.00000000000E+00 0.  1.
         23    2    1    2    0    0  0.32043858311E+03 -0.20265290811E+03  0.98497053028E+03  0.10593633217E+04  0.91294113053E+02 0.  0.
         13    1    3    3    0    0  0.38895160698E+02 -0.47855578727E+02  0.24516476615E+03  0.25280180479E+03  0.00000000000E+00 0. -1.
        -13    1    3    3    0    0  0.28154342241E+03 -0.15479732938E+03  0.73980576413E+03  0.80656151688E+03  0.00000000000E+00 0.  1.
         22    1    1    2    0    0 -0.32043858311E+03  0.20265290811E+03 -0.56963645206E+03  0.68427682573E+03  0.00000000000E+00 0.  1.
<mgrwt>
<rscale>  0 0.16934517E+04</rscale>
<asrwt>0</asrwt>
<pdfrwt beam="1">  1        2 0.16607494E+00 0.16934517E+04</pdfrwt>
<pdfrwt beam="2">  1       -2 0.10217739E+00 0.16934517E+04</pdfrwt>
<totfact> 0.16762116E+01</totfact>
</mgrwt>
</event>
<event>
 6    1  0.1773638E-005  0.2247733E+04  0.7818608E-02  0.8498819E-01
          2   -1    0    0  501    0  0.00000000000E+00  0.00000000000E+00  0.16102289717E+04  0.16102289717E+04  0.00000000000E+00 0. -1.
         -2   -1    0    0    0  501 -0.00000000000E+00 -0.00000000000E+00 -0.78440761206E+03  0.78440761206E+03  0.00000000000E+00 0.  1.
         23    2    1    2    0    0 -0.63613794533E+03 -0.70055660558E+03  0.10558460375E+04  0.14207975850E+04  0.91672676238E+02 0.  0.
         11    1    3    3    0    0 -0.59720696676E+03 -0.62005182187E+03  0.94400255455E+03  0.12775997988E+04  0.00000000000E+00 0.  1.
        -11    1    3    3    0    0 -0.38930978567E+02 -0.80504783713E+02  0.11184348290E+03  0.14319778616E+03  0.00000000000E+00 0. -1.
         22    1    1    2    0    0  0.63613794533E+03  0.70055660558E+03 -0.23002467783E+03  0.97383899877E+03  0.00000000000E+00 0.  1.
<mgrwt>
<rscale>  0 0.22477330E+04</rscale>
<asrwt>0</asrwt>
<pdfrwt beam="1">  1        2 0.24772753E+00 0.22477330E+04</pdfrwt>
<pdfrwt beam="2">  1       -2 0.12067809E+00 0.22477330E+04</pdfrwt>
<totfact> 0.52475966E+00</totfact>
</mgrwt>
</event>
<event>
 6    1  0.1773638E-005  0.3577932E+04  0.7818608E-02  0.8095565E-01
         -2   -1    0    0    0  501 -0.00000000000E+00  0.00000000000E+00  0.19196606376E+04  0.19196606376E+04  0.00000000000E+00 0.  1.
          2   -1    0    0  501    0  0.00000000000E+00 -0.00000000000E+00 -0.16671694546E+04  0.16671694546E+04  0.00000000000E+00 0. -1.
         23    2    1    2    0    0  0.67604640303E+03  0.12790745349E+04  0.11789471263E+04  0.18688687947E+04  0.98406506328E+02 0.  0.
         13    1    3    3    0    0  0.52270163861E+03  0.89628277071E+03  0.83110192415E+03  0.13293871582E+04  0.00000000000E+00 0.  1.
        -13    1    3    3    0    0  0.15334476442E+03  0.38279176416E+03  0.34784520215E+03  0.53948163652E+03  0.00000000000E+00 0. -1.
         22    1    1    2    0    0 -0.67604640303E+03 -0.12790745349E+04 -0.92645594335E+03  0.17179612975E+04  0.00000000000E+00 0. -1.
<mgrwt>
<rscale>  0 0.35779321E+04</rscale>
<asrwt>0</asrwt>
<pdfrwt beam="1">  1        2 0.25648761E+00 0.35779321E+04</pdfrwt>
<pdfrwt beam="2">  1       -2 0.29533241E+00 0.35779321E+04</pdfrwt>
<totfact> 0.28347822E-01</totfact>
</mgrwt>
</event>
<event>
 6    1  0.1773638E-005  0.2606643E+04  0.7818608E-02  0.8365948E-01
         -2   -1    0    0    0  501 -0.00000000000E+00  0.00000000000E+00  0.26048028357E+04  0.26048028357E+04  0.00000000000E+00 0.  1.
          2   -1    0    0  501    0  0.00000000000E+00 -0.00000000000E+00 -0.65212117944E+03  0.65212117944E+03  0.00000000000E+00 0. -1.
         23    2    1    2    0    0 -0.11574329687E+04  0.42654713129E+03  0.14971355316E+04  0.19419655353E+04  0.90674185790E+02 0.  0.
         13    1    3    3    0    0 -0.98489426963E+03  0.32755913601E+03  0.12579605773E+04  0.16308821306E+04  0.00000000000E+00 0.  1.
        -13    1    3    3    0    0 -0.17253869903E+03  0.98987995279E+02  0.23917495434E+03  0.31108340466E+03  0.00000000000E+00 0. -1.
         22    1    1    2    0    0  0.11574329687E+04 -0.42654713129E+03  0.45554612465E+03  0.13149584799E+04  0.00000000000E+00 0. -1.
<mgrwt>
<rscale>  0 0.26066431E+04</rscale>
<asrwt>0</asrwt>
<pdfrwt beam="1">  1        2 0.10032634E+00 0.26066431E+04</pdfrwt>
<pdfrwt beam="2">  1       -2 0.40073889E+00 0.26066431E+04</pdfrwt>
<totfact> 0.29059281E-01</totfact>
</mgrwt>
</event>
<event>
 6    1  0.1916757E-005  0.2437721E+04  0.7818608E-02  0.8425515E-01
          1   -1    0    0  501    0  0.00000000000E+00  0.00000000000E+00  0.18774307635E+04  0.18774307635E+04  0.00000000000E+00 0. -1.
         -1   -1    0    0    0  501 -0.00000000000E+00 -0.00000000000E+00 -0.79130548110E+03  0.79130548110E+03  0.00000000000E+00 0.  1.
         23    2    1    2    0    0  0.53637086001E+03  0.97319277387E+03  0.26059032305E-01  0.11148992526E+04  0.90567479092E+02 0.  0.
         13    1    3    3    0    0  0.21031320889E+03  0.39614483945E+03 -0.43870156573E+02  0.45065171729E+03  0.00000000000E+00 0.  1.
        -13    1    3    3    0    0  0.32605765112E+03  0.57704793442E+03  0.43896215606E+02  0.66424753535E+03  0.00000000000E+00 0. -1.
         22    1    1    2    0    0 -0.53637086001E+03 -0.97319277387E+03  0.10860992234E+04  0.15538369920E+04  0.00000000000E+00 0.  1.
<mgrwt>
<rscale>  0 0.24377213E+04</rscale>
<asrwt>0</asrwt>
<pdfrwt beam="1">  1        1 0.28883550E+00 0.24377213E+04</pdfrwt>
<pdfrwt beam="2">  1       -1 0.12173931E+00 0.24377213E+04</pdfrwt>
<totfact> 0.19260967E+00</totfact>
</mgrwt>
</event>
<event>
 6    1  0.1773638E-005  0.1870936E+04  0.7818608E-02  0.8669460E-01
         -1   -1    0    0    0  501 -0.00000000000E+00  0.00000000000E+00  0.46797894697E+03  0.46797894697E+03  0.00000000000E+00 0.  1.
          1   -1    0    0  501    0  0.00000000000E+00 -0.00000000000E+00 -0.18699572491E+04  0.18699572491E+04  0.00000000000E+00 0. -1.
         23    2    1    2    0    0  0.27761181075E+03  0.23382486511E+03 -0.17769329901E+04  0.18160804660E+04  0.94419399050E+02 0.  0.
         11    1    3    3    0    0  0.17942871202E+02  0.59406810307E+02 -0.31544278769E+03  0.32148914141E+03  0.00000000000E+00 0.  1.
        -11    1    3    3    0    0  0.25966893955E+03  0.17441805480E+03 -0.14614902024E+04  0.14945913246E+04  0.00000000000E+00 0. -1.
         22    1    1    2    0    0 -0.27761181075E+03 -0.23382486511E+03  0.37495468792E+03  0.52185573006E+03  0.00000000000E+00 0.  1.
<mgrwt>
<rscale>  0 0.18709363E+04</rscale>
<asrwt>0</asrwt>
<pdfrwt beam="1">  1        1 0.28768573E+00 0.18709363E+04</pdfrwt>
<pdfrwt beam="2">  1       -1 0.71996762E-01 0.18709363E+04</pdfrwt>
<totfact> 0.66674671E+00</totfact>
</mgrwt>
</event>
<event>
 6    1  0.1773638E-005  0.9807682E+03  0.7818608E-02  0.9329893E-01
          2   -1    0    0  501    0  0.00000000000E+00  0.00000000000E+00  0.53191327445E+03  0.53191327445E+03  0.00000000000E+00 0.  1.
         -2   -1    0    0    0  501 -0.00000000000E+00 -0.00000000000E+00 -0.45209732861E+03  0.45209732861E+03  0.00000000000E+00 0. -1.
         23    2    1    2    0    0  0.24919121927E+02  0.25627861984E+03  0.45399886368E+03  0.52979419029E+03  0.90924266379E+02 0.  0.
         13    1    3    3    0    0  0.56549555482E+02  0.13092917401E+03  0.26252217059E+03  0.29876109332E+03  0.00000000000E+00 0.  1.
        -13    1    3    3    0    0 -0.31630433556E+02  0.12534944584E+03  0.19147669309E+03  0.23103309697E+03  0.00000000000E+00 0. -1.
         22    1    1    2    0    0 -0.24919121927E+02 -0.25627861984E+03 -0.37418291784E+03  0.45421641277E+03  0.00000000000E+00 0. -1.
<mgrwt>
<rscale>  0 0.98076821E+03</rscale>
<asrwt>0</asrwt>
<pdfrwt beam="1">  1        2 0.81832811E-01 0.98076821E+03</pdfrwt>
<pdfrwt beam="2">  1       -2 0.69553435E-01 0.98076821E+03</pdfrwt>
<totfact> 0.10798399E+02</totfact>
</mgrwt>
</event>
<event>
 6    1  0.1773638E-005  0.3969063E+04  0.7818608E-02  0.8010817E-01
          2   -1    0    0  501    0  0.00000000000E+00  0.00000000000E+00  0.27180749254E+04  0.27180749254E+04  0.00000000000E+00 0. -1.
         -2   -1    0    0    0  501 -0.00000000000E+00 -0.00000000000E+00 -0.14489536278E+04  0.14489536278E+04  0.00000000000E+00 0.  1.
         23    2    1    2    0    0 -0.75808918296E+03  0.15289626236E+04  0.16959690238E+04  0.24078739565E+04  0.95499461137E+02 0.  0.
         13    1    3    3    0    0 -0.43144165988E+03  0.78079226314E+03  0.92278154918E+03  0.12834735103E+04  0.00000000000E+00 0. -1.
        -13    1    3    3    0    0 -0.32664752309E+03  0.74817036043E+03  0.77318747466E+03  0.11244004463E+04  0.00000000000E+00 0.  1.
         22    1    1    2    0    0  0.75808918296E+03 -0.15289626236E+04 -0.42684772625E+03  0.17591545967E+04  0.00000000000E+00 0.  1.
<mgrwt>
<rscale>  0 0.39690626E+04</rscale>
<asrwt>0</asrwt>
<pdfrwt beam="1">  1        2 0.41816537E+00 0.39690626E+04</pdfrwt>
<pdfrwt beam="2">  1       -2 0.22291594E+00 0.39690626E+04</pdfrwt>
<totfact> 0.19401622E-01</totfact>
</mgrwt>
</event>
<event>
 6    1  0.1773638E-005  0.2888801E+04  0.7818608E-02  0.8276217E-01
          2   -1    0    0  501    0  0.00000000000E+00  0.00000000000E+00  0.15271137039E+04  0.15271137039E+04  0.00000000000E+00 0. -1.
         -2   -1    0    0    0  501 -0.00000000000E+00 -0.00000000000E+00 -0.13661676409E+04  0.13661676409E+04  0.00000000000E+00 0.  1.
         23    2    1    2    0    0  0.29763363917E+03 -0.13763575163E+04 -0.23488116513E+03  0.14305356422E+04  0.91199046871E+02 0.  0.
         13    1    3    3    0    0  0.14865263386E+03 -0.56810813882E+03 -0.13568010783E+03  0.60270519710E+03  0.00000000000E+00 0.  1.
        -13    1    3    3    0    0  0.14898100532E+03 -0.80824937746E+03 -0.99201057301E+02  0.82783044513E+03  0.00000000000E+00 0. -1.
         22    1    1    2    0    0 -0.29763363917E+03  0.13763575163E+04  0.39582722808E+03  0.14627457025E+04  0.00000000000E+00 0. -1.
<mgrwt>
<rscale>  0 0.28888014E+04</rscale>
<asrwt>0</asrwt>
<pdfrwt beam="1">  1        2 0.23494057E+00 0.28888014E+04</pdfrwt>
<pdfrwt beam="2">  1       -2 0.21017964E+00 0.28888014E+04</pdfrwt>
<totfact> 0.12090810E+00</totfact>
</mgrwt>
</event>
<event>
 6    1  0.1773638E-005  0.8174417E+03  0.7818608E-02  0.9535108E-01
         -1   -1    0    0    0  501 -0.00000000000E+00  0.00000000000E+00  0.15833757547E+03  0.15833757547E+03  0.00000000000E+00 0.  1.
          1   -1    0    0  501    0  0.00000000000E+00 -0.00000000000E+00 -0.10550417049E+04  0.10550417049E+04  0.00000000000E+00 0. -1.
         23    2    1    2    0    0  0.29999095828E+03 -0.67856812281E+02 -0.84189748656E+03  0.90096466783E+03  0.91361002466E+02 0.  0.
         11    1    3    3    0    0  0.27181128021E+03 -0.84677711964E+02 -0.70781969699E+03  0.76292883705E+03  0.00000000000E+00 0.  1.
        -11    1    3    3    0    0  0.28179678067E+02  0.16820899683E+02 -0.13407778957E+03  0.13803583078E+03  0.00000000000E+00 0. -1.
         22    1    1    2    0    0 -0.29999095828E+03  0.67856812281E+02 -0.54806642867E+02  0.31241461254E+03  0.00000000000E+00 0.  1.
<mgrwt>
<rscale>  0 0.81744173E+03</rscale>
<asrwt>0</asrwt>
<pdfrwt beam="1">  1        1 0.16231411E+00 0.81744173E+03</pdfrwt>
<pdfrwt beam="2">  1       -1 0.24359627E-01 0.81744173E+03</pdfrwt>
<totfact> 0.20277184E+02</totfact>
</mgrwt>
</event>
<event>
 6    1  0.1773638E-005  0.1834274E+04  0.7818608E-02  0.8688282E-01
         -2   -1    0    0    0  501 -0.00000000000E+00  0.00000000000E+00  0.24063315643E+03  0.24063315643E+03  0.00000000000E+00 0.  1.
          2   -1    0    0  501    0  0.00000000000E+00 -0.00000000000E+00 -0.34955310284E+04  0.34955310284E+04  0.00000000000E+00 0. -1.
         23    2    1    2    0    0 -0.90542502390E+03  0.45530777766E+02 -0.18806501005E+04  0.20898275051E+04  0.93094978151E+02 0.  0.
         13    1    3    3    0    0 -0.23719801074E+03 -0.18630405444E+02 -0.43172190228E+03  0.49294400211E+03  0.00000000000E+00 0. -1.
        -13    1    3    3    0    0 -0.66822701316E+03  0.64161183210E+02 -0.14489281983E+04  0.15968835030E+04  0.00000000000E+00 0.  1.
         22    1    1    2    0    0  0.90542502390E+03 -0.45530777766E+02 -0.13742477715E+04  0.16463366797E+04  0.00000000000E+00 0. -1.
<mgrwt>
<rscale>  0 0.18342744E+04</rscale>
<asrwt>0</asrwt>
<pdfrwt beam="1">  1        2 0.53777398E+00 0.18342744E+04</pdfrwt>
<pdfrwt beam="2">  1       -2 0.37020487E-01 0.18342744E+04</pdfrwt>
<totfact> 0.53420872E+00</totfact>
</mgrwt>
</event>
<event>
 6    1  0.1773638E-005  0.1504163E+04  0.7818608E-02  0.8881689E-01
         -1   -1    0    0    0  501 -0.00000000000E+00  0.00000000000E+00  0.40743863499E+03  0.40743863499E+03  0.00000000000E+00 0.  1.
          1   -1    0    0  501    0  0.00000000000E+00 -0.00000000000E+00 -0.13882495540E+04  0.13882495540E+04  0.00000000000E+00 0. -1.
         23    2    1    2    0    0  0.19479644452E+03 -0.21522020366E+03  0.33176743199E+03  0.45139383195E+03  0.97063750848E+02 0.  0.
         13    1    3    3    0    0  0.13302275542E+03 -0.18412713838E+03  0.29723444949E+03  0.37409380443E+03  0.00000000000E+00 0.  1.
        -13    1    3    3    0    0  0.61773689104E+02 -0.31093065277E+02  0.34532982497E+02  0.77300027516E+02  0.00000000000E+00 0. -1.
         22    1    1    2    0    0 -0.19479644452E+03  0.21522020366E+03 -0.13125783510E+04  0.13442943571E+04  0.00000000000E+00 0. -1.
<mgrwt>
<rscale>  0 0.15041629E+04</rscale>
<asrwt>0</asrwt>
<pdfrwt beam="1">  1        1 0.21357685E+00 0.15041629E+04</pdfrwt>
<pdfrwt beam="2">  1       -1 0.62682868E-01 0.15041629E+04</pdfrwt>
<totfact> 0.19546545E+01</totfact>
</mgrwt>
</event>
<event>
 6    1  0.1773638E-005  0.3622181E+04  0.7818608E-02  0.8085430E-01
         -2   -1    0    0    0  501 -0.00000000000E+00  0.00000000000E+00  0.82825423099E+03  0.82825423099E+03  0.00000000000E+00 0.  1.
          2   -1    0    0  501    0  0.00000000000E+00 -0.00000000000E+00 -0.39601952793E+04  0.39601952793E+04  0.00000000000E+00 0. -1.
         23    2    1    2    0    0  0.48534459414E+02  0.18455051169E+03 -0.39463415070E+04  0.39519911477E+04  0.90599427981E+02 0.  0.
         13    1    3    3    0    0 -0.25056671599E+02  0.64163288224E+02 -0.11000889938E+04  0.11022434207E+04  0.00000000000E+00 0. -1.
        -13    1    3    3    0    0  0.73591131013E+02  0.12038722347E+03 -0.28462525132E+04  0.28497477270E+04  0.00000000000E+00 0.  1.
         22    1    1    2    0    0 -0.48534459414E+02 -0.18455051169E+03  0.81440045873E+03  0.83645836256E+03  0.00000000000E+00 0.  1.
<mgrwt>
<rscale>  0 0.36221808E+04</rscale>
<asrwt>0</asrwt>
<pdfrwt beam="1">  1        2 0.60926082E+00 0.36221808E+04</pdfrwt>
<pdfrwt beam="2">  1       -2 0.12742373E+00 0.36221808E+04</pdfrwt>
<totfact> 0.13650388E-01</totfact>
</mgrwt>
</event>
<event>
 6    1  0.1773638E-005  0.2387668E+04  0.7818608E-02  0.8444135E-01
         -1   -1    0    0    0  501 -0.00000000000E+00  0.00000000000E+00  0.17772433729E+04  0.17772433729E+04  0.00000000000E+00 0.  1.
          1   -1    0    0  501    0  0.00000000000E+00 -0.00000000000E+00 -0.80193814874E+03  0.80193814874E+03  0.00000000000E+00 0. -1.
         23    2    1    2    0    0  0.63157799429E+03 -0.41241957206E+03  0.14854586090E+04  0.16685569325E+04  0.92272920559E+02 0.  0.
         13    1    3    3    0    0  0.32369432963E+03 -0.17690806110E+03  0.80348819446E+03  0.88411976550E+03  0.00000000000E+00 0.  1.
        -13    1    3    3    0    0  0.30788366466E+03 -0.23551151095E+03  0.68197041450E+03  0.78443716702E+03  0.00000000000E+00 0. -1.
         22    1    1    2    0    0 -0.63157799429E+03  0.41241957206E+03 -0.51015338479E+03  0.91062458911E+03  0.00000000000E+00 0. -1.
<mgrwt>
<rscale>  0 0.23876677E+04</rscale>
<asrwt>0</asrwt>
<pdfrwt beam="1">  1        1 0.12337510E+00 0.23876677E+04</pdfrwt>
<pdfrwt beam="2">  1       -1 0.27342206E+00 0.23876677E+04</pdfrwt>
<totfact> 0.96998600E-01</totfact>
</mgrwt>
</event>
<event>
 6    1  0.1773638E-005  0.3397654E+04  0.7818608E-02  0.8138482E-01
         -2   -1    0    0    0  501 -0.00000000000E+00  0.00000000000E+00  0.10899766015E+04  0.10899766015E+04  0.00000000000E+00 0.  1.
          2   -1    0    0  501    0  0.00000000000E+00 -0.00000000000E+00 -0.26477757814E+04  0.26477757814E+04  0.00000000000E+00 0. -1.
         23    2    1    2    0    0 -0.12023458868E+04  0.99568815250E+03 -0.45628907566E+02  0.15643473445E+04  0.89833671864E+02 0.  0.
         13    1    3    3    0    0 -0.79215008810E+03  0.70194197677E+03 -0.82646386517E+01  0.10584387583E+04  0.00000000000E+00 0. -1.
        -13    1    3    3    0    0 -0.41019579868E+03  0.29374617573E+03 -0.37364268915E+02  0.50590858621E+03  0.00000000000E+00 0.  1.
         22    1    1    2    0    0  0.12023458868E+04 -0.99568815250E+03 -0.15121702723E+04  0.21734050384E+04  0.00000000000E+00 0.  1.
<mgrwt>
<rscale>  0 0.33976543E+04</rscale>
<asrwt>0</asrwt>
<pdfrwt beam="1">  1        2 0.40735011E+00 0.33976543E+04</pdfrwt>
<pdfrwt beam="2">  1       -2 0.16768871E+00 0.33976543E+04</pdfrwt>
<totfact> 0.52307461E-01</totfact>
</mgrwt>
</event>
<event>
 6    1  0.1773638E-005  0.2319915E+04  0.7818608E-02  0.8470110E-01
          2   -1    0    0  501    0  0.00000000000E+00  0.00000000000E+00  0.40247099284E+04  0.40247099284E+04  0.00000000000E+00 0. -1.
         -2   -1    0    0    0  501 -0.00000000000E+00 -0.00000000000E+00 -0.33431015878E+03  0.33431015878E+03  0.00000000000E+00 0.  1.
         23    2    1    2    0    0 -0.97973566125E+03  0.21862111577E+03  0.76198426749E+03  0.12633304207E+04  0.87787070368E+02 0.  0.
         11    1    3    3    0    0 -0.39020214912E+03  0.50548938584E+02  0.32785112718E+03  0.51215161228E+03  0.00000000000E+00 0. -1.
        -11    1    3    3    0    0 -0.58953351213E+03  0.16807217718E+03  0.43413314031E+03  0.75117880840E+03  0.00000000000E+00 0.  1.
         22    1    1    2    0    0  0.97973566125E+03 -0.21862111577E+03  0.29284155021E+04  0.30956896665E+04  0.00000000000E+00 0. -1.
<mgrwt>
<rscale>  0 0.23199150E+04</rscale>
<asrwt>0</asrwt>
<pdfrwt beam="1">  1        2 0.61918611E+00 0.23199150E+04</pdfrwt>
<pdfrwt beam="2">  1       -2 0.51432335E-01 0.23199150E+04</pdfrwt>
<totfact> 0.10620176E+00</totfact>
</mgrwt>
</event>
<event>
 6    1  0.1773638E-005  0.9748495E+03  0.7818608E-02  0.9336568E-01
          2   -1    0    0  501    0  0.00000000000E+00  0.00000000000E+00  0.10953398410E+04  0.10953398410E+04  0.00000000000E+00 0. -1.
         -2   -1    0    0    0  501 -0.00000000000E+00 -0.00000000000E+00 -0.21690335794E+03  0.21690335794E+03  0.00000000000E+00 0.  1.
         23    2    1    2    0    0 -0.19575723973E+03 -0.33382134726E+03  0.52677803824E+02  0.40030296783E+03  0.87806185662E+02 0.  0.
         13    1    3    3    0    0 -0.14706222560E+03 -0.18372880280E+03  0.58146703732E+02  0.24241412981E+03  0.00000000000E+00 0. -1.
        -13    1    3    3    0    0 -0.48695014131E+02 -0.15009254446E+03 -0.54688999088E+01  0.15788883801E+03  0.00000000000E+00 0.  1.
         22    1    1    2    0    0  0.19575723973E+03  0.33382134726E+03  0.82575867921E+03  0.91194023109E+03  0.00000000000E+00 0. -1.
<mgrwt>
<rscale>  0 0.97484951E+03</rscale>
<asrwt>0</asrwt>
<pdfrwt beam="1">  1        2 0.16851382E+00 0.97484951E+03</pdfrwt>
<pdfrwt beam="2">  1       -2 0.33369748E-01 0.97484951E+03</pdfrwt>
<totfact> 0.18368906E+02</totfact>
</mgrwt>
</event>
<event>
 6    1  0.1773638E-005  0.1866139E+04  0.7818608E-02  0.8671897E-01
         -2   -1    0    0    0  501 -0.00000000000E+00  0.00000000000E+00  0.64394121228E+03  0.64394121228E+03  0.00000000000E+00 0.  1.
          2   -1    0    0  501    0  0.00000000000E+00 -0.00000000000E+00 -0.13520153526E+04  0.13520153526E+04  0.00000000000E+00 0. -1.
         23    2    1    2    0    0 -0.18025753831E+03  0.89792468798E+03 -0.17618739865E+03  0.93686967923E+03  0.89001522538E+02 0.  0.
         13    1    3    3    0    0 -0.16074096605E+03  0.87486386030E+03 -0.17547178271E+03  0.90665030676E+03  0.00000000000E+00 0. -1.
        -13    1    3    3    0    0 -0.19516572260E+02  0.23060827682E+02 -0.71561593788E+00  0.30219372468E+02  0.00000000000E+00 0.  1.
         22    1    1    2    0    0  0.18025753831E+03 -0.89792468798E+03 -0.53188674169E+03  0.10590868857E+04  0.00000000000E+00 0.  1.
<mgrwt>
<rscale>  0 0.18661387E+04</rscale>
<asrwt>0</asrwt>
<pdfrwt beam="1">  1        2 0.20800236E+00 0.18661387E+04</pdfrwt>
<pdfrwt beam="2">  1       -2 0.99067880E-01 0.18661387E+04</pdfrwt>
<totfact> 0.12231584E+01</totfact>
</mgrwt>
</event>
<event>
 6    1  0.2178578E-005  0.3533141E+04  0.7818608E-02  0.8105981E-01
          2   -1    0    0  501    0  0.00000000000E+00  0.00000000000E+00  0.15204526108E+04  0.15204526108E+04  0.00000000000E+00 0. -1.
         -2   -1    0    0    0  501 -0.00000000000E+00 -0.00000000000E+00 -0.20525273683E+04  0.20525273683E+04  0.00000000000E+00 0.  1.
         23    2    1    2    0    0 -0.76930157487E+03  0.51247105034E+03 -0.17872265280E+04  0.20141799735E+04  0.91053900698E+02 0.  0.
         13    1    3    3    0    0 -0.54333718939E+03  0.37273170509E+03 -0.13574723186E+04  0.15089318477E+04  0.00000000000E+00 0.  1.
        -13    1    3    3    0    0 -0.22596438548E+03  0.13973934525E+03 -0.42975420942E+03  0.50524812581E+03  0.00000000000E+00 0. -1.
         22    1    1    2    0    0  0.76930157487E+03 -0.51247105034E+03  0.12551517704E+04  0.15588000056E+04  0.00000000000E+00 0. -1.
<mgrwt>
<rscale>  0 0.35331406E+04</rscale>
<asrwt>0</asrwt>
<pdfrwt beam="1">  1        2 0.23391579E+00 0.35331406E+04</pdfrwt>
<pdfrwt beam="2">  1       -2 0.31577344E+00 0.35331406E+04</pdfrwt>
<totfact> 0.25751235E-01</totfact>
</mgrwt>
</event>
<event>
 6    1  0.2132235E-005  0.3185066E+04  0.7818608E-02  0.8192772E-01
         -2   -1    0    0    0  501 -0.00000000000E+00  0.00000000000E+00  0.10942146361E+04  0.10942146361E+04  0.00000000000E+00 0. -1.
          2   -1    0    0  501    0  0.00000000000E+00 -0.00000000000E+00 -0.23177916406E+04  0.23177916406E+04  0.00000000000E+00 0.  1.
         23    2    1    2    0    0 -0.33651912113E+03  0.85200972372E+03  0.78167358951E+03  0.12074211383E+04  0.87672780290E+02 0.  0.
         11    1    3    3    0    0 -0.12485788086E+03  0.26602303649E+03  0.29950916720E+03  0.41959919875E+03  0.00000000000E+00 0.  1.
        -11    1    3    3    0    0 -0.21166124027E+03  0.58598668723E+03  0.48216442230E+03  0.78782193952E+03  0.00000000000E+00 0. -1.
         22    1    1    2    0    0  0.33651912113E+03 -0.85200972372E+03 -0.20052505939E+04  0.22045851384E+04  0.00000000000E+00 0.  1.
<mgrwt>
<rscale>  0 0.31850661E+04</rscale>
<asrwt>0</asrwt>
<pdfrwt beam="1">  1        2 0.35658333E+00 0.31850661E+04</pdfrwt>
<pdfrwt beam="2">  1       -2 0.16834071E+00 0.31850661E+04</pdfrwt>
<totfact> 0.81787256E-01</totfact>
</mgrwt>
</event>
<event>
 6    1  0.1773638E-005  0.1539896E+04  0.7818608E-02  0.8858348E-01
         -1   -1    0    0    0  501 -0.00000000000E+00  0.00000000000E+00  0.43847240805E+03  0.43847240805E+03  0.00000000000E+00 0.  1.
          1   -1    0    0  501    0  0.00000000000E+00 -0.00000000000E+00 -0.13520116939E+04  0.13520116939E+04  0.00000000000E+00 0. -1.
         23    2    1    2    0    0 -0.56090541088E+03  0.15276462820E+03  0.12370055748E+03  0.60144314211E+03  0.92087532721E+02 0.  0.
         13    1    3    3    0    0 -0.51710244542E+03  0.11302526205E+03  0.10742876524E+03  0.54010238707E+03  0.00000000000E+00 0. -1.
        -13    1    3    3    0    0 -0.43802965463E+02  0.39739366158E+02  0.16271792238E+02  0.61340755038E+02  0.00000000000E+00 0.  1.
         22    1    1    2    0    0  0.56090541088E+03 -0.15276462820E+03 -0.10372398434E+04  0.11890409599E+04  0.00000000000E+00 0. -1.
<mgrwt>
<rscale>  0 0.15398959E+04</rscale>
<asrwt>0</asrwt>
<pdfrwt beam="1">  1        1 0.20800180E+00 0.15398959E+04</pdfrwt>
<pdfrwt beam="2">  1       -1 0.67457293E-01 0.15398959E+04</pdfrwt>
<totfact> 0.17824821E+01</totfact>
</mgrwt>
</event>
<event>
 6    1  0.1773638E-005  0.3337934E+04  0.7818608E-02  0.8153310E-01
          2   -1    0    0  501    0  0.00000000000E+00  0.00000000000E+00  0.18272434879E+04  0.18272434879E+04  0.00000000000E+00 0. -1.
         -2   -1    0    0    0  501 -0.00000000000E+00 -0.00000000000E+00 -0.15244002477E+04  0.15244002477E+04  0.00000000000E+00 0.  1.
         23    2    1    2    0    0 -0.40872190020E+03 -0.14026750214E+04 -0.65578002717E+03  0.16042143733E+04  0.94368979796E+02 0.  0.
         13    1    3    3    0    0 -0.10044979526E+03 -0.31165673328E+03 -0.18961286874E+03  0.37838224160E+03  0.00000000000E+00 0. -1.
        -13    1    3    3    0    0 -0.30827210494E+03 -0.10910182881E+04 -0.46616715843E+03  0.12258321318E+04  0.00000000000E+00 0.  1.
         22    1    1    2    0    0  0.40872190020E+03  0.14026750214E+04  0.95862326736E+03  0.17474293622E+04  0.00000000000E+00 0. -1.
<mgrwt>
<rscale>  0 0.33379337E+04</rscale>
<asrwt>0</asrwt>
<pdfrwt beam="1">  1        2 0.28111438E+00 0.33379337E+04</pdfrwt>
<pdfrwt beam="2">  1       -2 0.23452312E+00 0.33379337E+04</pdfrwt>
<totfact> 0.55592092E-01</totfact>
</mgrwt>
</event>
<event>
 6    1  0.1773638E-005  0.4598809E+04  0.7818608E-02  0.7893563E-01
          2   -1    0    0  501    0  0.00000000000E+00  0.00000000000E+00  0.22421562731E+04  0.22421562731E+04  0.00000000000E+00 0. -1.
         -2   -1    0    0    0  501 -0.00000000000E+00 -0.00000000000E+00 -0.23581139823E+04  0.23581139823E+04  0.00000000000E+00 0.  1.
         23    2    1    2    0    0 -0.20769393102E+04  0.77689763545E+03 -0.66295240156E+03  0.23163153461E+04  0.92542216058E+02 0.  0.
         11    1    3    3    0    0 -0.19592338790E+04  0.71023654404E+03 -0.61603525515E+03  0.21731389225E+04  0.00000000000E+00 0. -1.
        -11    1    3    3    0    0 -0.11770543120E+03  0.66661091405E+02 -0.46917146404E+02  0.14317642358E+03  0.00000000000E+00 0.  1.
         22    1    1    2    0    0  0.20769393102E+04 -0.77689763545E+03  0.54699469233E+03  0.22839549093E+04  0.00000000000E+00 0. -1.
<mgrwt>
<rscale>  0 0.45988086E+04</rscale>
<asrwt>0</asrwt>
<pdfrwt beam="1">  1        2 0.34494712E+00 0.45988086E+04</pdfrwt>
<pdfrwt beam="2">  1       -2 0.36278677E+00 0.45988086E+04</pdfrwt>
<totfact> 0.47441480E-02</totfact>
</mgrwt>
</event>
<event>
 6    1  0.1773638E-005  0.2989946E+04  0.7818608E-02  0.8246608E-01
         -2   -1    0    0    0  501 -0.00000000000E+00  0.00000000000E+00  0.13354325289E+04  0.13354325289E+04  0.00000000000E+00 0.  1.
          2   -1    0    0  501    0  0.00000000000E+00 -0.00000000000E+00 -0.16735728909E+04  0.16735728909E+04  0.00000000000E+00 0. -1.
         23    2    1    2    0    0  0.93288138447E+02 -0.72445619321E+03 -0.14802952158E+04  0.16532557517E+04  0.91876015387E+02 0.  0.
         13    1    3    3    0    0  0.23336943948E+02 -0.26608526746E+03 -0.44758461966E+03  0.52122737290E+03  0.00000000000E+00 0.  1.
        -13    1    3    3    0    0  0.69951194499E+02 -0.45837092576E+03 -0.10327105961E+04  0.11320283788E+04  0.00000000000E+00 0. -1.
         22    1    1    2    0    0 -0.93288138447E+02  0.72445619321E+03  0.11421548537E+04  0.13557496681E+04  0.00000000000E+00 0.  1.
<mgrwt>
<rscale>  0 0.29899456E+04</rscale>
<asrwt>0</asrwt>
<pdfrwt beam="1">  1        2 0.25747275E+00 0.29899456E+04</pdfrwt>
<pdfrwt beam="2">  1       -2 0.20545116E+00 0.29899456E+04</pdfrwt>
<totfact> 0.10650835E+00</totfact>
</mgrwt>
</event>
<event>
 6    1  0.1773638E-005  0.2342402E+04  0.7818608E-02  0.8461388E-01
         -2   -1    0    0    0  501 -0.00000000000E+00  0.00000000000E+00  0.59943583241E+03  0.59943583241E+03  0.00000000000E+00 0.  1.
          2   -1    0    0  501    0  0.00000000000E+00 -0.00000000000E+00 -0.22883386972E+04  0.22883386972E+04  0.00000000000E+00 0. -1.
         23    2    1    2    0    0 -0.10909364690E+03 -0.20138370552E+03 -0.22594950016E+04  0.22729312916E+04  0.91881302229E+02 0.  0.
         11    1    3    3    0    0 -0.21228026015E+02 -0.83068078165E+02 -0.12243282174E+04  0.12273265738E+04  0.00000000000E+00 0.  1.
        -11    1    3    3    0    0 -0.87865620886E+02 -0.11831562736E+03 -0.10351667841E+04  0.10456047178E+04  0.00000000000E+00 0. -1.
         22    1    1    2    0    0  0.10909364690E+03  0.20138370552E+03  0.57059213682E+03  0.61484323795E+03  0.00000000000E+00 0.  1.
<mgrwt>
<rscale>  0 0.23424024E+04</rscale>
<asrwt>0</asrwt>
<pdfrwt beam="1">  1        2 0.35205210E+00 0.23424024E+04</pdfrwt>
<pdfrwt beam="2">  1       -2 0.92220898E-01 0.23424024E+04</pdfrwt>
<totfact> 0.41533195E+00</totfact>
</mgrwt>
</event>
<event>
 6    1  0.1773638E-005  0.1874951E+04  0.7818608E-02  0.8667426E-01
          4   -1    0    0  501    0  0.00000000000E+00  0.00000000000E+00  0.11715839040E+04  0.11715839040E+04  0.00000000000E+00 0. -1.
         -4   -1    0    0    0  501 -0.00000000000E+00 -0.00000000000E+00 -0.75014701812E+03  0.75014701812E+03  0.00000000000E+00 0.  1.
         23    2    1    2    0    0 -0.29039161541E+03  0.20204713696E+02 -0.69987502630E+03  0.76325091576E+03  0.89394559177E+02 0.  0.
         11    1    3    3    0    0 -0.45140339937E+02 -0.29943461701E+02 -0.12151281231E+03  0.13303993665E+03  0.00000000000E+00 0.  1.
        -11    1    3    3    0    0 -0.24525127547E+03  0.50148175397E+02 -0.57836221399E+03  0.63021097911E+03  0.00000000000E+00 0. -1.
         22    1    1    2    0    0  0.29039161541E+03 -0.20204713696E+02  0.11213119121E+04  0.11584800063E+04  0.00000000000E+00 0. -1.
<mgrwt>
<rscale>  0 0.18749508E+04</rscale>
<asrwt>0</asrwt>
<pdfrwt beam="1">  1        4 0.18024368E+00 0.18749508E+04</pdfrwt>
<pdfrwt beam="2">  1       -4 0.11540723E+00 0.18749508E+04</pdfrwt>
<totfact> 0.19604453E-01</totfact>
</mgrwt>
</event>
<event>
 6    1  0.1773638E-005  0.1936051E+04  0.7818608E-02  0.8637117E-01
          2   -1    0    0  501    0  0.00000000000E+00  0.00000000000E+00  0.14687625089E+04  0.14687625089E+04  0.00000000000E+00 0. -1.
         -2   -1    0    0    0  501 -0.00000000000E+00 -0.00000000000E+00 -0.63800172261E+03  0.63800172261E+03  0.00000000000E+00 0.  1.
         23    2    1    2    0    0  0.92356984047E+03  0.37734307823E+02  0.11066848926E+03  0.93503984222E+03  0.87446348198E+02 0.  0.
         11    1    3    3    0    0  0.53999177296E+03  0.61999148625E+02  0.81141760043E+02  0.54956254832E+03  0.00000000000E+00 0. -1.
        -11    1    3    3    0    0  0.38357806751E+03 -0.24264840803E+02  0.29526729214E+02  0.38547729390E+03  0.00000000000E+00 0.  1.
         22    1    1    2    0    0 -0.92356984047E+03 -0.37734307823E+02  0.72009229706E+03  0.11717243893E+04  0.00000000000E+00 0. -1.
<mgrwt>
<rscale>  0 0.19360506E+04</rscale>
<asrwt>0</asrwt>
<pdfrwt beam="1">  1        2 0.22596346E+00 0.19360506E+04</pdfrwt>
<pdfrwt beam="2">  1       -2 0.98154112E-01 0.19360506E+04</pdfrwt>
<totfact> 0.10659112E+01</totfact>
</mgrwt>
</event>
<event>
 6    1  0.1773638E-005  0.4064781E+04  0.7818608E-02  0.7991604E-01
         -2   -1    0    0    0  501 -0.00000000000E+00  0.00000000000E+00  0.21847761314E+04  0.21847761314E+04  0.00000000000E+00 0. -1.
          2   -1    0    0  501    0  0.00000000000E+00 -0.00000000000E+00 -0.18906334573E+04  0.18906334573E+04  0.00000000000E+00 0.  1.
         23    2    1    2    0    0  0.90695652019E+03  0.76554274756E+03  0.18000393422E+04  0.21580284052E+04  0.91209299625E+02 0.  0.
         11    1    3    3    0    0  0.67540556940E+03  0.60619261884E+03  0.13236442143E+04  0.16048913297E+04  0.00000000000E+00 0.  1.
        -11    1    3    3    0    0  0.23155095079E+03  0.15935012873E+03  0.47639512790E+03  0.55313707544E+03  0.00000000000E+00 0. -1.
         22    1    1    2    0    0 -0.90695652019E+03 -0.76554274756E+03 -0.15058966681E+04  0.19173811835E+04  0.00000000000E+00 0.  1.
<mgrwt>
<rscale>  0 0.40647809E+04</rscale>
<asrwt>0</asrwt>
<pdfrwt beam="1">  1        2 0.29086669E+00 0.40647809E+04</pdfrwt>
<pdfrwt beam="2">  1       -2 0.33611940E+00 0.40647809E+04</pdfrwt>
<totfact> 0.11465609E-01</totfact>
</mgrwt>
</event>
<event>
 6    1  0.1773638E-005  0.2858722E+04  0.7818608E-02  0.8285266E-01
          1   -1    0    0  501    0  0.00000000000E+00  0.00000000000E+00  0.20203825394E+04  0.20203825394E+04  0.00000000000E+00 0. -1.
         -1   -1    0    0    0  501 -0.00000000000E+00 -0.00000000000E+00 -0.10112309459E+04  0.10112309459E+04  0.00000000000E+00 0.  1.
         23    2    1    2    0    0  0.12426163741E+04 -0.45312889177E+03  0.10762104886E+04  0.17072577395E+04  0.84135173587E+02 0.  0.
         11    1    3    3    0    0  0.43700315680E+03 -0.19499891281E+03  0.35987230796E+03  0.59875238044E+03  0.00000000000E+00 0.  1.
        -11    1    3    3    0    0  0.80561321735E+03 -0.25812997896E+03  0.71633818061E+03  0.11085053590E+04  0.00000000000E+00 0. -1.
         22    1    1    2    0    0 -0.12426163741E+04  0.45312889177E+03 -0.67058895073E+02  0.13243557457E+04  0.00000000000E+00 0.  1.
<mgrwt>
<rscale>  0 0.28587223E+04</rscale>
<asrwt>0</asrwt>
<pdfrwt beam="1">  1        1 0.31082808E+00 0.28587223E+04</pdfrwt>
<pdfrwt beam="2">  1       -1 0.15557399E+00 0.28587223E+04</pdfrwt>
<totfact> 0.78539430E-01</totfact>
</mgrwt>
</event>
<event>
 6    1  0.1773638E-005  0.2811606E+04  0.7818608E-02  0.8299674E-01
          1   -1    0    0  501    0  0.00000000000E+00  0.00000000000E+00  0.18535944117E+04  0.18535944117E+04  0.00000000000E+00 0. -1.
         -1   -1    0    0    0  501 -0.00000000000E+00 -0.00000000000E+00 -0.10661893360E+04  0.10661893360E+04  0.00000000000E+00 0.  1.
         23    2    1    2    0    0  0.12707800229E+04  0.52713480941E+03  0.68671470489E+03  0.15403304050E+04  0.91036787778E+02 0.  0.
         13    1    3    3    0    0  0.11513263853E+04  0.47174084091E+03  0.59041485418E+03  0.13772006268E+04  0.00000000000E+00 0. -1.
        -13    1    3    3    0    0  0.11945363768E+03  0.55393968500E+02  0.96299850710E+02  0.16312977824E+03  0.00000000000E+00 0.  1.
         22    1    1    2    0    0 -0.12707800229E+04 -0.52713480941E+03  0.10069037080E+03  0.13794533427E+04  0.00000000000E+00 0. -1.
<mgrwt>
<rscale>  0 0.28116064E+04</rscale>
<asrwt>0</asrwt>
<pdfrwt beam="1">  1        1 0.28516837E+00 0.28116064E+04</pdfrwt>
<pdfrwt beam="2">  1       -1 0.16402913E+00 0.28116064E+04</pdfrwt>
<totfact> 0.88291129E-01</totfact>
</mgrwt>
</event>
<event>
 6    1  0.2781214E-005  0.4445776E+04  0.7818608E-02  0.7920199E-01
         -2   -1    0    0    0  501 -0.00000000000E+00  0.00000000000E+00  0.15874454229E+04  0.15874454229E+04  0.00000000000E+00 0.  1.
          2   -1    0    0  501    0  0.00000000000E+00 -0.00000000000E+00 -0.31126938101E+04  0.31126938101E+04  0.00000000000E+00 0. -1.
         23    2    1    2    0    0 -0.98803204762E+03 -0.28701056926E+02  0.13408271484E+04  0.16684037477E+04  0.93394570364E+02 0.  0.
         11    1    3    3    0    0 -0.38081808728E+03 -0.25208643526E+02  0.59133654011E+03  0.70380167305E+03  0.00000000000E+00 0.  1.
        -11    1    3    3    0    0 -0.60721396033E+03 -0.34924133998E+01  0.74949060825E+03  0.96460207465E+03  0.00000000000E+00 0. -1.
         22    1    1    2    0    0  0.98803204762E+03  0.28701056926E+02 -0.28660755355E+04  0.30317354853E+04  0.00000000000E+00 0. -1.
<mgrwt>
<rscale>  0 0.44457762E+04</rscale>
<asrwt>0</asrwt>
<pdfrwt beam="1">  1        2 0.47887596E+00 0.44457762E+04</pdfrwt>
<pdfrwt beam="2">  1       -2 0.24422238E+00 0.44457762E+04</pdfrwt>
<totfact> 0.78341750E-02</totfact>
</mgrwt>
</event>
<event>
 6    1  0.1773638E-005  0.1842968E+04  0.7818608E-02  0.8683777E-01
          2   -1    0    0  501    0  0.00000000000E+00  0.00000000000E+00  0.19821732736E+04  0.19821732736E+04  0.00000000000E+00 0. -1.
         -2   -1    0    0    0  501 -0.00000000000E+00 -0.00000000000E+00 -0.42838483192E+03  0.42838483192E+03  0.00000000000E+00 0.  1.
         23    2    1    2    0    0 -0.16116046468E+03 -0.89166849012E+03  0.57610751659E+03  0.10775519604E+04  0.90404452523E+02 0.  0.
         11    1    3    3    0    0 -0.89875349645E+01 -0.24297317553E+03  0.13018996445E+03  0.27580095478E+03  0.00000000000E+00 0. -1.
        -11    1    3    3    0    0 -0.15217292971E+03 -0.64869531459E+03  0.44591755214E+03  0.80175100562E+03  0.00000000000E+00 0.  1.
         22    1    1    2    0    0  0.16116046468E+03  0.89166849012E+03  0.97768092510E+03  0.13330061451E+04  0.00000000000E+00 0.  1.
<mgrwt>
<rscale>  0 0.18429682E+04</rscale>
<asrwt>0</asrwt>
<pdfrwt beam="1">  1        2 0.30494973E+00 0.18429682E+04</pdfrwt>
<pdfrwt beam="2">  1       -2 0.65905360E-01 0.18429682E+04</pdfrwt>
<totfact> 0.13626918E+01</totfact>
</mgrwt>
</event>
<event>
 6    1  0.2138522E-005  0.1738501E+04  0.7818608E-02  0.8739705E-01
         -2   -1    0    0    0  501 -0.00000000000E+00  0.00000000000E+00  0.59130161723E+03  0.59130161723E+03  0.00000000000E+00 0.  1.
          2   -1    0    0  501    0  0.00000000000E+00 -0.00000000000E+00 -0.12778531796E+04  0.12778531796E+04  0.00000000000E+00 0. -1.
         23    2    1    2    0    0  0.57149890403E+03 -0.62324481578E+03 -0.55323721252E+03  0.10131070098E+04  0.72589960587E+02 0.  0.
         13    1    3    3    0    0  0.35268935342E+03 -0.36210636893E+03 -0.29174535422E+03  0.58363186526E+03  0.00000000000E+00 0.  1.
        -13    1    3    3    0    0  0.21880955060E+03 -0.26113844685E+03 -0.26149185830E+03  0.42947514458E+03  0.00000000000E+00 0. -1.
         22    1    1    2    0    0 -0.57149890403E+03  0.62324481578E+03 -0.13331434982E+03  0.85604778697E+03  0.00000000000E+00 0. -1.
<mgrwt>
<rscale>  0 0.17385013E+04</rscale>
<asrwt>0</asrwt>
<pdfrwt beam="1">  1        2 0.19659280E+00 0.17385013E+04</pdfrwt>
<pdfrwt beam="2">  1       -2 0.90969480E-01 0.17385013E+04</pdfrwt>
<totfact> 0.16660498E+01</totfact>
</mgrwt>
</event>
<event>
 6    1  0.1773638E-005  0.5708742E+03  0.7818608E-02  0.9967746E-01
          1   -1    0    0  501    0  0.00000000000E+00  0.00000000000E+00  0.21143936653E+03  0.21143936653E+03  0.00000000000E+00 0. -1.
         -1   -1    0    0    0  501 -0.00000000000E+00 -0.00000000000E+00 -0.38533197630E+03  0.38533197630E+03  0.00000000000E+00 0.  1.
         23    2    1    2    0    0  0.10833181953E+02  0.21420645583E+03 -0.27418393830E+03  0.36000117130E+03  0.91772805147E+02 0.  0.
         13    1    3    3    0    0  0.48357347638E+02  0.11686695479E+03 -0.17608853415E+03  0.21680288294E+03  0.00000000000E+00 0. -1.
        -13    1    3    3    0    0 -0.37524165685E+02  0.97339501042E+02 -0.98095404146E+02  0.14319828836E+03  0.00000000000E+00 0.  1.
         22    1    1    2    0    0 -0.10833181953E+02 -0.21420645583E+03  0.10029132853E+03  0.23677017153E+03  0.00000000000E+00 0. -1.
<mgrwt>
<rscale>  0 0.57087424E+03</rscale>
<asrwt>0</asrwt>
<pdfrwt beam="1">  1        1 0.32529133E-01 0.57087424E+03</pdfrwt>
<pdfrwt beam="2">  1       -1 0.59281842E-01 0.57087424E+03</pdfrwt>
<totfact> 0.40430748E+02</totfact>
</mgrwt>
</event>
<event>
 6    1  0.1773638E-005  0.2243821E+04  0.7818608E-02  0.8500407E-01
         -2   -1    0    0    0  501 -0.00000000000E+00  0.00000000000E+00  0.56724880070E+03  0.56724880070E+03  0.00000000000E+00 0.  1.
          2   -1    0    0  501    0  0.00000000000E+00 -0.00000000000E+00 -0.22189264271E+04  0.22189264271E+04  0.00000000000E+00 0. -1.
         23    2    1    2    0    0 -0.33991401278E+03 -0.24418139371E+03 -0.21172608795E+04  0.21601290197E+04  0.90540933257E+02 0.  0.
         13    1    3    3    0    0 -0.20429833161E+03 -0.17057081836E+03 -0.15277077553E+04  0.15507169948E+04  0.00000000000E+00 0. -1.
        -13    1    3    3    0    0 -0.13561568117E+03 -0.73610575352E+02 -0.58955312421E+03  0.60941202487E+03  0.00000000000E+00 0.  1.
         22    1    1    2    0    0  0.33991401278E+03  0.24418139371E+03  0.46558325312E+03  0.62604620812E+03  0.00000000000E+00 0.  1.
<mgrwt>
<rscale>  0 0.22438212E+04</rscale>
<asrwt>0</asrwt>
<pdfrwt beam="1">  1        2 0.34137330E+00 0.22438212E+04</pdfrwt>
<pdfrwt beam="2">  1       -2 0.87269045E-01 0.22438212E+04</pdfrwt>
<totfact> 0.52054438E+00</totfact>
</mgrwt>
</event>
<event>
 6    1  0.1773638E-005  0.3588045E+04  0.7818608E-02  0.8093236E-01
          2   -1    0    0  501    0  0.00000000000E+00  0.00000000000E+00  0.12798198989E+04  0.12798198989E+04  0.00000000000E+00 0. -1.
         -2   -1    0    0    0  501 -0.00000000000E+00 -0.00000000000E+00 -0.25148204295E+04  0.25148204295E+04  0.00000000000E+00 0.  1.
         23    2    1    2    0    0  0.84141656243E+02 -0.99015567367E+03  0.96023686217E+03  0.13849608296E+04  0.92593690550E+02 0.  0.
         13    1    3    3    0    0  0.50293222507E+02 -0.71138271514E+03  0.63108587236E+03  0.95229415305E+03  0.00000000000E+00 0. -1.
        -13    1    3    3    0    0  0.33848433736E+02 -0.27877295853E+03  0.32915098981E+03  0.43266667652E+03  0.00000000000E+00 0.  1.
         22    1    1    2    0    0 -0.84141656243E+02  0.99015567367E+03 -0.21952373928E+04  0.24096794988E+04  0.00000000000E+00 0.  1.
<mgrwt>
<rscale>  0 0.35880453E+04</rscale>
<asrwt>0</asrwt>
<pdfrwt beam="1">  1        2 0.19689537E+00 0.35880453E+04</pdfrwt>
<pdfrwt beam="2">  1       -2 0.38689545E+00 0.35880453E+04</pdfrwt>
<totfact> 0.12511757E-01</totfact>
</mgrwt>
</event>
<event>
 6    1  0.1773638E-005  0.1808529E+04  0.7818608E-02  0.8701777E-01
          3   -1    0    0  501    0  0.00000000000E+00  0.00000000000E+00  0.50556308605E+03  0.50556308605E+03  0.00000000000E+00 0. -1.
         -3   -1    0    0    0  501 -0.00000000000E+00 -0.00000000000E+00 -0.16173938046E+04  0.16173938046E+04  0.00000000000E+00 0.  1.
         23    2    1    2    0    0 -0.21895847807E+03 -0.87472471321E+03 -0.52185065439E+03  0.10453843339E+04  0.86105522211E+02 0.  0.
         11    1    3    3    0    0 -0.10513522915E+03 -0.56414632574E+03 -0.30520002022E+03  0.64997041901E+03  0.00000000000E+00 0. -1.
        -11    1    3    3    0    0 -0.11382324893E+03 -0.31057838748E+03 -0.21665063417E+03  0.39541391484E+03  0.00000000000E+00 0.  1.
         22    1    1    2    0    0  0.21895847807E+03  0.87472471321E+03 -0.58998006414E+03  0.10775725568E+04  0.00000000000E+00 0.  1.
<mgrwt>
<rscale>  0 0.18085294E+04</rscale>
<asrwt>0</asrwt>
<pdfrwt beam="1">  1        3 0.77778935E-01 0.18085294E+04</pdfrwt>
<pdfrwt beam="2">  1       -3 0.24882982E+00 0.18085294E+04</pdfrwt>
<totfact> 0.28409943E-01</totfact>
</mgrwt>
</event>
<event>
 6    1  0.1773638E-005  0.3640041E+04  0.7818608E-02  0.8081381E-01
         -2   -1    0    0    0  501 -0.00000000000E+00  0.00000000000E+00  0.28786033603E+04  0.28786033603E+04  0.00000000000E+00 0. -1.
          2   -1    0    0  501    0  0.00000000000E+00 -0.00000000000E+00 -0.11507228493E+04  0.11507228493E+04  0.00000000000E+00 0.  1.
         23    2    1    2    0    0  0.36016528337E+03 -0.10284024423E+04 -0.74767009682E+03  0.13245745709E+04  0.90313928037E+02 0.  0.
         11    1    3    3    0    0  0.18538854732E+03 -0.56195448743E+03 -0.35282623522E+03  0.68894710369E+03  0.00000000000E+00 0. -1.
        -11    1    3    3    0    0  0.17477673605E+03 -0.46644795485E+03 -0.39484386160E+03  0.63562746723E+03  0.00000000000E+00 0.  1.
         22    1    1    2    0    0 -0.36016528337E+03  0.10284024423E+04  0.24755506079E+04  0.27047516387E+04  0.00000000000E+00 0. -1.
<mgrwt>
<rscale>  0 0.36400410E+04</rscale>
<asrwt>0</asrwt>
<pdfrwt beam="1">  1        2 0.17703429E+00 0.36400410E+04</pdfrwt>
<pdfrwt beam="2">  1       -2 0.44286205E+00 0.36400410E+04</pdfrwt>
<totfact> 0.63703118E-02</totfact>
</mgrwt>
</event>
<event>
 6    1  0.1773638E-005  0.6034712E+03  0.7818608E-02  0.9898230E-01
         -1   -1    0    0    0  501 -0.00000000000E+00  0.00000000000E+00  0.19590681865E+03  0.19590681865E+03  0.00000000000E+00 0.  1.
          1   -1    0    0  501    0  0.00000000000E+00 -0.00000000000E+00 -0.46473308582E+03  0.46473308582E+03  0.00000000000E+00 0. -1.
         23    2    1    2    0    0 -0.17959103558E+03  0.16565154070E+03  0.43751956302E+02  0.26390508271E+03  0.89656488901E+02 0.  0.
         11    1    3    3    0    0 -0.67960161217E+02  0.18915076439E+02 -0.11405180367E+02  0.71459371454E+02  0.00000000000E+00 0.  1.
        -11    1    3    3    0    0 -0.11163087437E+03  0.14673646426E+03  0.55157136669E+02  0.19244571126E+03  0.00000000000E+00 0. -1.
         22    1    1    2    0    0  0.17959103558E+03 -0.16565154070E+03 -0.31257822347E+03  0.39673482175E+03  0.00000000000E+00 0. -1.
<mgrwt>
<rscale>  0 0.60347123E+03</rscale>
<asrwt>0</asrwt>
<pdfrwt beam="1">  1        1 0.71497397E-01 0.60347123E+03</pdfrwt>
<pdfrwt beam="2">  1       -1 0.30139511E-01 0.60347123E+03</pdfrwt>
<totfact> 0.50122552E+02</totfact>
</mgrwt>
</event>
<event>
 6    1  0.1773638E-005  0.1295258E+04  0.7818608E-02  0.9033334E-01
         -2   -1    0    0    0  501 -0.00000000000E+00  0.00000000000E+00  0.39012648856E+03  0.39012648856E+03  0.00000000000E+00 0.  1.
          2   -1    0    0  501    0  0.00000000000E+00 -0.00000000000E+00 -0.10750953373E+04  0.10750953373E+04  0.00000000000E+00 0. -1.
         23    2    1    2    0    0 -0.54361948648E+03 -0.67774551056E+02 -0.72819605560E+03  0.91569100123E+03  0.90027654040E+02 0.  0.
         11    1    3    3    0    0 -0.13721169211E+03  0.22009650229E+02 -0.18360430580E+03  0.23026509563E+03  0.00000000000E+00 0. -1.
        -11    1    3    3    0    0 -0.40640779437E+03 -0.89784201285E+02 -0.54459174980E+03  0.68542590561E+03  0.00000000000E+00 0.  1.
         22    1    1    2    0    0  0.54361948648E+03  0.67774551056E+02  0.43227206827E+02  0.54953082467E+03  0.00000000000E+00 0.  1.
<mgrwt>
<rscale>  0 0.12952578E+04</rscale>
<asrwt>0</asrwt>
<pdfrwt beam="1">  1        2 0.16539928E+00 0.12952578E+04</pdfrwt>
<pdfrwt beam="2">  1       -2 0.60019461E-01 0.12952578E+04</pdfrwt>
<totfact> 0.57293631E+01</totfact>
</mgrwt>
</event>
<event>
 6    1  0.1773638E-005  0.3794962E+04  0.7818608E-02  0.8047237E-01
         -2   -1    0    0    0  501 -0.00000000000E+00  0.00000000000E+00  0.24142228038E+04  0.24142228038E+04  0.00000000000E+00 0.  1.
          2   -1    0    0  501    0  0.00000000000E+00 -0.00000000000E+00 -0.14913429400E+04  0.14913429400E+04  0.00000000000E+00 0. -1.
         23    2    1    2    0    0 -0.98352447785E+03  0.92683864691E+03 -0.90733519562E+03  0.16304750996E+04  0.94029874446E+02 0.  0.
         11    1    3    3    0    0 -0.39874096746E+03  0.32748530677E+03 -0.38126271548E+03  0.64156234575E+03  0.00000000000E+00 0.  1.
        -11    1    3    3    0    0 -0.58478351039E+03  0.59935334014E+03 -0.52607248015E+03  0.98891275385E+03  0.00000000000E+00 0. -1.
         22    1    1    2    0    0  0.98352447785E+03 -0.92683864691E+03  0.18302150594E+04  0.22750906443E+04  0.00000000000E+00 0.  1.
<mgrwt>
<rscale>  0 0.37949620E+04</rscale>
<asrwt>0</asrwt>
<pdfrwt beam="1">  1        2 0.22943738E+00 0.37949620E+04</pdfrwt>
<pdfrwt beam="2">  1       -2 0.37141889E+00 0.37949620E+04</pdfrwt>
<totfact> 0.11701839E-01</totfact>
</mgrwt>
</event>
<event>
 6    1  0.1773638E-005  0.2429565E+04  0.7818608E-02  0.8428517E-01
         -2   -1    0    0    0  501 -0.00000000000E+00  0.00000000000E+00  0.91543384853E+03  0.91543384853E+03  0.00000000000E+00 0.  1.
          2   -1    0    0  501    0  0.00000000000E+00 -0.00000000000E+00 -0.16120185014E+04  0.16120185014E+04  0.00000000000E+00 0. -1.
         23    2    1    2    0    0  0.10857246589E+03 -0.42267593009E+03 -0.15262447679E+04  0.15900203105E+04  0.91096509374E+02 0.  0.
         13    1    3    3    0    0  0.19300628911E+02 -0.19422954543E+03 -0.55641647669E+03  0.58965831303E+03  0.00000000000E+00 0. -1.
        -13    1    3    3    0    0  0.89271836974E+02 -0.22844638466E+03 -0.96982829116E+03  0.10003619974E+04  0.00000000000E+00 0.  1.
         22    1    1    2    0    0 -0.10857246589E+03  0.42267593009E+03  0.82966011499E+03  0.93743203947E+03  0.00000000000E+00 0.  1.
<mgrwt>
<rscale>  0 0.24295648E+04</rscale>
<asrwt>0</asrwt>
<pdfrwt beam="1">  1        2 0.24800284E+00 0.24295648E+04</pdfrwt>
<pdfrwt beam="2">  1       -2 0.14083598E+00 0.24295648E+04</pdfrwt>
<totfact> 0.34839396E+00</totfact>
</mgrwt>
</event>
<event>
 6    1  0.1773638E-005  0.8573746E+03  0.7818608E-02  0.9480492E-01
          2   -1    0    0  501    0  0.00000000000E+00  0.00000000000E+00  0.34760813549E+03  0.34760813549E+03  0.00000000000E+00 0.  1.
         -2   -1    0    0    0  501 -0.00000000000E+00 -0.00000000000E+00 -0.52867813847E+03  0.52867813847E+03  0.00000000000E+00 0. -1.
         23    2    1    2    0    0 -0.11328324739E+03 -0.20575729134E+03 -0.45227631477E+03  0.51750776201E+03  0.89951441111E+02 0.  0.
         13    1    3    3    0    0  0.96185528894E+01 -0.47905879137E+02 -0.12125873059E+03  0.13073319991E+03  0.00000000000E+00 0. -1.
        -13    1    3    3    0    0 -0.12290180028E+03 -0.15785141220E+03 -0.33101758418E+03  0.38677456210E+03  0.00000000000E+00 0.  1.
         22    1    1    2    0    0  0.11328324739E+03  0.20575729134E+03  0.27120631179E+03  0.35877851195E+03  0.00000000000E+00 0.  1.
<mgrwt>
<rscale>  0 0.85737465E+03</rscale>
<asrwt>0</asrwt>
<pdfrwt beam="1">  1        2 0.53478175E-01 0.85737465E+03</pdfrwt>
<pdfrwt beam="2">  1       -2 0.81335098E-01 0.85737465E+03</pdfrwt>
<totfact> 0.12470604E+02</totfact>
</mgrwt>
</event>
<event>
 6    1  0.1773638E-005  0.2945450E+04  0.7818608E-02  0.8259482E-01
          2   -1    0    0  501    0  0.00000000000E+00  0.00000000000E+00  0.22919601737E+04  0.22919601737E+04  0.00000000000E+00 0.  1.
         -2   -1    0    0    0  501 -0.00000000000E+00 -0.00000000000E+00 -0.94631606934E+03  0.94631606934E+03  0.00000000000E+00 0. -1.
         23    2    1    2    0    0  0.69844849983E+03  0.11802813515E+04  0.87703673822E+02  0.13772796008E+04  0.91174496462E+02 0.  0.
         13    1    3    3    0    0  0.50139301638E+03  0.77484280589E+03  0.37157140555E+02  0.92366497379E+03  0.00000000000E+00 0.  1.
        -13    1    3    3    0    0  0.19705548344E+03  0.40543854561E+03  0.50546533267E+02  0.45361462702E+03  0.00000000000E+00 0. -1.
         22    1    1    2    0    0 -0.69844849983E+03 -0.11802813515E+04  0.12579404305E+04  0.18609966422E+04  0.00000000000E+00 0. -1.
<mgrwt>
<rscale>  0 0.29454499E+04</rscale>
<asrwt>0</asrwt>
<pdfrwt beam="1">  1        2 0.35260926E+00 0.29454499E+04</pdfrwt>
<pdfrwt beam="2">  1       -2 0.14558709E+00 0.29454499E+04</pdfrwt>
<totfact> 0.12771112E+00</totfact>
</mgrwt>
</event>
<event>
 6    1  0.1773638E-005  0.1564865E+04  0.7818608E-02  0.8842428E-01
         -2   -1    0    0    0  501 -0.00000000000E+00  0.00000000000E+00  0.47550151602E+03  0.47550151602E+03  0.00000000000E+00 0. -1.
          2   -1    0    0  501    0  0.00000000000E+00 -0.00000000000E+00 -0.12874840933E+04  0.12874840933E+04  0.00000000000E+00 0.  1.
         23    2    1    2    0    0  0.55778974960E+03 -0.53818334301E+03 -0.50328458072E+03  0.92868040825E+03  0.91548981588E+02 0.  0.
         11    1    3    3    0    0  0.41718876257E+03 -0.34599169891E+03 -0.36251779992E+03  0.65205511623E+03  0.00000000000E+00 0.  1.
        -11    1    3    3    0    0  0.14060098702E+03 -0.19219164409E+03 -0.14076678079E+03  0.27662529202E+03  0.00000000000E+00 0. -1.
         22    1    1    2    0    0 -0.55778974960E+03  0.53818334301E+03 -0.30869799653E+03  0.83430520105E+03  0.00000000000E+00 0.  1.
<mgrwt>
<rscale>  0 0.15648650E+04</rscale>
<asrwt>0</asrwt>
<pdfrwt beam="1">  1        2 0.19807448E+00 0.15648650E+04</pdfrwt>
<pdfrwt beam="2">  1       -2 0.73154080E-01 0.15648650E+04</pdfrwt>
<totfact> 0.27277584E+01</totfact>
</mgrwt>
</event>
<event>
 6    1  0.1773638E-005  0.4670514E+04  0.7818608E-02  0.7881446E-01
          1   -1    0    0  501    0  0.00000000000E+00  0.00000000000E+00  0.24116905223E+04  0.24116905223E+04  0.00000000000E+00 0. -1.
         -1   -1    0    0    0  501 -0.00000000000E+00 -0.00000000000E+00 -0.22612455743E+04  0.22612455743E+04  0.00000000000E+00 0.  1.
         23    2    1    2    0    0 -0.22889647551E+04 -0.41102741845E+03  0.27796259642E+03  0.23438667676E+04  0.90249821273E+02 0.  0.
         11    1    3    3    0    0 -0.20393258762E+04 -0.34651717890E+03  0.26789157205E+03  0.20858307887E+04  0.00000000000E+00 0.  1.
        -11    1    3    3    0    0 -0.24963887892E+03 -0.64510239552E+02  0.10071024371E+02  0.25803597890E+03  0.00000000000E+00 0. -1.
         22    1    1    2    0    0  0.22889647551E+04  0.41102741845E+03 -0.12751764846E+03  0.23290693290E+04  0.00000000000E+00 0.  1.
<mgrwt>
<rscale>  0 0.46705137E+04</rscale>
<asrwt>0</asrwt>
<pdfrwt beam="1">  1        1 0.37102931E+00 0.46705137E+04</pdfrwt>
<pdfrwt beam="2">  1       -1 0.34788394E+00 0.46705137E+04</pdfrwt>
<totfact> 0.18547695E-02</totfact>
</mgrwt>
</event>
<event>
 6    1  0.1773638E-005  0.1448533E+04  0.7818608E-02  0.8919418E-01
         -1   -1    0    0    0  501 -0.00000000000E+00  0.00000000000E+00  0.33920608420E+03  0.33920608420E+03  0.00000000000E+00 0.  1.
          1   -1    0    0  501    0  0.00000000000E+00 -0.00000000000E+00 -0.15464398400E+04  0.15464398400E+04  0.00000000000E+00 0. -1.
         23    2    1    2    0    0  0.33509346741E+03 -0.59382630979E+03 -0.29929138089E+03  0.75018272609E+03  0.91002602903E+02 0.  0.
         11    1    3    3    0    0  0.43044322418E+02 -0.76729312174E+02 -0.69372333656E+01  0.88251494298E+02  0.00000000000E+00 0.  1.
        -11    1    3    3    0    0  0.29204914500E+03 -0.51709699762E+03 -0.29235414753E+03  0.66193123179E+03  0.00000000000E+00 0. -1.
         22    1    1    2    0    0 -0.33509346741E+03  0.59382630979E+03 -0.90794237492E+03  0.11354631981E+04  0.00000000000E+00 0. -1.
<mgrwt>
<rscale>  0 0.14485328E+04</rscale>
<asrwt>0</asrwt>
<pdfrwt beam="1">  1        1 0.23791383E+00 0.14485328E+04</pdfrwt>
<pdfrwt beam="2">  1       -1 0.52185551E-01 0.14485328E+04</pdfrwt>
<totfact> 0.21821383E+01</totfact>
</mgrwt>
</event>
<event>
 6    1  0.1773638E-005  0.3212190E+04  0.7818608E-02  0.8185605E-01
         -1   -1    0    0    0  501 -0.00000000000E+00  0.00000000000E+00  0.10253158334E+04  0.10253158334E+04  0.00000000000E+00 0.  1.
          1   -1    0    0  501    0  0.00000000000E+00 -0.00000000000E+00 -0.25158501982E+04  0.25158501982E+04  0.00000000000E+00 0. -1.
         23    2    1    2    0    0 -0.15988544555E+04 -0.53598044346E+02 -0.88634430172E+03  0.18311210168E+04  0.90496610598E+02 0.  0.
         11    1    3    3    0    0 -0.12811925474E+04 -0.91781556418E+01 -0.69384581741E+03  0.14570382975E+04  0.00000000000E+00 0.  1.
        -11    1    3    3    0    0 -0.31766190809E+03 -0.44419888704E+02 -0.19249848432E+03  0.37408271923E+03  0.00000000000E+00 0. -1.
         22    1    1    2    0    0  0.15988544555E+04  0.53598044346E+02 -0.60419006303E+03  0.17100450148E+04  0.00000000000E+00 0.  1.
<mgrwt>
<rscale>  0 0.32121899E+04</rscale>
<asrwt>0</asrwt>
<pdfrwt beam="1">  1        1 0.38705387E+00 0.32121899E+04</pdfrwt>
<pdfrwt beam="2">  1       -1 0.15774090E+00 0.32121899E+04</pdfrwt>
<totfact> 0.33552707E-01</totfact>
</mgrwt>
</event>
<event>
 6    1  0.1773638E-005  0.1991857E+04  0.7818608E-02  0.8610437E-01
         -1   -1    0    0    0  501 -0.00000000000E+00  0.00000000000E+00  0.92104388817E+03  0.92104388817E+03  0.00000000000E+00 0.  1.
          1   -1    0    0  501    0  0.00000000000E+00 -0.00000000000E+00 -0.10769020025E+04  0.10769020025E+04  0.00000000000E+00 0. -1.
         23    2    1    2    0    0 -0.63185887342E+03 -0.65753830459E+03 -0.47494090961E+03  0.10318112789E+04  0.86390912312E+02 0.  0.
         13    1    3    3    0    0 -0.40695457175E+03 -0.42330960423E+03 -0.35182892475E+03  0.68453388287E+03  0.00000000000E+00 0.  1.
        -13    1    3    3    0    0 -0.22490430167E+03 -0.23422870036E+03 -0.12311198485E+03  0.34727739603E+03  0.00000000000E+00 0. -1.
         22    1    1    2    0    0  0.63185887342E+03  0.65753830459E+03  0.31908279523E+03  0.96613461181E+03  0.00000000000E+00 0.  1.
<mgrwt>
<rscale>  0 0.19918574E+04</rscale>
<asrwt>0</asrwt>
<pdfrwt beam="1">  1        1 0.16567723E+00 0.19918574E+04</pdfrwt>
<pdfrwt beam="2">  1       -1 0.14169906E+00 0.19918574E+04</pdfrwt>
<totfact> 0.49763991E+00</totfact>
</mgrwt>
</event>
<event>
 6    1  0.1773638E-005  0.8049788E+03  0.7818608E-02  0.9552838E-01
         -2   -1    0    0    0  501 -0.00000000000E+00  0.00000000000E+00  0.55726132266E+03  0.55726132266E+03  0.00000000000E+00 0.  1.
          2   -1    0    0  501    0  0.00000000000E+00 -0.00000000000E+00 -0.29070334007E+03  0.29070334007E+03  0.00000000000E+00 0. -1.
         23    2    1    2    0    0  0.37358663285E+03 -0.51815566169E+01  0.27698691893E+03  0.47419657489E+03  0.92449000023E+02 0.  0.
         13    1    3    3    0    0  0.12321947743E+03 -0.35685039883E+02  0.12820970736E+03  0.18136755705E+03  0.00000000000E+00 0.  1.
        -13    1    3    3    0    0  0.25036715542E+03  0.30503483266E+02  0.14877721157E+03  0.29282901784E+03  0.00000000000E+00 0. -1.
         22    1    1    2    0    0 -0.37358663285E+03  0.51815566169E+01 -0.10428936343E+02  0.37376808784E+03  0.00000000000E+00 0. -1.
<mgrwt>
<rscale>  0 0.80497883E+03</rscale>
<asrwt>0</asrwt>
<pdfrwt beam="1">  1        2 0.44723591E-01 0.80497883E+03</pdfrwt>
<pdfrwt beam="2">  1       -2 0.85732511E-01 0.80497883E+03</pdfrwt>
<totfact> 0.13534401E+02</totfact>
</mgrwt>
</event>
<event>
 6    1  0.1773638E-005  0.5918972E+03  0.7818608E-02  0.9922361E-01
          2   -1    0    0  501    0  0.00000000000E+00  0.00000000000E+00  0.26739912959E+04  0.26739912959E+04  0.00000000000E+00 0. -1.
         -2   -1    0    0    0  501 -0.00000000000E+00 -0.00000000000E+00 -0.32754624467E+02  0.32754624467E+02  0.00000000000E+00 0.  1.
         23    2    1    2    0    0 -0.47129441374E+02 -0.22630205841E+03  0.21465110976E+04  0.21606807234E+04  0.87163585773E+02 0.  0.
         13    1    3    3    0    0 -0.62045877823E+02 -0.10217333682E+03  0.89681475969E+03  0.90474625996E+03  0.00000000000E+00 0. -1.
        -13    1    3    3    0    0  0.14916436449E+02 -0.12412872160E+03  0.12496963379E+04  0.12559344635E+04  0.00000000000E+00 0.  1.
         22    1    1    2    0    0  0.47129441374E+02  0.22630205841E+03  0.49472557389E+03  0.54606519697E+03  0.00000000000E+00 0.  1.
<mgrwt>
<rscale>  0 0.59189722E+03</rscale>
<asrwt>0</asrwt>
<pdfrwt beam="1">  1        2 0.41138310E+00 0.59189722E+03</pdfrwt>
<pdfrwt beam="2">  1       -2 0.50391751E-02 0.59189722E+03</pdfrwt>
<totfact> 0.59435554E+02</totfact>
</mgrwt>
</event>
<event>
 6    1  0.1773638E-005  0.6816675E+03  0.7818608E-02  0.9749107E-01
          2   -1    0    0  501    0  0.00000000000E+00  0.00000000000E+00  0.12300308522E+04  0.12300308522E+04  0.00000000000E+00 0. -1.
         -2   -1    0    0    0  501 -0.00000000000E+00 -0.00000000000E+00 -0.94442865002E+02  0.94442865002E+02  0.00000000000E+00 0.  1.
         23    2    1    2    0    0 -0.39565237788E+02  0.23896966810E+03  0.10268933288E+04  0.10589808942E+04  0.90877473237E+02 0.  0.
         11    1    3    3    0    0  0.95802254166E+01 -0.78372308971E+00  0.95039284773E+02  0.95524136170E+02  0.00000000000E+00 0. -1.
        -11    1    3    3    0    0 -0.49145463204E+02  0.23975339119E+03  0.93185404407E+03  0.96345675803E+03  0.00000000000E+00 0.  1.
         22    1    1    2    0    0  0.39565237788E+02 -0.23896966810E+03  0.10869465836E+03  0.26549282300E+03  0.00000000000E+00 0.  1.
<mgrwt>
<rscale>  0 0.68166748E+03</rscale>
<asrwt>0</asrwt>
<pdfrwt beam="1">  1        2 0.18923550E+00 0.68166748E+03</pdfrwt>
<pdfrwt beam="2">  1       -2 0.14529672E-01 0.68166748E+03</pdfrwt>
<totfact> 0.67908871E+02</totfact>
</mgrwt>
</event>
<event>
 6    1  0.1773638E-005  0.4467879E+04  0.7818608E-02  0.7916284E-01
         -1   -1    0    0    0  501 -0.00000000000E+00  0.00000000000E+00  0.18755217544E+04  0.18755217544E+04  0.00000000000E+00 0.  1.
          1   -1    0    0  501    0  0.00000000000E+00 -0.00000000000E+00 -0.26608522468E+04  0.26608522468E+04  0.00000000000E+00 0. -1.
         23    2    1    2    0    0  0.19429483047E+04 -0.25026536063E+03  0.69536223647E+03  0.20807413286E+04  0.90966868711E+02 0.  0.
         13    1    3    3    0    0  0.77879950057E+03 -0.10230077654E+03  0.23170521461E+03  0.81895141336E+03  0.00000000000E+00 0. -1.
        -13    1    3    3    0    0  0.11641488042E+04 -0.14796458409E+03  0.46365702185E+03  0.12617899153E+04  0.00000000000E+00 0.  1.
         22    1    1    2    0    0 -0.19429483047E+04  0.25026536063E+03 -0.14806927289E+04  0.24556326726E+04  0.00000000000E+00 0.  1.
<mgrwt>
<rscale>  0 0.44678793E+04</rscale>
<asrwt>0</asrwt>
<pdfrwt beam="1">  1        1 0.40936189E+00 0.44678793E+04</pdfrwt>
<pdfrwt beam="2">  1       -1 0.28854181E+00 0.44678793E+04</pdfrwt>
<totfact> 0.30873181E-02</totfact>
</mgrwt>
</event>
<event>
 6    1  0.1773638E-005  0.9060603E+03  0.7818608E-02  0.9418037E-01
          2   -1    0    0  501    0  0.00000000000E+00  0.00000000000E+00  0.19819780342E+04  0.19819780342E+04  0.00000000000E+00 0. -1.
         -2   -1    0    0    0  501 -0.00000000000E+00 -0.00000000000E+00 -0.10355125167E+03  0.10355125167E+03  0.00000000000E+00 0.  1.
         23    2    1    2    0    0 -0.33413035581E+03 -0.98209686497E+01  0.26214787485E+03  0.43504540121E+03  0.93826684490E+02 0.  0.
         13    1    3    3    0    0 -0.29843629319E+03  0.95324584496E+01  0.25729724148E+03  0.39415347180E+03  0.00000000000E+00 0. -1.
        -13    1    3    3    0    0 -0.35694062620E+02 -0.19353427099E+02  0.48506333759E+01  0.40891929411E+02  0.00000000000E+00 0.  1.
         22    1    1    2    0    0  0.33413035581E+03  0.98209686497E+01  0.16162789077E+04  0.16504838847E+04  0.00000000000E+00 0. -1.
<mgrwt>
<rscale>  0 0.90606028E+03</rscale>
<asrwt>0</asrwt>
<pdfrwt beam="1">  1        2 0.30491967E+00 0.90606028E+03</pdfrwt>
<pdfrwt beam="2">  1       -2 0.15930963E-01 0.90606028E+03</pdfrwt>
<totfact> 0.21861019E+02</totfact>
</mgrwt>
</event>
<event>
 6    1  0.1773638E-005  0.1782707E+04  0.7818608E-02  0.8715550E-01
         -2   -1    0    0    0  501 -0.00000000000E+00  0.00000000000E+00  0.30104545296E+03  0.30104545296E+03  0.00000000000E+00 0.  1.
          2   -1    0    0  501    0  0.00000000000E+00 -0.00000000000E+00 -0.26391722489E+04  0.26391722489E+04  0.00000000000E+00 0. -1.
         23    2    1    2    0    0  0.32360280675E+02  0.57136958867E+03 -0.49802137084E+02  0.58141712975E+03  0.89750940327E+02 0.  0.
         13    1    3    3    0    0  0.57019960474E+02  0.25997420034E+03 -0.37718561409E+02  0.26881322626E+03  0.00000000000E+00 0. -1.
        -13    1    3    3    0    0 -0.24659679799E+02  0.31139538833E+03 -0.12083575675E+02  0.31260390349E+03  0.00000000000E+00 0.  1.
         22    1    1    2    0    0 -0.32360280675E+02 -0.57136958867E+03 -0.22883246588E+04  0.23588005721E+04  0.00000000000E+00 0. -1.
<mgrwt>
<rscale>  0 0.17827067E+04</rscale>
<asrwt>0</asrwt>
<pdfrwt beam="1">  1        2 0.40602651E+00 0.17827067E+04</pdfrwt>
<pdfrwt beam="2">  1       -2 0.46314683E-01 0.17827067E+04</pdfrwt>
<totfact> 0.12080582E+01</totfact>
</mgrwt>
</event>
<event>
 6    1  0.1773638E-005  0.1474531E+04  0.7818608E-02  0.8901568E-01
         -2   -1    0    0    0  501 -0.00000000000E+00  0.00000000000E+00  0.73839722591E+03  0.73839722591E+03  0.00000000000E+00 0.  1.
          2   -1    0    0  501    0  0.00000000000E+00 -0.00000000000E+00 -0.73613569560E+03  0.73613569560E+03  0.00000000000E+00 0. -1.
         23    2    1    2    0    0  0.15574865853E+03 -0.50115760577E+03  0.51498561532E+03  0.74084185722E+03  0.90663570239E+02 0.  0.
         13    1    3    3    0    0  0.72292952203E+02 -0.19309266523E+03  0.26302687716E+03  0.33420680187E+03  0.00000000000E+00 0. -1.
        -13    1    3    3    0    0  0.83455706331E+02 -0.30806494054E+03  0.25195873815E+03  0.40663505535E+03  0.00000000000E+00 0.  1.
         22    1    1    2    0    0 -0.15574865853E+03  0.50115760577E+03 -0.51272408501E+03  0.73369106428E+03  0.00000000000E+00 0. -1.
<mgrwt>
<rscale>  0 0.14745312E+04</rscale>
<asrwt>0</asrwt>
<pdfrwt beam="1">  1        2 0.11325165E+00 0.14745312E+04</pdfrwt>
<pdfrwt beam="2">  1       -2 0.11359957E+00 0.14745312E+04</pdfrwt>
<totfact> 0.22594372E+01</totfact>
</mgrwt>
</event>
<event>
 6    1  0.1773638E-005  0.1498099E+04  0.7818608E-02  0.8885718E-01
         -1   -1    0    0    0  501 -0.00000000000E+00  0.00000000000E+00  0.52766948239E+03  0.52766948239E+03  0.00000000000E+00 0.  1.
          1   -1    0    0  501    0  0.00000000000E+00 -0.00000000000E+00 -0.10633080740E+04  0.10633080740E+04  0.00000000000E+00 0. -1.
         23    2    1    2    0    0  0.31205819996E+03  0.67919218088E+03 -0.29378704176E+03  0.80537300519E+03  0.60270331446E+02 0.  0.
         13    1    3    3    0    0  0.12005503484E+03  0.31644549402E+03 -0.11216431153E+03  0.35655545832E+03  0.00000000000E+00 0.  1.
        -13    1    3    3    0    0  0.19200316512E+03  0.36274668686E+03 -0.18162273023E+03  0.44881754687E+03  0.00000000000E+00 0. -1.
         22    1    1    2    0    0 -0.31205819996E+03 -0.67919218088E+03 -0.24185154987E+03  0.78560455123E+03  0.00000000000E+00 0. -1.
<mgrwt>
<rscale>  0 0.14980991E+04</rscale>
<asrwt>0</asrwt>
<pdfrwt beam="1">  1        1 0.16358586E+00 0.14980991E+04</pdfrwt>
<pdfrwt beam="2">  1       -1 0.81179922E-01 0.14980991E+04</pdfrwt>
<totfact> 0.19776890E+01</totfact>
</mgrwt>
</event>
<event>
 6    1  0.1773638E-005  0.3619783E+04  0.7818608E-02  0.8085975E-01
         -2   -1    0    0    0  501 -0.00000000000E+00  0.00000000000E+00  0.10732727564E+04  0.10732727564E+04  0.00000000000E+00 0.  1.
          2   -1    0    0  501    0  0.00000000000E+00 -0.00000000000E+00 -0.30520727975E+04  0.30520727975E+04  0.00000000000E+00 0. -1.
         23    2    1    2    0    0  0.85542115462E+03  0.77844911032E+03 -0.25748204056E+04  0.28242042687E+04  0.93280551569E+02 0.  0.
         11    1    3    3    0    0  0.57663844131E+03  0.46552328970E+03 -0.16674303798E+04  0.18247048793E+04  0.00000000000E+00 0. -1.
        -11    1    3    3    0    0  0.27878271332E+03  0.31292582062E+03 -0.90739002582E+03  0.99949938940E+03  0.00000000000E+00 0.  1.
         22    1    1    2    0    0 -0.85542115462E+03 -0.77844911032E+03  0.59602036444E+03  0.13011412852E+04  0.00000000000E+00 0.  1.
<mgrwt>
<rscale>  0 0.36197826E+04</rscale>
<asrwt>0</asrwt>
<pdfrwt beam="1">  1        2 0.46954965E+00 0.36197826E+04</pdfrwt>
<pdfrwt beam="2">  1       -2 0.16511889E+00 0.36197826E+04</pdfrwt>
<totfact> 0.30329409E-01</totfact>
</mgrwt>
</event>
<event>
 6    1  0.1773638E-005  0.1697675E+04  0.7818608E-02  0.8762692E-01
          2   -1    0    0  501    0  0.00000000000E+00  0.00000000000E+00  0.11633710183E+04  0.11633710183E+04  0.00000000000E+00 0. -1.
         -2   -1    0    0    0  501 -0.00000000000E+00 -0.00000000000E+00 -0.61934244769E+03  0.61934244769E+03  0.00000000000E+00 0.  1.
         23    2    1    2    0    0 -0.14767143145E+03 -0.80908675681E+03  0.48269833133E+03  0.95797736883E+03  0.91075399624E+02 0.  0.
         13    1    3    3    0    0 -0.73621324853E+02 -0.40058164885E+03  0.18635355796E+03  0.44789887858E+03  0.00000000000E+00 0.  1.
        -13    1    3    3    0    0 -0.74050106593E+02 -0.40850510796E+03  0.29634477337E+03  0.51007849025E+03  0.00000000000E+00 0. -1.
         22    1    1    2    0    0  0.14767143145E+03  0.80908675681E+03  0.61330239284E+02  0.82473609716E+03  0.00000000000E+00 0.  1.
<mgrwt>
<rscale>  0 0.16976749E+04</rscale>
<asrwt>0</asrwt>
<pdfrwt beam="1">  1        2 0.17898016E+00 0.16976749E+04</pdfrwt>
<pdfrwt beam="2">  1       -2 0.95283454E-01 0.16976749E+04</pdfrwt>
<totfact> 0.17555767E+01</totfact>
</mgrwt>
</event>
<event>
 6    1  0.1773638E-005  0.2841030E+04  0.7818608E-02  0.8290642E-01
          2   -1    0    0  501    0  0.00000000000E+00  0.00000000000E+00  0.13754216269E+04  0.13754216269E+04  0.00000000000E+00 0. -1.
         -2   -1    0    0    0  501 -0.00000000000E+00 -0.00000000000E+00 -0.14670868796E+04  0.14670868796E+04  0.00000000000E+00 0.  1.
         23    2    1    2    0    0  0.54153790246E+03  0.10057217897E+04 -0.88956103203E+03  0.14491753472E+04  0.63645416628E+02 0.  0.
         13    1    3    3    0    0  0.43196598854E+03  0.83502920102E+03 -0.75486195742E+03  0.12056885819E+04  0.00000000000E+00 0.  1.
        -13    1    3    3    0    0  0.10957191393E+03  0.17069258869E+03 -0.13469907461E+03  0.24348676526E+03  0.00000000000E+00 0. -1.
         22    1    1    2    0    0 -0.54153790246E+03 -0.10057217897E+04  0.79789577933E+03  0.13933331593E+04  0.00000000000E+00 0. -1.
<mgrwt>
<rscale>  0 0.28410301E+04</rscale>
<asrwt>0</asrwt>
<pdfrwt beam="1">  1        2 0.21160333E+00 0.28410301E+04</pdfrwt>
<pdfrwt beam="2">  1       -2 0.22570567E+00 0.28410301E+04</pdfrwt>
<totfact> 0.11793808E+00</totfact>
</mgrwt>
</event>
<event>
 6    1  0.1773638E-005  0.7957208E+03  0.7818608E-02  0.9566232E-01
         -1   -1    0    0    0  501 -0.00000000000E+00  0.00000000000E+00  0.54842261203E+02  0.54842261203E+02  0.00000000000E+00 0.  1.
          1   -1    0    0  501    0  0.00000000000E+00 -0.00000000000E+00 -0.28863305805E+04  0.28863305805E+04  0.00000000000E+00 0. -1.
         23    2    1    2    0    0  0.22711910993E+03  0.31171991253E+03 -0.11602088673E+04  0.12259680724E+04  0.90336619521E+02 0.  0.
         13    1    3    3    0    0  0.98615705829E+01  0.60129696033E+02 -0.23807905209E+03  0.24575285545E+03  0.00000000000E+00 0. -1.
        -13    1    3    3    0    0  0.21725753934E+03  0.25159021649E+03 -0.92212981519E+03  0.98021521693E+03  0.00000000000E+00 0.  1.
         22    1    1    2    0    0 -0.22711910993E+03 -0.31171991253E+03 -0.16712794520E+04  0.17152047693E+04  0.00000000000E+00 0.  1.
<mgrwt>
<rscale>  0 0.79572079E+03</rscale>
<asrwt>0</asrwt>
<pdfrwt beam="1">  1        1 0.44405084E+00 0.79572079E+03</pdfrwt>
<pdfrwt beam="2">  1       -1 0.84372712E-02 0.79572079E+03</pdfrwt>
<totfact> 0.62499476E+01</totfact>
</mgrwt>
</event>
<event>
 6    1  0.1773638E-005  0.2761929E+04  0.7818608E-02  0.8315186E-01
          2   -1    0    0  501    0  0.00000000000E+00  0.00000000000E+00  0.21515830377E+04  0.21515830377E+04  0.00000000000E+00 0. -1.
         -2   -1    0    0    0  501 -0.00000000000E+00 -0.00000000000E+00 -0.88635308616E+03  0.88635308616E+03  0.00000000000E+00 0.  1.
         23    2    1    2    0    0 -0.63122570751E+03  0.13055543170E+03 -0.70802872933E+03  0.96206511722E+03  0.93669598354E+02 0.  0.
         13    1    3    3    0    0 -0.18802001723E+03  0.16672102829E+02 -0.26317402205E+03  0.32386733669E+03  0.00000000000E+00 0.  1.
        -13    1    3    3    0    0 -0.44320569028E+03  0.11388332887E+03 -0.44485470728E+03  0.63819778054E+03  0.00000000000E+00 0. -1.
         22    1    1    2    0    0  0.63122570751E+03 -0.13055543170E+03  0.19732586808E+04  0.20758710066E+04  0.00000000000E+00 0. -1.
<mgrwt>
<rscale>  0 0.27619285E+04</rscale>
<asrwt>0</asrwt>
<pdfrwt beam="1">  1        2 0.33101277E+00 0.27619285E+04</pdfrwt>
<pdfrwt beam="2">  1       -2 0.13636201E+00 0.27619285E+04</pdfrwt>
<totfact> 0.18450848E+00</totfact>
</mgrwt>
</event>
<event>
 6    1  0.1773638E-005  0.3455720E+04  0.7818608E-02  0.8124365E-01
          1   -1    0    0  501    0  0.00000000000E+00  0.00000000000E+00  0.24519459376E+04  0.24519459376E+04  0.00000000000E+00 0. -1.
         -1   -1    0    0    0  501 -0.00000000000E+00 -0.00000000000E+00 -0.12176047416E+04  0.12176047416E+04  0.00000000000E+00 0.  1.
         23    2    1    2    0    0  0.12391405210E+03 -0.17221724361E+04  0.60663738817E+03  0.18323667847E+04  0.91249770619E+02 0.  0.
         13    1    3    3    0    0  0.11343973941E+03 -0.14978077420E+04  0.55914775547E+03  0.16027921946E+04  0.00000000000E+00 0. -1.
        -13    1    3    3    0    0  0.10474312693E+02 -0.22436469413E+03  0.47489632707E+02  0.22957459009E+03  0.00000000000E+00 0.  1.
         22    1    1    2    0    0 -0.12391405210E+03  0.17221724361E+04  0.62770380779E+03  0.18371838946E+04  0.00000000000E+00 0.  1.
<mgrwt>
<rscale>  0 0.34557205E+04</rscale>
<asrwt>0</asrwt>
<pdfrwt beam="1">  1        1 0.37722245E+00 0.34557205E+04</pdfrwt>
<pdfrwt beam="2">  1       -1 0.18732381E+00 0.34557205E+04</pdfrwt>
<totfact> 0.22100728E-01</totfact>
</mgrwt>
</event>
<event>
 6    1  0.1773638E-005  0.3967123E+04  0.7818608E-02  0.8011212E-01
         -2   -1    0    0    0  501 -0.00000000000E+00  0.00000000000E+00  0.29527856295E+04  0.29527856295E+04  0.00000000000E+00 0. -1.
          2   -1    0    0  501    0  0.00000000000E+00 -0.00000000000E+00 -0.13324757674E+04  0.13324757674E+04  0.00000000000E+00 0.  1.
         23    2    1    2    0    0  0.35097677579E+03 -0.94479698891E+03 -0.10334912512E+04  0.14465140682E+04  0.92047464735E+02 0.  0.
         13    1    3    3    0    0  0.27670987250E+03 -0.63643378945E+03 -0.73742412004E+03  0.10126256242E+04  0.00000000000E+00 0.  1.
        -13    1    3    3    0    0  0.74266903289E+02 -0.30836319947E+03 -0.29606713113E+03  0.43388844401E+03  0.00000000000E+00 0. -1.
         22    1    1    2    0    0 -0.35097677579E+03  0.94479698891E+03  0.26538011133E+04  0.28387473287E+04  0.00000000000E+00 0. -1.
<mgrwt>
<rscale>  0 0.39671225E+04</rscale>
<asrwt>0</asrwt>
<pdfrwt beam="1">  1        2 0.20499627E+00 0.39671225E+04</pdfrwt>
<pdfrwt beam="2">  1       -2 0.45427471E+00 0.39671225E+04</pdfrwt>
<totfact> 0.40714855E-02</totfact>
</mgrwt>
</event>
<event>
 6    1  0.1773638E-005  0.3554716E+04  0.7818608E-02  0.8100944E-01
          2   -1    0    0  501    0  0.00000000000E+00  0.00000000000E+00  0.15295738221E+04  0.15295738221E+04  0.00000000000E+00 0. -1.
         -2   -1    0    0    0  501 -0.00000000000E+00 -0.00000000000E+00 -0.20652823171E+04  0.20652823171E+04  0.00000000000E+00 0.  1.
         23    2    1    2    0    0 -0.69608477977E+03 -0.62210470862E+03  0.12600447286E+04  0.15709297745E+04  0.92516751456E+02 0.  0.
         13    1    3    3    0    0 -0.38265448776E+03 -0.32204383580E+03  0.74745105044E+03  0.89934407319E+03  0.00000000000E+00 0. -1.
        -13    1    3    3    0    0 -0.31343029201E+03 -0.30006087282E+03  0.51259367819E+03  0.67158570135E+03  0.00000000000E+00 0.  1.
         22    1    1    2    0    0  0.69608477977E+03  0.62210470862E+03 -0.17957532236E+04  0.20239263646E+04  0.00000000000E+00 0.  1.
<mgrwt>
<rscale>  0 0.35547162E+04</rscale>
<asrwt>0</asrwt>
<pdfrwt beam="1">  1        2 0.23531905E+00 0.35547162E+04</pdfrwt>
<pdfrwt beam="2">  1       -2 0.31773574E+00 0.35547162E+04</pdfrwt>
<totfact> 0.24704968E-01</totfact>
</mgrwt>
</event>
<event>
 6    1  0.1773638E-005  0.1950971E+04  0.7818608E-02  0.8629893E-01
          2   -1    0    0  501    0  0.00000000000E+00  0.00000000000E+00  0.23217073482E+04  0.23217073482E+04  0.00000000000E+00 0. -1.
         -2   -1    0    0    0  501 -0.00000000000E+00 -0.00000000000E+00 -0.40985865433E+03  0.40985865433E+03  0.00000000000E+00 0.  1.
         23    2    1    2    0    0 -0.79386014562E+03 -0.50200989611E+03  0.59975938188E+03  0.11179346229E+04  0.88536085417E+02 0.  0.
         11    1    3    3    0    0 -0.61871226532E+03 -0.38653535270E+03  0.42084281883E+03  0.84221322971E+03  0.00000000000E+00 0. -1.
        -11    1    3    3    0    0 -0.17514788029E+03 -0.11547454341E+03  0.17891656305E+03  0.27572139322E+03  0.00000000000E+00 0.  1.
         22    1    1    2    0    0  0.79386014562E+03  0.50200989611E+03  0.13120893120E+04  0.16136313796E+04  0.00000000000E+00 0. -1.
<mgrwt>
<rscale>  0 0.19509709E+04</rscale>
<asrwt>0</asrwt>
<pdfrwt beam="1">  1        2 0.35718574E+00 0.19509709E+04</pdfrwt>
<pdfrwt beam="2">  1       -2 0.63055179E-01 0.19509709E+04</pdfrwt>
<totfact> 0.95802070E+00</totfact>
</mgrwt>
</event>
<event>
 6    1  0.1773638E-005  0.5353773E+04  0.7818608E-02  0.7776137E-01
         -1   -1    0    0    0  501 -0.00000000000E+00  0.00000000000E+00  0.32764052372E+04  0.32764052372E+04  0.00000000000E+00 0.  1.
          1   -1    0    0  501    0  0.00000000000E+00 -0.00000000000E+00 -0.21870682509E+04  0.21870682509E+04  0.00000000000E+00 0. -1.
         23    2    1    2    0    0 -0.23812735691E+04  0.13183225421E+03 -0.69404322610E+03  0.24855063063E+04  0.90565139701E+02 0.  0.
         11    1    3    3    0    0 -0.11417074068E+03  0.18594328150E+02 -0.49675441874E+02  0.12589025614E+03  0.00000000000E+00 0. -1.
        -11    1    3    3    0    0 -0.22671028285E+04  0.11323792606E+03 -0.64436778422E+03  0.23596160501E+04  0.00000000000E+00 0.  1.
         22    1    1    2    0    0  0.23812735691E+04 -0.13183225421E+03  0.17833802123E+04  0.29779671818E+04  0.00000000000E+00 0.  1.
<mgrwt>
<rscale>  0 0.53537732E+04</rscale>
<asrwt>0</asrwt>
<pdfrwt beam="1">  1        1 0.33647204E+00 0.53537732E+04</pdfrwt>
<pdfrwt beam="2">  1       -1 0.50406235E+00 0.53537732E+04</pdfrwt>
<totfact> 0.22080570E-03</totfact>
</mgrwt>
</event>
<event>
 6    1  0.1773638E-005  0.3167321E+04  0.7818608E-02  0.8197501E-01
         -2   -1    0    0    0  501 -0.00000000000E+00  0.00000000000E+00  0.63299470695E+03  0.63299470695E+03  0.00000000000E+00 0.  1.
          2   -1    0    0  501    0  0.00000000000E+00 -0.00000000000E+00 -0.39620884726E+04  0.39620884726E+04  0.00000000000E+00 0. -1.
         23    2    1    2    0    0  0.50134007062E+03  0.14514630099E+04 -0.11120937511E+04  0.18982005718E+04  0.91247817738E+02 0.  0.
         13    1    3    3    0    0  0.32731646690E+03  0.81822336138E+03 -0.61760763367E+03  0.10761341588E+04  0.00000000000E+00 0. -1.
        -13    1    3    3    0    0  0.17402360371E+03  0.63323964848E+03 -0.49448611748E+03  0.82206641303E+03  0.00000000000E+00 0.  1.
         22    1    1    2    0    0 -0.50134007062E+03 -0.14514630099E+04 -0.22170000145E+04  0.26968826077E+04  0.00000000000E+00 0. -1.
<mgrwt>
<rscale>  0 0.31673213E+04</rscale>
<asrwt>0</asrwt>
<pdfrwt beam="1">  1        2 0.60955207E+00 0.31673213E+04</pdfrwt>
<pdfrwt beam="2">  1       -2 0.97383801E-01 0.31673213E+04</pdfrwt>
<totfact> 0.27211074E-01</totfact>
</mgrwt>
</event>
<event>
 6    1  0.1773638E-005  0.1469014E+04  0.7818608E-02  0.8905324E-01
          1   -1    0    0  501    0  0.00000000000E+00  0.00000000000E+00  0.17268141132E+04  0.17268141132E+04  0.00000000000E+00 0. -1.
         -1   -1    0    0    0  501 -0.00000000000E+00 -0.00000000000E+00 -0.31242528118E+03  0.31242528118E+03  0.00000000000E+00 0.  1.
         23    2    1    2    0    0  0.30603249392E+03  0.49885560311E+03  0.13196126092E+04  0.14463689765E+04  0.89960977682E+02 0.  0.
         13    1    3    3    0    0  0.20120353977E+03  0.31097218317E+03  0.72708826538E+03  0.81599259113E+03  0.00000000000E+00 0. -1.
        -13    1    3    3    0    0  0.10482895415E+03  0.18788341995E+03  0.59252434385E+03  0.63037638533E+03  0.00000000000E+00 0.  1.
         22    1    1    2    0    0 -0.30603249392E+03 -0.49885560311E+03  0.94776222819E+02  0.59287041797E+03  0.00000000000E+00 0.  1.
<mgrwt>
<rscale>  0 0.14690138E+04</rscale>
<asrwt>0</asrwt>
<pdfrwt beam="1">  1        1 0.26566370E+00 0.14690138E+04</pdfrwt>
<pdfrwt beam="2">  1       -1 0.48065429E-01 0.14690138E+04</pdfrwt>
<totfact> 0.19173322E+01</totfact>
</mgrwt>
</event>
<event>
 6    1  0.1773638E-005  0.1235130E+04  0.7818608E-02  0.9082651E-01
          2   -1    0    0  501    0  0.00000000000E+00  0.00000000000E+00  0.12097100834E+04  0.12097100834E+04  0.00000000000E+00 0. -1.
         -2   -1    0    0    0  501 -0.00000000000E+00 -0.00000000000E+00 -0.31527122166E+03  0.31527122166E+03  0.00000000000E+00 0.  1.
         23    2    1    2    0    0 -0.83483499880E+02 -0.59223873592E+03  0.27686849360E+03  0.66526659968E+03  0.90593988904E+02 0.  0.
         13    1    3    3    0    0 -0.10836708328E+02 -0.33542569141E+03  0.12453360993E+03  0.35796151847E+03  0.00000000000E+00 0.  1.
        -13    1    3    3    0    0 -0.72646791552E+02 -0.25681304451E+03  0.15233488367E+03  0.30730508121E+03  0.00000000000E+00 0. -1.
         22    1    1    2    0    0  0.83483499880E+02  0.59223873592E+03  0.61757036816E+03  0.85971470541E+03  0.00000000000E+00 0. -1.
<mgrwt>
<rscale>  0 0.12351304E+04</rscale>
<asrwt>0</asrwt>
<pdfrwt beam="1">  1        2 0.18610924E+00 0.12351304E+04</pdfrwt>
<pdfrwt beam="2">  1       -2 0.48503266E-01 0.12351304E+04</pdfrwt>
<totfact> 0.74050971E+01</totfact>
</mgrwt>
</event>
<event>
 6    1  0.1773638E-005  0.3027947E+04  0.7818608E-02  0.8235795E-01
         -1   -1    0    0    0  501 -0.00000000000E+00  0.00000000000E+00  0.13474517894E+04  0.13474517894E+04  0.00000000000E+00 0.  1.
          1   -1    0    0  501    0  0.00000000000E+00 -0.00000000000E+00 -0.17010743378E+04  0.17010743378E+04  0.00000000000E+00 0. -1.
         23    2    1    2    0    0  0.96292497306E+03  0.56035542348E+03  0.85310282726E+03  0.14061471099E+04  0.90788525244E+02 0.  0.
         13    1    3    3    0    0  0.25008426465E+03  0.12937563004E+03  0.17027770045E+03  0.32905119411E+03  0.00000000000E+00 0.  1.
        -13    1    3    3    0    0  0.71284070840E+03  0.43097979343E+03  0.68282512680E+03  0.10770959157E+04  0.00000000000E+00 0. -1.
         22    1    1    2    0    0 -0.96292497306E+03 -0.56035542348E+03 -0.12067253757E+04  0.16423790174E+04  0.00000000000E+00 0. -1.
<mgrwt>
<rscale>  0 0.30279469E+04</rscale>
<asrwt>0</asrwt>
<pdfrwt beam="1">  1        1 0.26170374E+00 0.30279469E+04</pdfrwt>
<pdfrwt beam="2">  1       -1 0.20730028E+00 0.30279469E+04</pdfrwt>
<totfact> 0.54179889E-01</totfact>
</mgrwt>
</event>
<event>
 6    1  0.1773638E-005  0.3423025E+04  0.7818608E-02  0.8132278E-01
          2   -1    0    0  501    0  0.00000000000E+00  0.00000000000E+00  0.28679408730E+04  0.28679408730E+04  0.00000000000E+00 0. -1.
         -2   -1    0    0    0  501 -0.00000000000E+00 -0.00000000000E+00 -0.10213860773E+04  0.10213860773E+04  0.00000000000E+00 0.  1.
         23    2    1    2    0    0 -0.10879232881E+04  0.35803464482E+03  0.23670973541E+04  0.26312607983E+04  0.92831121990E+02 0.  0.
         13    1    3    3    0    0 -0.68619527172E+03  0.18212851874E+03  0.15033122819E+04  0.16625229518E+04  0.00000000000E+00 0.  1.
        -13    1    3    3    0    0 -0.40172801635E+03  0.17590612609E+03  0.86378507227E+03  0.96873784657E+03  0.00000000000E+00 0. -1.
         22    1    1    2    0    0  0.10879232881E+04 -0.35803464482E+03 -0.52054255841E+03  0.12580661520E+04  0.00000000000E+00 0.  1.
<mgrwt>
<rscale>  0 0.34230249E+04</rscale>
<asrwt>0</asrwt>
<pdfrwt beam="1">  1        2 0.44122167E+00 0.34230249E+04</pdfrwt>
<pdfrwt beam="2">  1       -2 0.15713632E+00 0.34230249E+04</pdfrwt>
<totfact> 0.45964661E-01</totfact>
</mgrwt>
</event>
<event>
 6    1  0.1773638E-005  0.5064521E+04  0.7818608E-02  0.7818631E-01
          1   -1    0    0  501    0  0.00000000000E+00  0.00000000000E+00  0.32531104810E+04  0.32531104810E+04  0.00000000000E+00 0. -1.
         -1   -1    0    0    0  501 -0.00000000000E+00 -0.00000000000E+00 -0.19711417996E+04  0.19711417996E+04  0.00000000000E+00 0.  1.
         23    2    1    2    0    0  0.17523297444E+04 -0.13168936675E+04 -0.66501749127E+03  0.22924228822E+04  0.89921868800E+02 0.  0.
         13    1    3    3    0    0  0.11225101502E+04 -0.87594871950E+03 -0.39596574193E+03  0.14778714644E+04  0.00000000000E+00 0. -1.
        -13    1    3    3    0    0  0.62981959427E+03 -0.44094494796E+03 -0.26905174934E+03  0.81455141783E+03  0.00000000000E+00 0.  1.
         22    1    1    2    0    0 -0.17523297444E+04  0.13168936675E+04  0.19469861727E+04  0.29318293984E+04  0.00000000000E+00 0. -1.
<mgrwt>
<rscale>  0 0.50645205E+04</rscale>
<asrwt>0</asrwt>
<pdfrwt beam="1">  1        1 0.50047854E+00 0.50645205E+04</pdfrwt>
<pdfrwt beam="2">  1       -1 0.30325258E+00 0.50645205E+04</pdfrwt>
<totfact> 0.87552410E-03</totfact>
</mgrwt>
</event>
<event>
 6    1  0.1773638E-005  0.1131370E+04  0.7818608E-02  0.9175145E-01
         -2   -1    0    0    0  501 -0.00000000000E+00  0.00000000000E+00  0.30405442078E+03  0.30405442078E+03  0.00000000000E+00 0.  1.
          2   -1    0    0  501    0  0.00000000000E+00 -0.00000000000E+00 -0.10524411741E+04  0.10524411741E+04  0.00000000000E+00 0. -1.
         23    2    1    2    0    0  0.44746083722E+03 -0.27552051337E+03 -0.61557882830E+03  0.81448941495E+03  0.91230253064E+02 0.  0.
         13    1    3    3    0    0  0.19830787802E+03 -0.15231686905E+03 -0.23444168356E+03  0.34276718932E+03  0.00000000000E+00 0. -1.
        -13    1    3    3    0    0  0.24915295920E+03 -0.12320364433E+03 -0.38113714475E+03  0.47172222563E+03  0.00000000000E+00 0.  1.
         22    1    1    2    0    0 -0.44746083722E+03  0.27552051337E+03 -0.13280792501E+03  0.54200617993E+03  0.00000000000E+00 0.  1.
<mgrwt>
<rscale>  0 0.11313698E+04</rscale>
<asrwt>0</asrwt>
<pdfrwt beam="1">  1        2 0.16191403E+00 0.11313698E+04</pdfrwt>
<pdfrwt beam="2">  1       -2 0.46777603E-01 0.11313698E+04</pdfrwt>
<totfact> 0.10010694E+02</totfact>
</mgrwt>
</event>
<event>
 6    1  0.1773638E-005  0.1016157E+04  0.7818608E-02  0.9291000E-01
         -1   -1    0    0    0  501 -0.00000000000E+00  0.00000000000E+00  0.14754611945E+03  0.14754611945E+03  0.00000000000E+00 0.  1.
          1   -1    0    0  501    0  0.00000000000E+00 -0.00000000000E+00 -0.17495790241E+04  0.17495790241E+04  0.00000000000E+00 0. -1.
         23    2    1    2    0    0  0.22286990660E+03  0.16490182734E+03 -0.21469611418E+02  0.29243080137E+03  0.90505366963E+02 0.  0.
         11    1    3    3    0    0  0.10514311025E+03  0.41356870155E+02 -0.42016191888E+02  0.12054387054E+03  0.00000000000E+00 0. -1.
        -11    1    3    3    0    0  0.11772679635E+03  0.12354495718E+03  0.20546580470E+02  0.17188693084E+03  0.00000000000E+00 0.  1.
         22    1    1    2    0    0 -0.22286990660E+03 -0.16490182734E+03 -0.15805632932E+04  0.16046943422E+04  0.00000000000E+00 0. -1.
<mgrwt>
<rscale>  0 0.10161567E+04</rscale>
<asrwt>0</asrwt>
<pdfrwt beam="1">  1        1 0.26916600E+00 0.10161567E+04</pdfrwt>
<pdfrwt beam="2">  1       -1 0.22699403E-01 0.10161567E+04</pdfrwt>
<totfact> 0.73081269E+01</totfact>
</mgrwt>
</event>
<event>
 6    1  0.1773638E-005  0.2209083E+04  0.7818608E-02  0.8514657E-01
         -1   -1    0    0    0  501 -0.00000000000E+00  0.00000000000E+00  0.10706635377E+04  0.10706635377E+04  0.00000000000E+00 0.  1.
          1   -1    0    0  501    0  0.00000000000E+00 -0.00000000000E+00 -0.11394918220E+04  0.11394918220E+04  0.00000000000E+00 0. -1.
         23    2    1    2    0    0 -0.33298771312E+02 -0.59835670795E+03  0.89151675173E+03  0.10781650125E+04  0.92185234187E+02 0.  0.
         13    1    3    3    0    0  0.25040445540E+01 -0.39581980416E+03  0.64889882861E+03  0.76009820246E+03  0.00000000000E+00 0. -1.
        -13    1    3    3    0    0 -0.35802815866E+02 -0.20253690378E+03  0.24261792311E+03  0.31806681002E+03  0.00000000000E+00 0.  1.
         22    1    1    2    0    0  0.33298771312E+02  0.59835670795E+03 -0.96034503602E+03  0.11319903473E+04  0.00000000000E+00 0. -1.
<mgrwt>
<rscale>  0 0.22090834E+04</rscale>
<asrwt>0</asrwt>
<pdfrwt beam="1">  1        1 0.17530643E+00 0.22090834E+04</pdfrwt>
<pdfrwt beam="2">  1       -1 0.16471747E+00 0.22090834E+04</pdfrwt>
<totfact> 0.29057095E+00</totfact>
</mgrwt>
</event>
<event>
 6    1  0.1773638E-005  0.4013702E+04  0.7818608E-02  0.8001788E-01
          1   -1    0    0  501    0  0.00000000000E+00  0.00000000000E+00  0.37384237971E+04  0.37384237971E+04  0.00000000000E+00 0. -1.
         -1   -1    0    0    0  501 -0.00000000000E+00 -0.00000000000E+00 -0.10773127213E+04  0.10773127213E+04  0.00000000000E+00 0.  1.
         23    2    1    2    0    0  0.55733748577E+03 -0.39538594237E+03  0.35939082663E+04  0.36594209407E+04  0.90718679415E+02 0.  0.
         11    1    3    3    0    0  0.48611612098E+02 -0.66398634820E+01  0.24883158868E+03  0.25362242831E+03  0.00000000000E+00 0. -1.
        -11    1    3    3    0    0  0.50872587367E+03 -0.38874607889E+03  0.33450766776E+04  0.34057985124E+04  0.00000000000E+00 0.  1.
         22    1    1    2    0    0 -0.55733748577E+03  0.39538594237E+03 -0.93279719049E+03  0.11563155776E+04  0.00000000000E+00 0.  1.
<mgrwt>
<rscale>  0 0.40137023E+04</rscale>
<asrwt>0</asrwt>
<pdfrwt beam="1">  1        1 0.57514212E+00 0.40137023E+04</pdfrwt>
<pdfrwt beam="2">  1       -1 0.16574042E+00 0.40137023E+04</pdfrwt>
<totfact> 0.33102966E-02</totfact>
</mgrwt>
</event>
<event>
 6    1  0.1773638E-005  0.2678711E+04  0.7818608E-02  0.8341946E-01
         -1   -1    0    0    0  501 -0.00000000000E+00  0.00000000000E+00  0.16285705678E+04  0.16285705678E+04  0.00000000000E+00 0. -1.
          1   -1    0    0  501    0  0.00000000000E+00 -0.00000000000E+00 -0.11015013740E+04  0.11015013740E+04  0.00000000000E+00 0.  1.
         23    2    1    2    0    0 -0.52879790893E+03  0.56687425213E+03 -0.84736802426E+03  0.11520822990E+04  0.91035207109E+02 0.  0.
         11    1    3    3    0    0 -0.12061608783E+03  0.18917052767E+03 -0.25095077435E+03  0.33661553786E+03  0.00000000000E+00 0. -1.
        -11    1    3    3    0    0 -0.40818182110E+03  0.37770372447E+03 -0.59641724991E+03  0.81546676115E+03  0.00000000000E+00 0.  1.
         22    1    1    2    0    0  0.52879790893E+03 -0.56687425213E+03  0.13744372181E+04  0.15779896428E+04  0.00000000000E+00 0. -1.
<mgrwt>
<rscale>  0 0.26787107E+04</rscale>
<asrwt>0</asrwt>
<pdfrwt beam="1">  1        1 0.16946175E+00 0.26787107E+04</pdfrwt>
<pdfrwt beam="2">  1       -1 0.25054932E+00 0.26787107E+04</pdfrwt>
<totfact> 0.76483583E-01</totfact>
</mgrwt>
</event>
<event>
 6    1  0.1773638E-005  0.1851665E+04  0.7818608E-02  0.8679297E-01
          2   -1    0    0  501    0  0.00000000000E+00  0.00000000000E+00  0.16750820650E+04  0.16750820650E+04  0.00000000000E+00 0. -1.
         -2   -1    0    0    0  501 -0.00000000000E+00 -0.00000000000E+00 -0.51171551008E+03  0.51171551008E+03  0.00000000000E+00 0.  1.
         23    2    1    2    0    0 -0.24057995335E+03  0.70653601361E+03 -0.59014127533E+02  0.75456631398E+03  0.93892504871E+02 0.  0.
         13    1    3    3    0    0 -0.17500730237E+03  0.42733686395E+03 -0.72564050596E+02  0.46745041728E+03  0.00000000000E+00 0. -1.
        -13    1    3    3    0    0 -0.65572650975E+02  0.27919914966E+03  0.13549923063E+02  0.28711589670E+03  0.00000000000E+00 0.  1.
         22    1    1    2    0    0  0.24057995335E+03 -0.70653601361E+03  0.12223806825E+04  0.14322312611E+04  0.00000000000E+00 0. -1.
<mgrwt>
<rscale>  0 0.18516646E+04</rscale>
<asrwt>0</asrwt>
<pdfrwt beam="1">  1        2 0.25770493E+00 0.18516646E+04</pdfrwt>
<pdfrwt beam="2">  1       -2 0.78725464E-01 0.18516646E+04</pdfrwt>
<totfact> 0.13641689E+01</totfact>
</mgrwt>
</event>
<event>
 6    1  0.1773638E-005  0.2471731E+04  0.7818608E-02  0.8413126E-01
         -4   -1    0    0    0  501 -0.00000000000E+00  0.00000000000E+00  0.12296259910E+04  0.12296259910E+04  0.00000000000E+00 0. -1.
          4   -1    0    0  501    0  0.00000000000E+00 -0.00000000000E+00 -0.12421367228E+04  0.12421367228E+04  0.00000000000E+00 0.  1.
         23    2    1    2    0    0 -0.63764501392E+03  0.10426447843E+04  0.16553800574E+03  0.12366915973E+04  0.91126097232E+02 0.  0.
         11    1    3    3    0    0 -0.25459813072E+03  0.34953140553E+03  0.84886851057E+02  0.44067923606E+03  0.00000000000E+00 0. -1.
        -11    1    3    3    0    0 -0.38304688321E+03  0.69311337875E+03  0.80651154680E+02  0.79601236127E+03  0.00000000000E+00 0.  1.
         22    1    1    2    0    0  0.63764501392E+03 -0.10426447843E+04 -0.17804873750E+03  0.12350711165E+04  0.00000000000E+00 0.  1.
<mgrwt>
<rscale>  0 0.24717311E+04</rscale>
<asrwt>0</asrwt>
<pdfrwt beam="1">  1        4 0.19109796E+00 0.24717311E+04</pdfrwt>
<pdfrwt beam="2">  1       -4 0.18917323E+00 0.24717311E+04</pdfrwt>
<totfact> 0.41848042E-02</totfact>
</mgrwt>
</event>
<event>
 6    1  0.1773638E-005  0.2934605E+04  0.7818608E-02  0.8262655E-01
         -1   -1    0    0    0  501 -0.00000000000E+00  0.00000000000E+00  0.20013610544E+04  0.20013610544E+04  0.00000000000E+00 0.  1.
          1   -1    0    0  501    0  0.00000000000E+00 -0.00000000000E+00 -0.10757559472E+04  0.10757559472E+04  0.00000000000E+00 0. -1.
         23    2    1    2    0    0 -0.38086480887E+03  0.12889466847E+04 -0.15032532460E+03  0.13554701584E+04  0.90885028843E+02 0.  0.
         13    1    3    3    0    0 -0.23082710657E+03  0.62354497641E+03 -0.65824751483E+02  0.66814847799E+03  0.00000000000E+00 0.  1.
        -13    1    3    3    0    0 -0.15003770230E+03  0.66540170826E+03 -0.84500573117E+02  0.68732168038E+03  0.00000000000E+00 0. -1.
         22    1    1    2    0    0  0.38086480887E+03 -0.12889466847E+04  0.10759304318E+04  0.17216468432E+04  0.00000000000E+00 0.  1.
<mgrwt>
<rscale>  0 0.29346046E+04</rscale>
<asrwt>0</asrwt>
<pdfrwt beam="1">  1        1 0.16550092E+00 0.29346046E+04</pdfrwt>
<pdfrwt beam="2">  1       -1 0.30790170E+00 0.29346046E+04</pdfrwt>
<totfact> 0.33211878E-01</totfact>
</mgrwt>
</event>
<event>
 6    1  0.1773638E-005  0.1989336E+04  0.7818608E-02  0.8611623E-01
         -2   -1    0    0    0  501 -0.00000000000E+00  0.00000000000E+00  0.16917545196E+04  0.16917545196E+04  0.00000000000E+00 0.  1.
          2   -1    0    0  501    0  0.00000000000E+00 -0.00000000000E+00 -0.58481532171E+03  0.58481532171E+03  0.00000000000E+00 0. -1.
         23    2    1    2    0    0 -0.80660174446E+03 -0.36129329827E+03  0.37534697335E+02  0.88921076475E+03  0.90264661478E+02 0.  0.
         11    1    3    3    0    0 -0.70719773357E+03 -0.28325658384E+03  0.25168221792E+02  0.76223117624E+03  0.00000000000E+00 0. -1.
        -11    1    3    3    0    0 -0.99404010888E+02 -0.78036714432E+02  0.12366475543E+02  0.12697958851E+03  0.00000000000E+00 0.  1.
         22    1    1    2    0    0  0.80660174446E+03  0.36129329827E+03  0.10694045006E+04  0.13873590766E+04  0.00000000000E+00 0.  1.
<mgrwt>
<rscale>  0 0.19893355E+04</rscale>
<asrwt>0</asrwt>
<pdfrwt beam="1">  1        2 0.89971588E-01 0.19893355E+04</pdfrwt>
<pdfrwt beam="2">  1       -2 0.26026992E+00 0.19893355E+04</pdfrwt>
<totfact> 0.26439540E+00</totfact>
</mgrwt>
</event>
<event>
 6    1  0.1773638E-005  0.6842984E+04  0.7818608E-02  0.7593849E-01
         -2   -1    0    0    0  501 -0.00000000000E+00  0.00000000000E+00  0.29778434235E+04  0.29778434235E+04  0.00000000000E+00 0.  1.
          2   -1    0    0  501    0  0.00000000000E+00 -0.00000000000E+00 -0.39312368787E+04  0.39312368787E+04  0.00000000000E+00 0. -1.
         23    2    1    2    0    0  0.13041137016E+04 -0.31618709401E+04 -0.41089780889E+03  0.34460697745E+04  0.91757794023E+02 0.  0.
         13    1    3    3    0    0  0.70041073441E+03 -0.16797720778E+04 -0.17306253610E+03  0.18281575620E+04  0.00000000000E+00 0.  1.
        -13    1    3    3    0    0  0.60370296721E+03 -0.14820988623E+04 -0.23783527279E+03  0.16179122125E+04  0.00000000000E+00 0. -1.
         22    1    1    2    0    0 -0.13041137016E+04  0.31618709401E+04 -0.54249564628E+03  0.34630105277E+04  0.00000000000E+00 0.  1.
<mgrwt>
<rscale>  0 0.68429841E+04</rscale>
<asrwt>0</asrwt>
<pdfrwt beam="1">  1        2 0.60480567E+00 0.68429841E+04</pdfrwt>
<pdfrwt beam="2">  1       -2 0.45812976E+00 0.68429841E+04</pdfrwt>
<totfact> 0.75319305E-04</totfact>
</mgrwt>
</event>
<event>
 6    1  0.1773638E-005  0.3060220E+04  0.7818608E-02  0.8226741E-01
         -1   -1    0    0    0  501 -0.00000000000E+00  0.00000000000E+00  0.80079921523E+03  0.80079921523E+03  0.00000000000E+00 0.  1.
          1   -1    0    0  501    0  0.00000000000E+00 -0.00000000000E+00 -0.29236258335E+04  0.29236258335E+04  0.00000000000E+00 0. -1.
         23    2    1    2    0    0 -0.10796596505E+04 -0.45659103122E+02  0.25370187307E+03  0.11137474768E+04  0.91209028872E+02 0.  0.
         11    1    3    3    0    0 -0.61800680803E+03 -0.59470490913E+02  0.17666578759E+03  0.64550751705E+03  0.00000000000E+00 0. -1.
        -11    1    3    3    0    0 -0.46165284248E+03  0.13811387792E+02  0.77036085477E+02  0.46823995971E+03  0.00000000000E+00 0.  1.
         22    1    1    2    0    0  0.10796596505E+04  0.45659103122E+02 -0.23765284913E+04  0.26106775719E+04  0.00000000000E+00 0. -1.
<mgrwt>
<rscale>  0 0.30602204E+04</rscale>
<asrwt>0</asrwt>
<pdfrwt beam="1">  1        1 0.44978860E+00 0.30602204E+04</pdfrwt>
<pdfrwt beam="2">  1       -1 0.12319988E+00 0.30602204E+04</pdfrwt>
<totfact> 0.33342592E-01</totfact>
</mgrwt>
</event>
<event>
 6    1  0.1773638E-005  0.2841248E+04  0.7818608E-02  0.8290576E-01
         -1   -1    0    0    0  501 -0.00000000000E+00  0.00000000000E+00  0.91299092276E+03  0.91299092276E+03  0.00000000000E+00 0.  1.
          1   -1    0    0  501    0  0.00000000000E+00 -0.00000000000E+00 -0.22105071165E+04  0.22105071165E+04  0.00000000000E+00 0. -1.
         23    2    1    2    0    0  0.18850102428E+02  0.51416373100E+03 -0.21034761049E+04  0.21673123631E+04  0.88946538140E+02 0.  0.
         13    1    3    3    0    0 -0.85924275895E+01  0.26336498203E+03 -0.12423645119E+04  0.12700017811E+04  0.00000000000E+00 0. -1.
        -13    1    3    3    0    0  0.27442530017E+02  0.25079874897E+03 -0.86111159308E+03  0.89731058206E+03  0.00000000000E+00 0.  1.
         22    1    1    2    0    0 -0.18850102428E+02 -0.51416373100E+03  0.80595991124E+03  0.95618567610E+03  0.00000000000E+00 0.  1.
<mgrwt>
<rscale>  0 0.28412483E+04</rscale>
<asrwt>0</asrwt>
<pdfrwt beam="1">  1        1 0.34007801E+00 0.28412483E+04</pdfrwt>
<pdfrwt beam="2">  1       -1 0.14046014E+00 0.28412483E+04</pdfrwt>
<totfact> 0.76805524E-01</totfact>
</mgrwt>
</event>
<event>
 6    1  0.1773638E-005  0.1708651E+04  0.7818608E-02  0.8756446E-01
         -1   -1    0    0    0  501 -0.00000000000E+00  0.00000000000E+00  0.34164788603E+03  0.34164788603E+03  0.00000000000E+00 0.  1.
          1   -1    0    0  501    0  0.00000000000E+00 -0.00000000000E+00 -0.21363276266E+04  0.21363276266E+04  0.00000000000E+00 0. -1.
         23    2    1    2    0    0 -0.49495586632E+03 -0.22317937096E+03 -0.18519751503E+04  0.19320147950E+04  0.89882531443E+02 0.  0.
         11    1    3    3    0    0 -0.38807768563E+03 -0.19608277979E+03 -0.15745738071E+04  0.16335040314E+04  0.00000000000E+00 0.  1.
        -11    1    3    3    0    0 -0.10687818069E+03 -0.27096591167E+02 -0.27740134326E+03  0.29851076363E+03  0.00000000000E+00 0. -1.
         22    1    1    2    0    0  0.49495586632E+03  0.22317937096E+03  0.57295409754E+02  0.54596071764E+03  0.00000000000E+00 0.  1.
<mgrwt>
<rscale>  0 0.17086507E+04</rscale>
<asrwt>0</asrwt>
<pdfrwt beam="1">  1        1 0.32866579E+00 0.17086507E+04</pdfrwt>
<pdfrwt beam="2">  1       -1 0.52561212E-01 0.17086507E+04</pdfrwt>
<totfact> 0.83542719E+00</totfact>
</mgrwt>
</event>
<event>
 6    1  0.1773638E-005  0.2827870E+04  0.7818608E-02  0.8294668E-01
         -2   -1    0    0    0  501 -0.00000000000E+00  0.00000000000E+00  0.95558496570E+03  0.95558496570E+03  0.00000000000E+00 0.  1.
          2   -1    0    0  501    0  0.00000000000E+00 -0.00000000000E+00 -0.20921342940E+04  0.20921342940E+04  0.00000000000E+00 0. -1.
         23    2    1    2    0    0 -0.72741617853E+03 -0.76415952545E+03 -0.15810327550E+04  0.19028875718E+04  0.90788001626E+02 0.  0.
         11    1    3    3    0    0 -0.49531243976E+03 -0.57716570072E+03 -0.11561245783E+04  0.13838636853E+04  0.00000000000E+00 0. -1.
        -11    1    3    3    0    0 -0.23210373878E+03 -0.18699382473E+03 -0.42490817672E+03  0.51902388643E+03  0.00000000000E+00 0.  1.
         22    1    1    2    0    0  0.72741617853E+03  0.76415952545E+03  0.44448342670E+03  0.11448316880E+04  0.00000000000E+00 0.  1.
<mgrwt>
<rscale>  0 0.28278699E+04</rscale>
<asrwt>0</asrwt>
<pdfrwt beam="1">  1        2 0.32186682E+00 0.28278699E+04</pdfrwt>
<pdfrwt beam="2">  1       -2 0.14701307E+00 0.28278699E+04</pdfrwt>
<totfact> 0.16284245E+00</totfact>
</mgrwt>
</event>
<event>
 6    1  0.1773638E-005  0.4365478E+04  0.7818608E-02  0.7934620E-01
         -2   -1    0    0    0  501 -0.00000000000E+00  0.00000000000E+00  0.18402670429E+04  0.18402670429E+04  0.00000000000E+00 0.  1.
          2   -1    0    0  501    0  0.00000000000E+00 -0.00000000000E+00 -0.25889443025E+04  0.25889443025E+04  0.00000000000E+00 0. -1.
         23    2    1    2    0    0  0.20991271697E+03 -0.18868044067E+04 -0.14653813539E+04  0.23999851440E+04  0.92151837042E+02 0.  0.
         13    1    3    3    0    0  0.70651654494E+02 -0.10393125324E+04 -0.81613030357E+03  0.13233407984E+04  0.00000000000E+00 0.  1.
        -13    1    3    3    0    0  0.13926106247E+03 -0.84749187430E+03 -0.64925105034E+03  0.10766443456E+04  0.00000000000E+00 0. -1.
         22    1    1    2    0    0 -0.20991271697E+03  0.18868044067E+04  0.71670409427E+03  0.20292262014E+04  0.00000000000E+00 0.  1.
<mgrwt>
<rscale>  0 0.43654777E+04</rscale>
<asrwt>0</asrwt>
<pdfrwt beam="1">  1        2 0.39829912E+00 0.43654777E+04</pdfrwt>
<pdfrwt beam="2">  1       -2 0.28311801E+00 0.43654777E+04</pdfrwt>
<totfact> 0.95371794E-02</totfact>
</mgrwt>
</event>
<event>
 6    1  0.1773638E-005  0.1767246E+04  0.7818608E-02  0.8723914E-01
         -2   -1    0    0    0  501 -0.00000000000E+00  0.00000000000E+00  0.86164080652E+03  0.86164080652E+03  0.00000000000E+00 0.  1.
          2   -1    0    0  501    0  0.00000000000E+00 -0.00000000000E+00 -0.90616584347E+03  0.90616584347E+03  0.00000000000E+00 0. -1.
         23    2    1    2    0    0 -0.32931637267E+03  0.57033313181E+03 -0.60833782176E+03  0.90084989739E+03  0.87900385072E+02 0.  0.
         13    1    3    3    0    0 -0.16617348960E+03  0.37303352412E+03 -0.37848977012E+03  0.55679632259E+03  0.00000000000E+00 0. -1.
        -13    1    3    3    0    0 -0.16314288307E+03  0.19729960769E+03 -0.22984805164E+03  0.34405357480E+03  0.00000000000E+00 0.  1.
         22    1    1    2    0    0  0.32931637267E+03 -0.57033313181E+03  0.56381278481E+03  0.86695675260E+03  0.00000000000E+00 0.  1.
<mgrwt>
<rscale>  0 0.17672458E+04</rscale>
<asrwt>0</asrwt>
<pdfrwt beam="1">  1        2 0.13941013E+00 0.17672458E+04</pdfrwt>
<pdfrwt beam="2">  1       -2 0.13256012E+00 0.17672458E+04</pdfrwt>
<totfact> 0.11360049E+01</totfact>
</mgrwt>
</event>
<event>
 6    1  0.1773638E-005  0.1182728E+04  0.7818608E-02  0.9128110E-01
          4   -1    0    0  501    0  0.00000000000E+00  0.00000000000E+00  0.31451073932E+03  0.31451073932E+03  0.00000000000E+00 0.  1.
         -4   -1    0    0    0  501 -0.00000000000E+00 -0.00000000000E+00 -0.11119227798E+04  0.11119227798E+04  0.00000000000E+00 0. -1.
         23    2    1    2    0    0 -0.28140960592E+03 -0.19622727087E+03 -0.97664760182E+03  0.10393651859E+04  0.93503708000E+02 0.  0.
         13    1    3    3    0    0 -0.26908295797E+03 -0.20654059907E+03 -0.92282161317E+03  0.98319092097E+03  0.00000000000E+00 0. -1.
        -13    1    3    3    0    0 -0.12326647945E+02  0.10313328200E+02 -0.53825988652E+02  0.56174264949E+02  0.00000000000E+00 0.  1.
         22    1    1    2    0    0  0.28140960592E+03  0.19622727087E+03  0.17923556133E+03  0.38706833322E+03  0.00000000000E+00 0.  1.
<mgrwt>
<rscale>  0 0.11827285E+04</rscale>
<asrwt>0</asrwt>
<pdfrwt beam="1">  1        4 0.48386267E-01 0.11827285E+04</pdfrwt>
<pdfrwt beam="2">  1       -4 0.17106505E+00 0.11827285E+04</pdfrwt>
<totfact> 0.16922770E+00</totfact>
</mgrwt>
</event>
<event>
 6    1  0.1773638E-005  0.1013245E+04  0.7818608E-02  0.9294137E-01
          2   -1    0    0  501    0  0.00000000000E+00  0.00000000000E+00  0.51752366509E+03  0.51752366509E+03  0.00000000000E+00 0. -1.
         -2   -1    0    0    0  501 -0.00000000000E+00 -0.00000000000E+00 -0.49595049823E+03  0.49595049823E+03  0.00000000000E+00 0.  1.
         23    2    1    2    0    0 -0.32364494521E+03  0.90512818876E+02  0.38458315131E+03  0.51878752539E+03  0.91091576389E+02 0.  0.
         13    1    3    3    0    0 -0.16426518136E+03 -0.10762889210E+01  0.18768624432E+03  0.24941999622E+03  0.00000000000E+00 0. -1.
        -13    1    3    3    0    0 -0.15937976385E+03  0.91589107797E+02  0.19689690699E+03  0.26936752917E+03  0.00000000000E+00 0.  1.
         22    1    1    2    0    0  0.32364494521E+03 -0.90512818876E+02 -0.36300998445E+03  0.49468663793E+03  0.00000000000E+00 0.  1.
<mgrwt>
<rscale>  0 0.10132445E+04</rscale>
<asrwt>0</asrwt>
<pdfrwt beam="1">  1        2 0.79619026E-01 0.10132445E+04</pdfrwt>
<pdfrwt beam="2">  1       -2 0.76300076E-01 0.10132445E+04</pdfrwt>
<totfact> 0.90769333E+01</totfact>
</mgrwt>
</event>
<event>
 6    1  0.1773638E-005  0.1082778E+04  0.7818608E-02  0.9222142E-01
         -1   -1    0    0    0  501 -0.00000000000E+00  0.00000000000E+00  0.35646767212E+03  0.35646767212E+03  0.00000000000E+00 0.  1.
          1   -1    0    0  501    0  0.00000000000E+00 -0.00000000000E+00 -0.82224019366E+03  0.82224019366E+03  0.00000000000E+00 0. -1.
         23    2    1    2    0    0 -0.35424639803E+03 -0.39759106574E+03 -0.31567487094E+03  0.62544620003E+03  0.89236533483E+02 0.  0.
         13    1    3    3    0    0 -0.23621510323E+03 -0.31650475518E+03 -0.20859043564E+03  0.44663497947E+03  0.00000000000E+00 0. -1.
        -13    1    3    3    0    0 -0.11803129480E+03 -0.81086310563E+02 -0.10708443531E+03  0.17881122056E+03  0.00000000000E+00 0.  1.
         22    1    1    2    0    0  0.35424639803E+03  0.39759106574E+03 -0.15009765059E+03  0.55326166575E+03  0.00000000000E+00 0. -1.
<mgrwt>
<rscale>  0 0.10827780E+04</rscale>
<asrwt>0</asrwt>
<pdfrwt beam="1">  1        1 0.12649849E+00 0.10827780E+04</pdfrwt>
<pdfrwt beam="2">  1       -1 0.54841181E-01 0.10827780E+04</pdfrwt>
<totfact> 0.70880676E+01</totfact>
</mgrwt>
</event>
<event>
 6    1  0.1773638E-005  0.2278741E+04  0.7818608E-02  0.8486351E-01
         -2   -1    0    0    0  501 -0.00000000000E+00  0.00000000000E+00  0.67616390729E+03  0.67616390729E+03  0.00000000000E+00 0. -1.
          2   -1    0    0  501    0  0.00000000000E+00 -0.00000000000E+00 -0.19198977700E+04  0.19198977700E+04  0.00000000000E+00 0.  1.
         23    2    1    2    0    0 -0.17165576051E+03  0.86052829416E+03 -0.14475046924E+04  0.16952302857E+04  0.92526978232E+02 0.  0.
         13    1    3    3    0    0 -0.42226754762E+02  0.26910809891E+03 -0.37256917070E+03  0.46153012326E+03  0.00000000000E+00 0. -1.
        -13    1    3    3    0    0 -0.12942900574E+03  0.59142019525E+03 -0.10749355217E+04  0.12337001624E+04  0.00000000000E+00 0.  1.
         22    1    1    2    0    0  0.17165576051E+03 -0.86052829416E+03  0.20377082968E+03  0.90083139166E+03  0.00000000000E+00 0. -1.
<mgrwt>
<rscale>  0 0.22787414E+04</rscale>
<asrwt>0</asrwt>
<pdfrwt beam="1">  1        2 0.29536888E+00 0.22787414E+04</pdfrwt>
<pdfrwt beam="2">  1       -2 0.10402522E+00 0.22787414E+04</pdfrwt>
<totfact> 0.50537456E+00</totfact>
</mgrwt>
</event>
<event>
 6    1  0.1773638E-005  0.2534704E+04  0.7818608E-02  0.8390725E-01
         -1   -1    0    0    0  501 -0.00000000000E+00  0.00000000000E+00  0.49133361304E+03  0.49133361304E+03  0.00000000000E+00 0.  1.
          1   -1    0    0  501    0  0.00000000000E+00 -0.00000000000E+00 -0.32690237056E+04  0.32690237056E+04  0.00000000000E+00 0. -1.
         23    2    1    2    0    0 -0.99737154225E+03  0.25964456057E+03 -0.24807182590E+04  0.26878100884E+04  0.90524581157E+02 0.  0.
         11    1    3    3    0    0 -0.52030545869E+03  0.90703915121E+02 -0.12326665393E+04  0.13410487567E+04  0.00000000000E+00 0.  1.
        -11    1    3    3    0    0 -0.47706608356E+03  0.16894064545E+03 -0.12480517196E+04  0.13467613317E+04  0.00000000000E+00 0. -1.
         22    1    1    2    0    0  0.99737154225E+03 -0.25964456057E+03 -0.29697183358E+03  0.10725472302E+04  0.00000000000E+00 0. -1.
<mgrwt>
<rscale>  0 0.25347041E+04</rscale>
<asrwt>0</asrwt>
<pdfrwt beam="1">  1        1 0.50292672E+00 0.25347041E+04</pdfrwt>
<pdfrwt beam="2">  1       -1 0.75589787E-01 0.25347041E+04</pdfrwt>
<totfact> 0.58750473E-01</totfact>
</mgrwt>
</event>
<event>
 6    1  0.1773638E-005  0.1583885E+04  0.7818608E-02  0.8830510E-01
          1   -1    0    0  501    0  0.00000000000E+00  0.00000000000E+00  0.67595818190E+03  0.67595818190E+03  0.00000000000E+00 0. -1.
         -1   -1    0    0    0  501 -0.00000000000E+00 -0.00000000000E+00 -0.92782747321E+03  0.92782747321E+03  0.00000000000E+00 0.  1.
         23    2    1    2    0    0  0.53053337655E+03 -0.56105459762E+03 -0.29190931244E+03  0.83057732067E+03  0.91649952449E+02 0.  0.
         11    1    3    3    0    0  0.58804005613E+02 -0.34023529051E+02 -0.79773724535E+01  0.68404313289E+02  0.00000000000E+00 0. -1.
        -11    1    3    3    0    0  0.47172937094E+03 -0.52703106857E+03 -0.28393193999E+03  0.76217300739E+03  0.00000000000E+00 0.  1.
         22    1    1    2    0    0 -0.53053337655E+03  0.56105459762E+03  0.40040021134E+02  0.77320833443E+03  0.00000000000E+00 0. -1.
<mgrwt>
<rscale>  0 0.15838846E+04</rscale>
<asrwt>0</asrwt>
<pdfrwt beam="1">  1        1 0.10399357E+00 0.15838846E+04</pdfrwt>
<pdfrwt beam="2">  1       -1 0.14274269E+00 0.15838846E+04</pdfrwt>
<totfact> 0.10994112E+01</totfact>
</mgrwt>
</event>
<event>
 6    1  0.1773638E-005  0.3390076E+04  0.7818608E-02  0.8140346E-01
          2   -1    0    0  501    0  0.00000000000E+00  0.00000000000E+00  0.39477192861E+04  0.39477192861E+04  0.00000000000E+00 0. -1.
         -2   -1    0    0    0  501 -0.00000000000E+00 -0.00000000000E+00 -0.72780099379E+03  0.72780099379E+03  0.00000000000E+00 0.  1.
         23    2    1    2    0    0 -0.15336938885E+04 -0.45915984091E+03  0.84859543402E+03  0.18143637303E+04  0.93577945565E+02 0.  0.
         11    1    3    3    0    0 -0.60640952053E+03 -0.22087347739E+03  0.37143845938E+03  0.74463691065E+03  0.00000000000E+00 0. -1.
        -11    1    3    3    0    0 -0.92728436799E+03 -0.23828636352E+03  0.47715697465E+03  0.10697268196E+04  0.00000000000E+00 0.  1.
         22    1    1    2    0    0  0.15336938885E+04  0.45915984091E+03  0.23713228583E+04  0.28611565496E+04  0.00000000000E+00 0. -1.
<mgrwt>
<rscale>  0 0.33900761E+04</rscale>
<asrwt>0</asrwt>
<pdfrwt beam="1">  1        2 0.60734142E+00 0.33900761E+04</pdfrwt>
<pdfrwt beam="2">  1       -2 0.11196939E+00 0.33900761E+04</pdfrwt>
<totfact> 0.19618992E-01</totfact>
</mgrwt>
</event>
<event>
 6    1  0.1773638E-005  0.2945952E+04  0.7818608E-02  0.8259335E-01
         -2   -1    0    0    0  501 -0.00000000000E+00  0.00000000000E+00  0.12849604501E+04  0.12849604501E+04  0.00000000000E+00 0.  1.
          2   -1    0    0  501    0  0.00000000000E+00 -0.00000000000E+00 -0.16885015378E+04  0.16885015378E+04  0.00000000000E+00 0. -1.
         23    2    1    2    0    0 -0.11475692324E+04 -0.70046452633E+03  0.40182400915E+03  0.14062419538E+04  0.92131441583E+02 0.  0.
         13    1    3    3    0    0 -0.82900774489E+03 -0.55314761700E+03  0.29320247470E+03  0.10388425378E+04  0.00000000000E+00 0. -1.
        -13    1    3    3    0    0 -0.31856148754E+03 -0.14731690933E+03  0.10862153445E+03  0.36739941599E+03  0.00000000000E+00 0.  1.
         22    1    1    2    0    0  0.11475692324E+04  0.70046452633E+03 -0.80536509682E+03  0.15672200340E+04  0.00000000000E+00 0. -1.
<mgrwt>
<rscale>  0 0.29459516E+04</rscale>
<asrwt>0</asrwt>
<pdfrwt beam="1">  1        2 0.25976947E+00 0.29459516E+04</pdfrwt>
<pdfrwt beam="2">  1       -2 0.19768622E+00 0.29459516E+04</pdfrwt>
<totfact> 0.11789456E+00</totfact>
</mgrwt>
</event>
<event>
 6    1  0.1773638E-005  0.2012539E+04  0.7818608E-02  0.8600780E-01
          2   -1    0    0  501    0  0.00000000000E+00  0.00000000000E+00  0.29791725281E+04  0.29791725281E+04  0.00000000000E+00 0. -1.
         -2   -1    0    0    0  501 -0.00000000000E+00 -0.00000000000E+00 -0.33988590131E+03  0.33988590131E+03  0.00000000000E+00 0.  1.
         23    2    1    2    0    0 -0.77531295921E+03 -0.42017731839E+02  0.23724804170E+04  0.24980461104E+04  0.93248945288E+02 0.  0.
         13    1    3    3    0    0 -0.30696645761E+03 -0.26741430390E+02  0.10866373483E+04  0.11294796310E+04  0.00000000000E+00 0. -1.
        -13    1    3    3    0    0 -0.46834650159E+03 -0.15276301448E+02  0.12858430688E+04  0.13685664794E+04  0.00000000000E+00 0.  1.
         22    1    1    2    0    0  0.77531295921E+03  0.42017731839E+02  0.26680620979E+03  0.82101231908E+03  0.00000000000E+00 0.  1.
<mgrwt>
<rscale>  0 0.20125394E+04</rscale>
<asrwt>0</asrwt>
<pdfrwt beam="1">  1        2 0.45833422E+00 0.20125394E+04</pdfrwt>
<pdfrwt beam="2">  1       -2 0.52290141E-01 0.20125394E+04</pdfrwt>
<totfact> 0.57611746E+00</totfact>
</mgrwt>
</event>
<event>
 6    1  0.1773638E-005  0.2827260E+04  0.7818608E-02  0.8294855E-01
         -2   -1    0    0    0  501 -0.00000000000E+00  0.00000000000E+00  0.66620728760E+03  0.66620728760E+03  0.00000000000E+00 0.  1.
          2   -1    0    0  501    0  0.00000000000E+00 -0.00000000000E+00 -0.29995912653E+04  0.29995912653E+04  0.00000000000E+00 0. -1.
         23    2    1    2    0    0 -0.45690109427E+02 -0.13939378165E+04 -0.88176400064E+03  0.16527534018E+04  0.94529530114E+02 0.  0.
         13    1    3    3    0    0 -0.34095756845E+02 -0.11743473537E+04 -0.70090908499E+03  0.13680379283E+04  0.00000000000E+00 0. -1.
        -13    1    3    3    0    0 -0.11594352582E+02 -0.21959046276E+03 -0.18085491565E+03  0.28471547352E+03  0.00000000000E+00 0.  1.
         22    1    1    2    0    0  0.45690109427E+02  0.13939378165E+04 -0.14516199770E+04  0.20130451510E+04  0.00000000000E+00 0.  1.
<mgrwt>
<rscale>  0 0.28272598E+04</rscale>
<asrwt>0</asrwt>
<pdfrwt beam="1">  1        2 0.46147557E+00 0.28272598E+04</pdfrwt>
<pdfrwt beam="2">  1       -2 0.10249343E+00 0.28272598E+04</pdfrwt>
<totfact> 0.11776493E+00</totfact>
</mgrwt>
</event>
<event>
 6    1  0.1773638E-005  0.2640323E+04  0.7818608E-02  0.8354632E-01
          2   -1    0    0  501    0  0.00000000000E+00  0.00000000000E+00  0.10401997419E+04  0.10401997419E+04  0.00000000000E+00 0. -1.
         -2   -1    0    0    0  501 -0.00000000000E+00 -0.00000000000E+00 -0.16754726605E+04  0.16754726605E+04  0.00000000000E+00 0.  1.
         23    2    1    2    0    0 -0.18506823027E+02 -0.13160039051E+04 -0.39867462702E+03  0.13784411089E+04  0.94602599848E+02 0.  0.
         13    1    3    3    0    0  0.36095161767E+02 -0.70437427257E+03 -0.22412526487E+03  0.74005277576E+03  0.00000000000E+00 0. -1.
        -13    1    3    3    0    0 -0.54601984794E+02 -0.61162963251E+03 -0.17454936215E+03  0.63838833317E+03  0.00000000000E+00 0.  1.
         22    1    1    2    0    0  0.18506823027E+02  0.13160039051E+04 -0.23659829162E+03  0.13372312935E+04  0.00000000000E+00 0. -1.
<mgrwt>
<rscale>  0 0.26403229E+04</rscale>
<asrwt>0</asrwt>
<pdfrwt beam="1">  1        2 0.16003073E+00 0.26403229E+04</pdfrwt>
<pdfrwt beam="2">  1       -2 0.25776502E+00 0.26403229E+04</pdfrwt>
<totfact> 0.12052482E+00</totfact>
</mgrwt>
</event>
<event>
 6    1  0.1773638E-005  0.3050072E+04  0.7818608E-02  0.8229575E-01
          2   -1    0    0  501    0  0.00000000000E+00  0.00000000000E+00  0.19888284170E+04  0.19888284170E+04  0.00000000000E+00 0. -1.
         -2   -1    0    0    0  501 -0.00000000000E+00 -0.00000000000E+00 -0.11693995320E+04  0.11693995320E+04  0.00000000000E+00 0.  1.
         23    2    1    2    0    0  0.72873531881E+03 -0.67751790703E+03 -0.78489737066E+03  0.12703856850E+04  0.87921708943E+02 0.  0.
         11    1    3    3    0    0  0.53051048623E+03 -0.45603043650E+03 -0.58782545075E+03  0.91375264462E+03  0.00000000000E+00 0. -1.
        -11    1    3    3    0    0  0.19822483258E+03 -0.22148747053E+03 -0.19707191991E+03  0.35663304036E+03  0.00000000000E+00 0.  1.
         22    1    1    2    0    0 -0.72873531881E+03  0.67751790703E+03  0.16043262557E+04  0.18878422641E+04  0.00000000000E+00 0. -1.
<mgrwt>
<rscale>  0 0.30500721E+04</rscale>
<asrwt>0</asrwt>
<pdfrwt beam="1">  1        2 0.30597360E+00 0.30500721E+04</pdfrwt>
<pdfrwt beam="2">  1       -2 0.17990762E+00 0.30500721E+04</pdfrwt>
<totfact> 0.10493265E+00</totfact>
</mgrwt>
</event>
<event>
 6    1  0.1773638E-005  0.3748073E+04  0.7818608E-02  0.8057391E-01
          2   -1    0    0  501    0  0.00000000000E+00  0.00000000000E+00  0.18116302250E+04  0.18116302250E+04  0.00000000000E+00 0. -1.
         -2   -1    0    0    0  501 -0.00000000000E+00 -0.00000000000E+00 -0.19385925749E+04  0.19385925749E+04  0.00000000000E+00 0.  1.
         23    2    1    2    0    0 -0.51889184121E+03  0.84255237494E+03 -0.16546526249E+04  0.19300632400E+04  0.90141855310E+02 0.  0.
         13    1    3    3    0    0 -0.23794396350E+03  0.43017698603E+03 -0.89651209738E+03  0.10224497591E+04  0.00000000000E+00 0. -1.
        -13    1    3    3    0    0 -0.28094787771E+03  0.41237538890E+03 -0.75814052748E+03  0.90761348093E+03  0.00000000000E+00 0.  1.
         22    1    1    2    0    0  0.51889184121E+03 -0.84255237494E+03  0.15276902749E+04  0.18201595599E+04  0.00000000000E+00 0. -1.
<mgrwt>
<rscale>  0 0.37480731E+04</rscale>
<asrwt>0</asrwt>
<pdfrwt beam="1">  1        2 0.27871234E+00 0.37480731E+04</pdfrwt>
<pdfrwt beam="2">  1       -2 0.29824501E+00 0.37480731E+04</pdfrwt>
<totfact> 0.22302139E-01</totfact>
</mgrwt>
</event>
<event>
 6    1  0.1773638E-005  0.2651244E+04  0.7818608E-02  0.8351000E-01
         -2   -1    0    0    0  501 -0.00000000000E+00  0.00000000000E+00  0.86920482322E+03  0.86920482322E+03  0.00000000000E+00 0.  1.
          2   -1    0    0  501    0  0.00000000000E+00 -0.00000000000E+00 -0.20217030588E+04  0.20217030588E+04  0.00000000000E+00 0. -1.
         23    2    1    2    0    0  0.71856832751E+03 -0.98843693500E+03 -0.21085133276E+02  0.12255419691E+04  0.90335593537E+02 0.  0.
         13    1    3    3    0    0  0.52098131979E+03 -0.71834227188E+03  0.25020199962E+02  0.88772921860E+03  0.00000000000E+00 0.  1.
        -13    1    3    3    0    0  0.19758700772E+03 -0.27009466312E+03 -0.46105333238E+02  0.33781275053E+03  0.00000000000E+00 0. -1.
         22    1    1    2    0    0 -0.71856832751E+03  0.98843693500E+03 -0.11314131023E+04  0.16653659129E+04  0.00000000000E+00 0. -1.
<mgrwt>
<rscale>  0 0.26512443E+04</rscale>
<asrwt>0</asrwt>
<pdfrwt beam="1">  1        2 0.31103124E+00 0.26512443E+04</pdfrwt>
<pdfrwt beam="2">  1       -2 0.13372382E+00 0.26512443E+04</pdfrwt>
<totfact> 0.23135240E+00</totfact>
</mgrwt>
</event>
<event>
 6    1  0.1773638E-005  0.2759177E+04  0.7818608E-02  0.8316056E-01
         -1   -1    0    0    0  501 -0.00000000000E+00  0.00000000000E+00  0.75478857032E+03  0.75478857032E+03  0.00000000000E+00 0.  1.
          1   -1    0    0  501    0  0.00000000000E+00 -0.00000000000E+00 -0.25215856616E+04  0.25215856616E+04  0.00000000000E+00 0. -1.
         23    2    1    2    0    0  0.85251548304E+03  0.93101237217E+03 -0.22794172924E+03  0.12859867040E+04  0.90761693278E+02 0.  0.
         11    1    3    3    0    0  0.43621615817E+03  0.54196025782E+03 -0.11635927891E+03  0.70536865503E+03  0.00000000000E+00 0.  1.
        -11    1    3    3    0    0  0.41629932487E+03  0.38905211435E+03 -0.11158245033E+03  0.58061804897E+03  0.00000000000E+00 0. -1.
         22    1    1    2    0    0 -0.85251548304E+03 -0.93101237217E+03 -0.15388553620E+04  0.19903875279E+04  0.00000000000E+00 0. -1.
<mgrwt>
<rscale>  0 0.27591767E+04</rscale>
<asrwt>0</asrwt>
<pdfrwt beam="1">  1        1 0.38793625E+00 0.27591767E+04</pdfrwt>
<pdfrwt beam="2">  1       -1 0.11612132E+00 0.27591767E+04</pdfrwt>
<totfact> 0.76206894E-01</totfact>
</mgrwt>
</event>
<event>
 6    1  0.1773638E-005  0.4018365E+04  0.7818608E-02  0.8000852E-01
         -2   -1    0    0    0  501 -0.00000000000E+00  0.00000000000E+00  0.18708365859E+04  0.18708365859E+04  0.00000000000E+00 0. -1.
          2   -1    0    0  501    0  0.00000000000E+00 -0.00000000000E+00 -0.21577591108E+04  0.21577591108E+04  0.00000000000E+00 0.  1.
         23    2    1    2    0    0 -0.66622562100E+03  0.86876766810E+02  0.17537196068E+04  0.18801952544E+04  0.90540514121E+02 0.  0.
         13    1    3    3    0    0 -0.18527534373E+03  0.41309793019E+01  0.39016381227E+03  0.43193960039E+03  0.00000000000E+00 0. -1.
        -13    1    3    3    0    0 -0.48095027727E+03  0.82745787508E+02  0.13635557945E+04  0.14482556540E+04  0.00000000000E+00 0.  1.
         22    1    1    2    0    0  0.66622562100E+03 -0.86876766810E+02 -0.20406421317E+04  0.21484004423E+04  0.00000000000E+00 0.  1.
<mgrwt>
<rscale>  0 0.40183652E+04</rscale>
<asrwt>0</asrwt>
<pdfrwt beam="1">  1        2 0.33196294E+00 0.40183652E+04</pdfrwt>
<pdfrwt beam="2">  1       -2 0.28782101E+00 0.40183652E+04</pdfrwt>
<totfact> 0.16209892E-01</totfact>
</mgrwt>
</event>
<event>
 6    1  0.1773638E-005  0.1123836E+04  0.7818608E-02  0.9182266E-01
          2   -1    0    0  501    0  0.00000000000E+00  0.00000000000E+00  0.16384597940E+04  0.16384597940E+04  0.00000000000E+00 0. -1.
         -2   -1    0    0    0  501 -0.00000000000E+00 -0.00000000000E+00 -0.19271266204E+03  0.19271266204E+03  0.00000000000E+00 0.  1.
         23    2    1    2    0    0  0.98532113873E+02 -0.67961405162E+02  0.16163330385E+04  0.16227812816E+04  0.80989299596E+02 0.  0.
         13    1    3    3    0    0  0.10987857046E+03 -0.73106905840E+02  0.14603483060E+04  0.14662997970E+04  0.00000000000E+00 0.  1.
        -13    1    3    3    0    0 -0.11346456586E+02  0.51455006775E+01  0.15598473243E+03  0.15648148455E+03  0.00000000000E+00 0. -1.
         22    1    1    2    0    0 -0.98532113873E+02  0.67961405162E+02 -0.17058590654E+03  0.20839117439E+03  0.00000000000E+00 0.  1.
<mgrwt>
<rscale>  0 0.11238362E+04</rscale>
<asrwt>0</asrwt>
<pdfrwt beam="1">  1        2 0.25207073E+00 0.11238362E+04</pdfrwt>
<pdfrwt beam="2">  1       -2 0.29648103E-01 0.11238362E+04</pdfrwt>
<totfact> 0.11026803E+02</totfact>
</mgrwt>
</event>
<event>
 6    1  0.1773638E-005  0.1441421E+04  0.7818608E-02  0.8924370E-01
         -2   -1    0    0    0  501 -0.00000000000E+00  0.00000000000E+00  0.20955289896E+03  0.20955289896E+03  0.00000000000E+00 0.  1.
          2   -1    0    0  501    0  0.00000000000E+00 -0.00000000000E+00 -0.24787224084E+04  0.24787224084E+04  0.00000000000E+00 0. -1.
         23    2    1    2    0    0  0.35946133488E+03 -0.32856411293E+03 -0.15499580210E+03  0.51873680981E+03  0.88867044509E+02 0.  0.
         13    1    3    3    0    0  0.14337506079E+03 -0.19078090816E+03 -0.69188923516E+02  0.24847710179E+03  0.00000000000E+00 0. -1.
        -13    1    3    3    0    0  0.21608627409E+03 -0.13778320477E+03 -0.85806878585E+02  0.27025970802E+03  0.00000000000E+00 0.  1.
         22    1    1    2    0    0 -0.35946133488E+03  0.32856411293E+03 -0.21141737074E+04  0.21695384976E+04  0.00000000000E+00 0. -1.
<mgrwt>
<rscale>  0 0.14414208E+04</rscale>
<asrwt>0</asrwt>
<pdfrwt beam="1">  1        2 0.38134189E+00 0.14414208E+04</pdfrwt>
<pdfrwt beam="2">  1       -2 0.32238909E-01 0.14414208E+04</pdfrwt>
<totfact> 0.31226736E+01</totfact>
</mgrwt>
</event>
<event>
 6    1  0.1773638E-005  0.1778538E+04  0.7818608E-02  0.8717797E-01
         -2   -1    0    0    0  501 -0.00000000000E+00  0.00000000000E+00  0.60102949250E+03  0.60102949250E+03  0.00000000000E+00 0.  1.
          2   -1    0    0  501    0  0.00000000000E+00 -0.00000000000E+00 -0.13157414792E+04  0.13157414792E+04  0.00000000000E+00 0. -1.
         23    2    1    2    0    0  0.78939250801E+03  0.36537801041E+03 -0.54554967606E+03  0.10306234053E+04  0.88986135340E+02 0.  0.
         13    1    3    3    0    0  0.56065933031E+03  0.22329082025E+03 -0.34777143008E+03  0.69652181779E+03  0.00000000000E+00 0. -1.
        -13    1    3    3    0    0  0.22873317770E+03  0.14208719015E+03 -0.19777824598E+03  0.33410158750E+03  0.00000000000E+00 0.  1.
         22    1    1    2    0    0 -0.78939250801E+03 -0.36537801041E+03 -0.16916231067E+03  0.88614756646E+03  0.00000000000E+00 0.  1.
<mgrwt>
<rscale>  0 0.17785381E+04</rscale>
<asrwt>0</asrwt>
<pdfrwt beam="1">  1        2 0.20242177E+00 0.17785381E+04</pdfrwt>
<pdfrwt beam="2">  1       -2 0.92466075E-01 0.17785381E+04</pdfrwt>
<totfact> 0.15196028E+01</totfact>
</mgrwt>
</event>
<event>
 6    1  0.1773638E-005  0.5290404E+03  0.7818608E-02  0.1006465E+00
         -1   -1    0    0    0  501 -0.00000000000E+00  0.00000000000E+00  0.42547671785E+03  0.42547671785E+03  0.00000000000E+00 0. -1.
          1   -1    0    0  501    0  0.00000000000E+00 -0.00000000000E+00 -0.16445305318E+03  0.16445305318E+03  0.00000000000E+00 0.  1.
         23    2    1    2    0    0 -0.16239540793E+03 -0.74244690166E+02  0.34075559398E+03  0.39437486037E+03  0.86790628126E+02 0.  0.
         11    1    3    3    0    0 -0.12620945434E+01 -0.25111803226E+02  0.80689783899E+02  0.84516488152E+02  0.00000000000E+00 0.  1.
        -11    1    3    3    0    0 -0.16113331338E+03 -0.49132886940E+02  0.26006581008E+03  0.30985837222E+03  0.00000000000E+00 0. -1.
         22    1    1    2    0    0  0.16239540793E+03  0.74244690166E+02 -0.79731929308E+02  0.19555491066E+03  0.00000000000E+00 0.  1.
<mgrwt>
<rscale>  0 0.52904043E+03</rscale>
<asrwt>0</asrwt>
<pdfrwt beam="1">  1        1 0.25300470E-01 0.52904043E+03</pdfrwt>
<pdfrwt beam="2">  1       -1 0.65457956E-01 0.52904043E+03</pdfrwt>
<totfact> 0.46052644E+02</totfact>
</mgrwt>
</event>
<event>
 6    1  0.1773638E-005  0.2888119E+04  0.7818608E-02  0.8276421E-01
          2   -1    0    0  501    0  0.00000000000E+00  0.00000000000E+00  0.74071816520E+03  0.74071816520E+03  0.00000000000E+00 0. -1.
         -2   -1    0    0    0  501 -0.00000000000E+00 -0.00000000000E+00 -0.28152506422E+04  0.28152506422E+04  0.00000000000E+00 0.  1.
         23    2    1    2    0    0  0.47422563658E+03  0.87896536616E+03 -0.23200133890E+04  0.25275083329E+04  0.91466816444E+02 0.  0.
         13    1    3    3    0    0  0.21954364754E+03  0.31716226222E+03 -0.92500192864E+03  0.10022075043E+04  0.00000000000E+00 0.  1.
        -13    1    3    3    0    0  0.25468198905E+03  0.56180310393E+03 -0.13950114604E+04  0.15253008286E+04  0.00000000000E+00 0. -1.
         22    1    1    2    0    0 -0.47422563658E+03 -0.87896536616E+03  0.24548091204E+03  0.10284604744E+04  0.00000000000E+00 0. -1.
<mgrwt>
<rscale>  0 0.28881186E+04</rscale>
<asrwt>0</asrwt>
<pdfrwt beam="1">  1        2 0.11395664E+00 0.28881186E+04</pdfrwt>
<pdfrwt beam="2">  1       -2 0.43311548E+00 0.28881186E+04</pdfrwt>
<totfact> 0.14766711E-01</totfact>
</mgrwt>
</event>
<event>
 6    1  0.1773638E-005  0.2298057E+04  0.7818608E-02  0.8478687E-01
          2   -1    0    0  501    0  0.00000000000E+00  0.00000000000E+00  0.13439888264E+04  0.13439888264E+04  0.00000000000E+00 0.  1.
         -2   -1    0    0    0  501 -0.00000000000E+00 -0.00000000000E+00 -0.98234967107E+03  0.98234967107E+03  0.00000000000E+00 0. -1.
         23    2    1    2    0    0 -0.44721663530E+03 -0.79300003935E+03 -0.52648563398E+03  0.10544826005E+04  0.76776628146E+02 0.  0.
         13    1    3    3    0    0 -0.43001968671E+03 -0.71996849641E+03 -0.48396159502E+03  0.96824087511E+03  0.00000000000E+00 0.  1.
        -13    1    3    3    0    0 -0.17196948589E+02 -0.73031542949E+02 -0.42524038959E+02  0.86241725374E+02  0.00000000000E+00 0. -1.
         22    1    1    2    0    0  0.44721663530E+03  0.79300003935E+03  0.88812478931E+03  0.12718558970E+04  0.00000000000E+00 0.  1.
<mgrwt>
<rscale>  0 0.22980574E+04</rscale>
<asrwt>0</asrwt>
<pdfrwt beam="1">  1        2 0.20676751E+00 0.22980574E+04</pdfrwt>
<pdfrwt beam="2">  1       -2 0.15113072E+00 0.22980574E+04</pdfrwt>
<totfact> 0.41514179E+00</totfact>
</mgrwt>
</event>
<event>
 6    1  0.1773638E-005  0.2728501E+04  0.7818608E-02  0.8325816E-01
         -2   -1    0    0    0  501 -0.00000000000E+00  0.00000000000E+00  0.71523115559E+03  0.71523115559E+03  0.00000000000E+00 0.  1.
          2   -1    0    0  501    0  0.00000000000E+00 -0.00000000000E+00 -0.26022066864E+04  0.26022066864E+04  0.00000000000E+00 0. -1.
         23    2    1    2    0    0 -0.57695040526E+03 -0.12339910257E+04 -0.89830009171E+03  0.16342608621E+04  0.90883931696E+02 0.  0.
         11    1    3    3    0    0 -0.10386807518E+03 -0.23527103628E+03 -0.12868513755E+03  0.28757764548E+03  0.00000000000E+00 0.  1.
        -11    1    3    3    0    0 -0.47308233008E+03 -0.99871998943E+03 -0.76961495417E+03  0.13466832166E+04  0.00000000000E+00 0. -1.
         22    1    1    2    0    0  0.57695040526E+03  0.12339910257E+04 -0.98867543907E+03  0.16831769798E+04  0.00000000000E+00 0. -1.
<mgrwt>
<rscale>  0 0.27285009E+04</rscale>
<asrwt>0</asrwt>
<pdfrwt beam="1">  1        2 0.40033949E+00 0.27285009E+04</pdfrwt>
<pdfrwt beam="2">  1       -2 0.11003556E+00 0.27285009E+04</pdfrwt>
<totfact> 0.17429580E+00</totfact>
</mgrwt>
</event>
<event>
 6    1  0.1773638E-005  0.2856791E+04  0.7818608E-02  0.8285851E-01
          2   -1    0    0  501    0  0.00000000000E+00  0.00000000000E+00  0.86054130955E+03  0.86054130955E+03  0.00000000000E+00 0. -1.
         -2   -1    0    0    0  501 -0.00000000000E+00 -0.00000000000E+00 -0.23709648035E+04  0.23709648035E+04  0.00000000000E+00 0.  1.
         23    2    1    2    0    0 -0.71783788148E+03 -0.46824324974E+02  0.63776076932E+03  0.96607472577E+03  0.95277675213E+02 0.  0.
         11    1    3    3    0    0 -0.32325196964E+03  0.11264546360E+02  0.23973398992E+03  0.40260540458E+03  0.00000000000E+00 0.  1.
        -11    1    3    3    0    0 -0.39458591185E+03 -0.58088871334E+02  0.39802677940E+03  0.56346932119E+03  0.00000000000E+00 0. -1.
         22    1    1    2    0    0  0.71783788148E+03  0.46824324974E+02 -0.21481842632E+04  0.22654313872E+04  0.00000000000E+00 0.  1.
<mgrwt>
<rscale>  0 0.28567906E+04</rscale>
<asrwt>0</asrwt>
<pdfrwt beam="1">  1        2 0.13239097E+00 0.28567906E+04</pdfrwt>
<pdfrwt beam="2">  1       -2 0.36476381E+00 0.28567906E+04</pdfrwt>
<totfact> 0.33887993E-01</totfact>
</mgrwt>
</event>
<event>
 6    1  0.1773638E-005  0.1477752E+04  0.7818608E-02  0.8899384E-01
         -2   -1    0    0    0  501 -0.00000000000E+00  0.00000000000E+00  0.35909239465E+03  0.35909239465E+03  0.00000000000E+00 0.  1.
          2   -1    0    0  501    0  0.00000000000E+00 -0.00000000000E+00 -0.15203270561E+04  0.15203270561E+04  0.00000000000E+00 0. -1.
         23    2    1    2    0    0 -0.66065353080E+03  0.80597889784E+02 -0.98294991584E+03  0.11904023551E+04  0.88927624470E+02 0.  0.
         13    1    3    3    0    0 -0.14550325369E+03  0.51467877242E+02 -0.25664278019E+03  0.29947563481E+03  0.00000000000E+00 0. -1.
        -13    1    3    3    0    0 -0.51515027711E+03  0.29130012542E+02 -0.72630713565E+03  0.89092672029E+03  0.00000000000E+00 0.  1.
         22    1    1    2    0    0  0.66065353080E+03 -0.80597889784E+02 -0.17828474563E+03  0.68901709567E+03  0.00000000000E+00 0. -1.
<mgrwt>
<rscale>  0 0.14777522E+04</rscale>
<asrwt>0</asrwt>
<pdfrwt beam="1">  1        2 0.23389647E+00 0.14777522E+04</pdfrwt>
<pdfrwt beam="2">  1       -2 0.55244985E-01 0.14777522E+04</pdfrwt>
<totfact> 0.36848788E+01</totfact>
</mgrwt>
</event>
<event>
 6    1  0.1773638E-005  0.2560730E+04  0.7818608E-02  0.8381664E-01
         -1   -1    0    0    0  501 -0.00000000000E+00  0.00000000000E+00  0.23228722446E+04  0.23228722446E+04  0.00000000000E+00 0.  1.
          1   -1    0    0  501    0  0.00000000000E+00 -0.00000000000E+00 -0.70573576382E+03  0.70573576382E+03  0.00000000000E+00 0. -1.
         23    2    1    2    0    0  0.12280330971E+04 -0.21875145562E+03  0.47643846790E+03  0.13383093829E+04  0.90337719688E+02 0.  0.
         13    1    3    3    0    0  0.31932795072E+03 -0.47148689684E+02  0.16494321278E+03  0.36249083091E+03  0.00000000000E+00 0.  1.
        -13    1    3    3    0    0  0.90870514640E+03 -0.17160276594E+03  0.31149525511E+03  0.97581855195E+03  0.00000000000E+00 0. -1.
         22    1    1    2    0    0 -0.12280330971E+04  0.21875145562E+03  0.11406980129E+04  0.16902986255E+04  0.00000000000E+00 0.  1.
<mgrwt>
<rscale>  0 0.25607296E+04</rscale>
<asrwt>0</asrwt>
<pdfrwt beam="1">  1        1 0.10857473E+00 0.25607296E+04</pdfrwt>
<pdfrwt beam="2">  1       -1 0.35736496E+00 0.25607296E+04</pdfrwt>
<totfact> 0.33014507E-01</totfact>
</mgrwt>
</event>
<event>
 6    1  0.1773638E-005  0.2041019E+04  0.7818608E-02  0.8587680E-01
          2   -1    0    0  501    0  0.00000000000E+00  0.00000000000E+00  0.86616464167E+03  0.86616464167E+03  0.00000000000E+00 0. -1.
         -2   -1    0    0    0  501 -0.00000000000E+00 -0.00000000000E+00 -0.12023575093E+04  0.12023575093E+04  0.00000000000E+00 0.  1.
         23    2    1    2    0    0  0.38976160056E+03 -0.91202080818E+03  0.67275791619E+02  0.99778267806E+03  0.85721529824E+02 0.  0.
         13    1    3    3    0    0  0.71851410123E+02 -0.15686116745E+03  0.44212892812E+02  0.17810904211E+03  0.00000000000E+00 0. -1.
        -13    1    3    3    0    0  0.31791019044E+03 -0.75515964073E+03  0.23062898807E+02  0.81967363595E+03  0.00000000000E+00 0.  1.
         22    1    1    2    0    0 -0.38976160056E+03  0.91202080818E+03 -0.40346865924E+03  0.10707394729E+04  0.00000000000E+00 0.  1.
<mgrwt>
<rscale>  0 0.20410189E+04</rscale>
<asrwt>0</asrwt>
<pdfrwt beam="1">  1        2 0.13325610E+00 0.20410189E+04</pdfrwt>
<pdfrwt beam="2">  1       -2 0.18497808E+00 0.20410189E+04</pdfrwt>
<totfact> 0.47981260E+00</totfact>
</mgrwt>
</event>
<event>
 6    1  0.1773638E-005  0.3051804E+04  0.7818608E-02  0.8229091E-01
          2   -1    0    0  501    0  0.00000000000E+00  0.00000000000E+00  0.28953460745E+04  0.28953460745E+04  0.00000000000E+00 0. -1.
         -2   -1    0    0    0  501 -0.00000000000E+00 -0.00000000000E+00 -0.80417925380E+03  0.80417925380E+03  0.00000000000E+00 0.  1.
         23    2    1    2    0    0 -0.42906560799E+03 -0.57141342483E+03 -0.58646906215E+03  0.92818187806E+03  0.83456814401E+02 0.  0.
         13    1    3    3    0    0 -0.84537656381E+02 -0.17404845750E+03 -0.15970289853E+03  0.25088741838E+03  0.00000000000E+00 0.  1.
        -13    1    3    3    0    0 -0.34452795161E+03 -0.39736496733E+03 -0.42676616362E+03  0.67729445968E+03  0.00000000000E+00 0. -1.
         22    1    1    2    0    0  0.42906560799E+03  0.57141342483E+03  0.26776358829E+04  0.27713434503E+04  0.00000000000E+00 0. -1.
<mgrwt>
<rscale>  0 0.30518042E+04</rscale>
<asrwt>0</asrwt>
<pdfrwt beam="1">  1        2 0.44543785E+00 0.30518042E+04</pdfrwt>
<pdfrwt beam="2">  1       -2 0.12371989E+00 0.30518042E+04</pdfrwt>
<totfact> 0.84770920E-01</totfact>
</mgrwt>
</event>
<event>
 6    1  0.1773638E-005  0.2962285E+04  0.7818608E-02  0.8254583E-01
         -2   -1    0    0    0  501 -0.00000000000E+00  0.00000000000E+00  0.22296050613E+04  0.22296050613E+04  0.00000000000E+00 0.  1.
          2   -1    0    0  501    0  0.00000000000E+00 -0.00000000000E+00 -0.98393338026E+03  0.98393338026E+03  0.00000000000E+00 0. -1.
         23    2    1    2    0    0  0.13417991957E+04 -0.50052975419E+03  0.10275226674E+04  0.17649031843E+04  0.90140455243E+02 0.  0.
         13    1    3    3    0    0  0.74120805349E+03 -0.31052019166E+03  0.61449088471E+03  0.10116378875E+04  0.00000000000E+00 0. -1.
        -13    1    3    3    0    0  0.60059114217E+03 -0.19000956253E+03  0.41303178272E+03  0.75326529685E+03  0.00000000000E+00 0.  1.
         22    1    1    2    0    0 -0.13417991957E+04  0.50052975419E+03  0.21814901358E+03  0.14486352572E+04  0.00000000000E+00 0.  1.
<mgrwt>
<rscale>  0 0.29622848E+04</rscale>
<asrwt>0</asrwt>
<pdfrwt beam="1">  1        2 0.15137437E+00 0.29622848E+04</pdfrwt>
<pdfrwt beam="2">  1       -2 0.34301616E+00 0.29622848E+04</pdfrwt>
<totfact> 0.38126258E-01</totfact>
</mgrwt>
</event>
<event>
 6    1  0.1773638E-005  0.2595835E+04  0.7818608E-02  0.8369617E-01
         -2   -1    0    0    0  501 -0.00000000000E+00  0.00000000000E+00  0.85085484884E+03  0.85085484884E+03  0.00000000000E+00 0.  1.
          2   -1    0    0  501    0  0.00000000000E+00 -0.00000000000E+00 -0.19798790001E+04  0.19798790001E+04  0.00000000000E+00 0. -1.
         23    2    1    2    0    0  0.69862925642E+03 -0.59601964766E+03  0.43245373114E+03  0.10192329697E+04  0.92181118412E+02 0.  0.
         13    1    3    3    0    0  0.58757018814E+03 -0.51364121541E+03  0.40101603006E+03  0.87742799164E+03  0.00000000000E+00 0. -1.
        -13    1    3    3    0    0  0.11105906828E+03 -0.82378432248E+02  0.31437701080E+02  0.14180497804E+03  0.00000000000E+00 0.  1.
         22    1    1    2    0    0 -0.69862925642E+03  0.59601964766E+03 -0.15614778824E+04  0.18115008793E+04  0.00000000000E+00 0. -1.
<mgrwt>
<rscale>  0 0.25958349E+04</rscale>
<asrwt>0</asrwt>
<pdfrwt beam="1">  1        2 0.30459677E+00 0.25958349E+04</pdfrwt>
<pdfrwt beam="2">  1       -2 0.13090075E+00 0.25958349E+04</pdfrwt>
<totfact> 0.25889937E+00</totfact>
</mgrwt>
</event>
<event>
 6    1  0.1773638E-005  0.1620332E+04  0.7818608E-02  0.8808154E-01
          2   -1    0    0  501    0  0.00000000000E+00  0.00000000000E+00  0.22735348114E+04  0.22735348114E+04  0.00000000000E+00 0.  1.
         -2   -1    0    0    0  501 -0.00000000000E+00 -0.00000000000E+00 -0.28869983620E+03  0.28869983620E+03  0.00000000000E+00 0. -1.
         23    2    1    2    0    0 -0.11060922276E+03  0.28908965610E+03  0.21751739767E+04  0.21988668382E+04  0.88466455608E+02 0.  0.
         13    1    3    3    0    0 -0.62925390558E+02  0.21063546032E+03  0.12534214353E+04  0.12725534159E+04  0.00000000000E+00 0. -1.
        -13    1    3    3    0    0 -0.47683832203E+02  0.78454195772E+02  0.92175254144E+03  0.92631342230E+03  0.00000000000E+00 0.  1.
         22    1    1    2    0    0  0.11060922276E+03 -0.28908965610E+03 -0.19033900150E+03  0.36336780941E+03  0.00000000000E+00 0. -1.
<mgrwt>
<rscale>  0 0.16203322E+04</rscale>
<asrwt>0</asrwt>
<pdfrwt beam="1">  1        2 0.34977458E+00 0.16203322E+04</pdfrwt>
<pdfrwt beam="2">  1       -2 0.44415361E-01 0.16203322E+04</pdfrwt>
<totfact> 0.21621742E+01</totfact>
</mgrwt>
</event>
<event>
 6    1  0.2832735E-005  0.4026173E+04  0.7818608E-02  0.7999287E-01
         -2   -1    0    0    0  501 -0.00000000000E+00  0.00000000000E+00  0.14433540573E+04  0.14433540573E+04  0.00000000000E+00 0.  1.
          2   -1    0    0  501    0  0.00000000000E+00 -0.00000000000E+00 -0.28077082538E+04  0.28077082538E+04  0.00000000000E+00 0. -1.
         23    2    1    2    0    0 -0.19695881099E+04 -0.15789508597E+03 -0.10835889317E+04  0.22553074878E+04  0.89658857575E+02 0.  0.
         13    1    3    3    0    0 -0.12217451322E+04 -0.14132906193E+03 -0.67886342496E+03  0.14048098168E+04  0.00000000000E+00 0. -1.
        -13    1    3    3    0    0 -0.74784297773E+03 -0.16566024041E+02 -0.40472550673E+03  0.85049767095E+03  0.00000000000E+00 0.  1.
         22    1    1    2    0    0  0.19695881099E+04  0.15789508597E+03 -0.28076526487E+03  0.19957548233E+04  0.00000000000E+00 0.  1.
<mgrwt>
<rscale>  0 0.40261729E+04</rscale>
<asrwt>0</asrwt>
<pdfrwt beam="1">  1        2 0.43195512E+00 0.40261729E+04</pdfrwt>
<pdfrwt beam="2">  1       -2 0.22205447E+00 0.40261729E+04</pdfrwt>
<totfact> 0.17269218E-01</totfact>
</mgrwt>
</event>
<event>
 6    1  0.1773638E-005  0.9850375E+03  0.7818608E-02  0.9325109E-01
          2   -1    0    0  501    0  0.00000000000E+00  0.00000000000E+00  0.79570128648E+03  0.79570128648E+03  0.00000000000E+00 0.  1.
         -2   -1    0    0    0  501 -0.00000000000E+00 -0.00000000000E+00 -0.30485650669E+03  0.30485650669E+03  0.00000000000E+00 0. -1.
         23    2    1    2    0    0  0.16562632556E+03 -0.16823134567E+03  0.72513238576E+03  0.76795510572E+03  0.90577050791E+02 0.  0.
         11    1    3    3    0    0  0.99290494325E+02 -0.45831655655E+02  0.25059909440E+03  0.27342101060E+03  0.00000000000E+00 0. -1.
        -11    1    3    3    0    0  0.66335831234E+02 -0.12239969001E+03  0.47453329137E+03  0.49453409512E+03  0.00000000000E+00 0.  1.
         22    1    1    2    0    0 -0.16562632556E+03  0.16823134567E+03 -0.23428760598E+03  0.33260268745E+03  0.00000000000E+00 0. -1.
<mgrwt>
<rscale>  0 0.98503749E+03</rscale>
<asrwt>0</asrwt>
<pdfrwt beam="1">  1        2 0.12241558E+00 0.98503749E+03</pdfrwt>
<pdfrwt beam="2">  1       -2 0.46901001E-01 0.98503749E+03</pdfrwt>
<totfact> 0.14935195E+02</totfact>
</mgrwt>
</event>
<event>
 6    1  0.1773638E-005  0.3903583E+04  0.7818608E-02  0.8024284E-01
          2   -1    0    0  501    0  0.00000000000E+00  0.00000000000E+00  0.17753248860E+04  0.17753248860E+04  0.00000000000E+00 0. -1.
         -2   -1    0    0    0  501 -0.00000000000E+00 -0.00000000000E+00 -0.21457988840E+04  0.21457988840E+04  0.00000000000E+00 0.  1.
         23    2    1    2    0    0  0.73652856376E+03  0.11055183162E+04 -0.16202948795E+04  0.20972001673E+04  0.90818348030E+02 0.  0.
         11    1    3    3    0    0  0.38113299545E+03  0.60603294798E+03 -0.93748507171E+03  0.11795832120E+04  0.00000000000E+00 0.  1.
        -11    1    3    3    0    0  0.35539556831E+03  0.49948536825E+03 -0.68280980775E+03  0.91761695529E+03  0.00000000000E+00 0. -1.
         22    1    1    2    0    0 -0.73652856376E+03 -0.11055183162E+04  0.12498208815E+04  0.18239236027E+04  0.00000000000E+00 0. -1.
<mgrwt>
<rscale>  0 0.39035831E+04</rscale>
<asrwt>0</asrwt>
<pdfrwt beam="1">  1        2 0.27312691E+00 0.39035831E+04</pdfrwt>
<pdfrwt beam="2">  1       -2 0.33012290E+00 0.39035831E+04</pdfrwt>
<totfact> 0.14669228E-01</totfact>
</mgrwt>
</event>
<event>
 6    1  0.1773638E-005  0.2937851E+04  0.7818608E-02  0.8261704E-01
          2   -1    0    0  501    0  0.00000000000E+00  0.00000000000E+00  0.40340595043E+04  0.40340595043E+04  0.00000000000E+00 0. -1.
         -2   -1    0    0    0  501 -0.00000000000E+00 -0.00000000000E+00 -0.53488105784E+03  0.53488105784E+03  0.00000000000E+00 0.  1.
         23    2    1    2    0    0  0.12341535121E+04  0.73691274619E+03  0.12911085800E+04  0.19342208765E+04  0.89854028874E+02 0.  0.
         11    1    3    3    0    0  0.72361359235E+03  0.40754145269E+03  0.79779531743E+03  0.11516006405E+04  0.00000000000E+00 0.  1.
        -11    1    3    3    0    0  0.51053991979E+03  0.32937129351E+03  0.49331326261E+03  0.78262023597E+03  0.00000000000E+00 0. -1.
         22    1    1    2    0    0 -0.12341535121E+04 -0.73691274619E+03  0.22080698664E+04  0.26347196857E+04  0.00000000000E+00 0. -1.
<mgrwt>
<rscale>  0 0.29378509E+04</rscale>
<asrwt>0</asrwt>
<pdfrwt beam="1">  1        2 0.62062452E+00 0.29378509E+04</pdfrwt>
<pdfrwt beam="2">  1       -2 0.82289396E-01 0.29378509E+04</pdfrwt>
<totfact> 0.35807376E-01</totfact>
</mgrwt>
</event>
<event>
 6    1  0.1773638E-005  0.2976636E+04  0.7818608E-02  0.8250434E-01
          2   -1    0    0  501    0  0.00000000000E+00  0.00000000000E+00  0.15959369408E+04  0.15959369408E+04  0.00000000000E+00 0. -1.
         -2   -1    0    0    0  501 -0.00000000000E+00 -0.00000000000E+00 -0.13879560062E+04  0.13879560062E+04  0.00000000000E+00 0.  1.
         23    2    1    2    0    0  0.12976677103E+04 -0.60672380605E+03 -0.29548195596E+03  0.14654957179E+04  0.91174831629E+02 0.  0.
         11    1    3    3    0    0  0.11265649993E+04 -0.51793199459E+03 -0.28609003931E+03  0.12724974496E+04  0.00000000000E+00 0. -1.
        -11    1    3    3    0    0  0.17110271096E+03 -0.88791811468E+02 -0.93919166476E+01  0.19299826834E+03  0.00000000000E+00 0.  1.
         22    1    1    2    0    0 -0.12976677103E+04  0.60672380605E+03  0.50346289058E+03  0.15183972291E+04  0.00000000000E+00 0. -1.
<mgrwt>
<rscale>  0 0.29766359E+04</rscale>
<asrwt>0</asrwt>
<pdfrwt beam="1">  1        2 0.24552876E+00 0.29766359E+04</pdfrwt>
<pdfrwt beam="2">  1       -2 0.21353169E+00 0.29766359E+04</pdfrwt>
<totfact> 0.10450046E+00</totfact>
</mgrwt>
</event>
<event>
 6    1  0.1773638E-005  0.1984761E+04  0.7818608E-02  0.8613779E-01
         -2   -1    0    0    0  501 -0.00000000000E+00  0.00000000000E+00  0.98589559722E+03  0.98589559722E+03  0.00000000000E+00 0.  1.
          2   -1    0    0  501    0  0.00000000000E+00 -0.00000000000E+00 -0.99890773212E+03  0.99890773212E+03  0.00000000000E+00 0. -1.
         23    2    1    2    0    0 -0.76691533276E+03 -0.48553813909E+03 -0.40236387521E+03  0.99712869170E+03  0.91991997524E+02 0.  0.
         11    1    3    3    0    0 -0.16692740860E+03 -0.90119649188E+02 -0.12342584438E+03  0.22631891210E+03  0.00000000000E+00 0. -1.
        -11    1    3    3    0    0 -0.59998792416E+03 -0.39541848990E+03 -0.27893803084E+03  0.77080977961E+03  0.00000000000E+00 0.  1.
         22    1    1    2    0    0  0.76691533276E+03  0.48553813909E+03  0.38935174032E+03  0.98767463763E+03  0.00000000000E+00 0. -1.
<mgrwt>
<rscale>  0 0.19847607E+04</rscale>
<asrwt>0</asrwt>
<pdfrwt beam="1">  1        2 0.15367811E+00 0.19847607E+04</pdfrwt>
<pdfrwt beam="2">  1       -2 0.15167625E+00 0.19847607E+04</pdfrwt>
<totfact> 0.68260644E+00</totfact>
</mgrwt>
</event>
<event>
 6    1  0.1773638E-005  0.2159607E+04  0.7818608E-02  0.8535431E-01
          4   -1    0    0  501    0  0.00000000000E+00  0.00000000000E+00  0.91121017528E+03  0.91121017528E+03  0.00000000000E+00 0. -1.
         -4   -1    0    0    0  501 -0.00000000000E+00 -0.00000000000E+00 -0.12795905948E+04  0.12795905948E+04  0.00000000000E+00 0.  1.
         23    2    1    2    0    0 -0.78820461759E+03  0.32798977900E+03 -0.85205814564E+03  0.12095831810E+04  0.90799636291E+02 0.  0.
         11    1    3    3    0    0 -0.49065638522E+03  0.22957983560E+03 -0.59091716140E+03  0.80164436062E+03  0.00000000000E+00 0.  1.
        -11    1    3    3    0    0 -0.29754823237E+03  0.98409943394E+02 -0.26114098424E+03  0.40793882041E+03  0.00000000000E+00 0. -1.
         22    1    1    2    0    0  0.78820461759E+03 -0.32798977900E+03  0.48367772612E+03  0.98121758905E+03  0.00000000000E+00 0. -1.
<mgrwt>
<rscale>  0 0.21596073E+04</rscale>
<asrwt>0</asrwt>
<pdfrwt beam="1">  1        4 0.14018618E+00 0.21596073E+04</pdfrwt>
<pdfrwt beam="2">  1       -4 0.19686009E+00 0.21596073E+04</pdfrwt>
<totfact> 0.90137931E-02</totfact>
</mgrwt>
</event>
<event>
 6    1  0.1773638E-005  0.2837000E+04  0.7818608E-02  0.8291872E-01
          2   -1    0    0  501    0  0.00000000000E+00  0.00000000000E+00  0.91857595038E+03  0.91857595038E+03  0.00000000000E+00 0. -1.
         -2   -1    0    0    0  501 -0.00000000000E+00 -0.00000000000E+00 -0.21905021924E+04  0.21905021924E+04  0.00000000000E+00 0.  1.
         23    2    1    2    0    0  0.17969651912E+03 -0.39517801153E+03 -0.21148682201E+04  0.21609179884E+04  0.91882883839E+02 0.  0.
         11    1    3    3    0    0  0.14583477542E+03 -0.35338606382E+03 -0.16924969175E+04  0.17351355300E+04  0.00000000000E+00 0. -1.
        -11    1    3    3    0    0  0.33861743708E+02 -0.41791947708E+02 -0.42237130265E+03  0.42578245840E+03  0.00000000000E+00 0.  1.
         22    1    1    2    0    0 -0.17969651912E+03  0.39517801153E+03  0.84294197814E+03  0.94816015435E+03  0.00000000000E+00 0. -1.
<mgrwt>
<rscale>  0 0.28370003E+04</rscale>
<asrwt>0</asrwt>
<pdfrwt beam="1">  1        2 0.14131938E+00 0.28370003E+04</pdfrwt>
<pdfrwt beam="2">  1       -2 0.33700034E+00 0.28370003E+04</pdfrwt>
<totfact> 0.46397531E-01</totfact>
</mgrwt>
</event>
<event>
 6    1  0.1773638E-005  0.1583785E+04  0.7818608E-02  0.8830572E-01
         -4   -1    0    0    0  501 -0.00000000000E+00  0.00000000000E+00  0.20268456251E+04  0.20268456251E+04  0.00000000000E+00 0.  1.
          4   -1    0    0  501    0  0.00000000000E+00 -0.00000000000E+00 -0.30939389027E+03  0.30939389027E+03  0.00000000000E+00 0. -1.
         23    2    1    2    0    0  0.36185963847E+03  0.63669350715E+02 -0.16869650385E+03  0.41463826577E+03  0.92033672402E+02 0.  0.
         11    1    3    3    0    0  0.22096615867E+03  0.69656530087E+02 -0.14008883469E+03  0.27074518844E+03  0.00000000000E+00 0.  1.
        -11    1    3    3    0    0  0.14089347981E+03 -0.59871793714E+01 -0.28607669157E+02  0.14389307733E+03  0.00000000000E+00 0. -1.
         22    1    1    2    0    0 -0.36185963847E+03 -0.63669350715E+02  0.18861482386E+04  0.19216012496E+04  0.00000000000E+00 0.  1.
<mgrwt>
<rscale>  0 0.15837849E+04</rscale>
<asrwt>0</asrwt>
<pdfrwt beam="1">  1        4 0.47599061E-01 0.15837849E+04</pdfrwt>
<pdfrwt beam="2">  1       -4 0.31182240E+00 0.15837849E+04</pdfrwt>
<totfact> 0.21513369E-01</totfact>
</mgrwt>
</event>
<event>
 6    1  0.1773638E-005  0.1636914E+04  0.7818608E-02  0.8798186E-01
          1   -1    0    0  501    0  0.00000000000E+00  0.00000000000E+00  0.10989846991E+04  0.10989846991E+04  0.00000000000E+00 0. -1.
         -1   -1    0    0    0  501 -0.00000000000E+00 -0.00000000000E+00 -0.60953718364E+03  0.60953718364E+03  0.00000000000E+00 0.  1.
         23    2    1    2    0    0  0.64232097072E+03 -0.47352367560E+03  0.67561134518E+02  0.80586523749E+03  0.89740589007E+02 0.  0.
         11    1    3    3    0    0  0.12131189959E+03 -0.53059280742E+02 -0.45431063611E+01  0.13248586366E+03  0.00000000000E+00 0.  1.
        -11    1    3    3    0    0  0.52100907114E+03 -0.42046439486E+03  0.72104240879E+02  0.67337937383E+03  0.00000000000E+00 0. -1.
         22    1    1    2    0    0 -0.64232097072E+03  0.47352367560E+03  0.42188638094E+03  0.90265664525E+03  0.00000000000E+00 0.  1.
<mgrwt>
<rscale>  0 0.16369142E+04</rscale>
<asrwt>0</asrwt>
<pdfrwt beam="1">  1        1 0.16907457E+00 0.16369142E+04</pdfrwt>
<pdfrwt beam="2">  1       -1 0.93774952E-01 0.16369142E+04</pdfrwt>
<totfact> 0.13396747E+01</totfact>
</mgrwt>
</event>
<event>
 6    1  0.1773638E-005  0.4652432E+04  0.7818608E-02  0.7884481E-01
         -1   -1    0    0    0  501 -0.00000000000E+00  0.00000000000E+00  0.14466311866E+04  0.14466311866E+04  0.00000000000E+00 0.  1.
          1   -1    0    0  501    0  0.00000000000E+00 -0.00000000000E+00 -0.37406082936E+04  0.37406082936E+04  0.00000000000E+00 0. -1.
         23    2    1    2    0    0  0.16480556695E+04 -0.31385811796E+03 -0.29426578097E+04  0.33885229761E+04  0.90876656891E+02 0.  0.
         11    1    3    3    0    0  0.79647490356E+03 -0.19353918458E+03 -0.13970340437E+04  0.16197326345E+04  0.00000000000E+00 0. -1.
        -11    1    3    3    0    0  0.85158076591E+03 -0.12031893338E+03 -0.15456237660E+04  0.17687903416E+04  0.00000000000E+00 0.  1.
         22    1    1    2    0    0 -0.16480556695E+04  0.31385811796E+03  0.64868070272E+03  0.17987165041E+04  0.00000000000E+00 0.  1.
<mgrwt>
<rscale>  0 0.46524319E+04</rscale>
<asrwt>0</asrwt>
<pdfrwt beam="1">  1        1 0.57547819E+00 0.46524319E+04</pdfrwt>
<pdfrwt beam="2">  1       -1 0.22255865E+00 0.46524319E+04</pdfrwt>
<totfact> 0.12514910E-02</totfact>
</mgrwt>
</event>
<event>
 6    1  0.1773638E-005  0.5212780E+04  0.7818608E-02  0.7796497E-01
         -2   -1    0    0    0  501 -0.00000000000E+00  0.00000000000E+00  0.17422511696E+04  0.17422511696E+04  0.00000000000E+00 0.  1.
          2   -1    0    0  501    0  0.00000000000E+00 -0.00000000000E+00 -0.38991333857E+04  0.38991333857E+04  0.00000000000E+00 0. -1.
         23    2    1    2    0    0 -0.14525432421E+04 -0.84121284136E+03  0.10780801440E+04  0.19968677991E+04  0.87768420515E+02 0.  0.
         13    1    3    3    0    0 -0.10039642134E+04 -0.61464074317E+03  0.78861546194E+03  0.14169127467E+04  0.00000000000E+00 0. -1.
        -13    1    3    3    0    0 -0.44857902872E+03 -0.22657209819E+03  0.28946468211E+03  0.57995505246E+03  0.00000000000E+00 0.  1.
         22    1    1    2    0    0  0.14525432421E+04  0.84121284136E+03 -0.32349623601E+04  0.36445167562E+04  0.00000000000E+00 0. -1.
<mgrwt>
<rscale>  0 0.52127803E+04</rscale>
<asrwt>0</asrwt>
<pdfrwt beam="1">  1        2 0.59986667E+00 0.52127803E+04</pdfrwt>
<pdfrwt beam="2">  1       -2 0.26803864E+00 0.52127803E+04</pdfrwt>
<totfact> 0.14623796E-02</totfact>
</mgrwt>
</event>
<event>
 6    1  0.1773638E-005  0.3932933E+04  0.7818608E-02  0.8018214E-01
         -2   -1    0    0    0  501 -0.00000000000E+00  0.00000000000E+00  0.18040223799E+04  0.18040223799E+04  0.00000000000E+00 0. -1.
          2   -1    0    0  501    0  0.00000000000E+00 -0.00000000000E+00 -0.21435377130E+04  0.21435377130E+04  0.00000000000E+00 0.  1.
         23    2    1    2    0    0 -0.19544313084E+04  0.14445748343E+03 -0.31962087224E+03  0.19876964515E+04  0.90055413381E+02 0.  0.
         11    1    3    3    0    0 -0.13990273184E+04  0.13789266861E+03 -0.25086433252E+03  0.14280142642E+04  0.00000000000E+00 0.  1.
        -11    1    3    3    0    0 -0.55540399003E+03  0.65648148159E+01 -0.68756539718E+02  0.55968218722E+03  0.00000000000E+00 0. -1.
         22    1    1    2    0    0  0.19544313084E+04 -0.14445748343E+03 -0.19894460856E+02  0.19598636415E+04  0.00000000000E+00 0.  1.
<mgrwt>
<rscale>  0 0.39329328E+04</rscale>
<asrwt>0</asrwt>
<pdfrwt beam="1">  1        2 0.32977503E+00 0.39329328E+04</pdfrwt>
<pdfrwt beam="2">  1       -2 0.27754190E+00 0.39329328E+04</pdfrwt>
<totfact> 0.19208329E-01</totfact>
</mgrwt>
</event>
<event>
 6    1  0.1773638E-005  0.1628949E+04  0.7818608E-02  0.8802958E-01
          1   -1    0    0  501    0  0.00000000000E+00  0.00000000000E+00  0.11159141510E+04  0.11159141510E+04  0.00000000000E+00 0. -1.
         -1   -1    0    0    0  501 -0.00000000000E+00 -0.00000000000E+00 -0.59446227139E+03  0.59446227139E+03  0.00000000000E+00 0.  1.
         23    2    1    2    0    0 -0.74173682466E+03 -0.32953941671E+03  0.28642356681E+03  0.86538645083E+03  0.89919438587E+02 0.  0.
         11    1    3    3    0    0 -0.24350947685E+03 -0.15214703033E+03  0.84834976335E+02  0.29940366960E+03  0.00000000000E+00 0. -1.
        -11    1    3    3    0    0 -0.49822734781E+03 -0.17739238637E+03  0.20158859048E+03  0.56598278124E+03  0.00000000000E+00 0.  1.
         22    1    1    2    0    0  0.74173682466E+03  0.32953941671E+03  0.23502831280E+03  0.84498997156E+03  0.00000000000E+00 0. -1.
<mgrwt>
<rscale>  0 0.16289492E+04</rscale>
<asrwt>0</asrwt>
<pdfrwt beam="1">  1        1 0.17167910E+00 0.16289492E+04</pdfrwt>
<pdfrwt beam="2">  1       -1 0.91455734E-01 0.16289492E+04</pdfrwt>
<totfact> 0.13765900E+01</totfact>
</mgrwt>
</event>
<event>
 6    1  0.1773638E-005  0.2666885E+04  0.7818608E-02  0.8345830E-01
         -2   -1    0    0    0  501 -0.00000000000E+00  0.00000000000E+00  0.94218104755E+03  0.94218104755E+03  0.00000000000E+00 0.  1.
          2   -1    0    0  501    0  0.00000000000E+00 -0.00000000000E+00 -0.18871839322E+04  0.18871839322E+04  0.00000000000E+00 0. -1.
         23    2    1    2    0    0  0.10694197285E+04 -0.72935065205E+03 -0.14051109754E+03  0.13052855970E+04  0.91739804754E+02 0.  0.
         11    1    3    3    0    0  0.19216964565E+03 -0.94226704921E+02 -0.79545594789E+01  0.21417544128E+03  0.00000000000E+00 0. -1.
        -11    1    3    3    0    0  0.87725008289E+03 -0.63512394713E+03 -0.13255653807E+03  0.10911101557E+04  0.00000000000E+00 0.  1.
         22    1    1    2    0    0 -0.10694197285E+04  0.72935065205E+03 -0.80449178714E+03  0.15240793828E+04  0.00000000000E+00 0.  1.
<mgrwt>
<rscale>  0 0.26668850E+04</rscale>
<asrwt>0</asrwt>
<pdfrwt beam="1">  1        2 0.29033599E+00 0.26668850E+04</pdfrwt>
<pdfrwt beam="2">  1       -2 0.14495093E+00 0.26668850E+04</pdfrwt>
<totfact> 0.22272147E+00</totfact>
</mgrwt>
</event>
<event>
 6    1  0.1773638E-005  0.3587590E+04  0.7818608E-02  0.8093340E-01
          1   -1    0    0  501    0  0.00000000000E+00  0.00000000000E+00  0.20369743401E+04  0.20369743401E+04  0.00000000000E+00 0. -1.
         -1   -1    0    0    0  501 -0.00000000000E+00 -0.00000000000E+00 -0.15796467774E+04  0.15796467774E+04  0.00000000000E+00 0.  1.
         23    2    1    2    0    0 -0.15185656892E+03 -0.29523834396E+03  0.20047595254E+04  0.20339740386E+04  0.88110940156E+02 0.  0.
         13    1    3    3    0    0 -0.53493262970E+02 -0.40022808129E+02  0.29460067661E+03  0.30208097095E+03  0.00000000000E+00 0. -1.
        -13    1    3    3    0    0 -0.98363305948E+02 -0.25521553583E+03  0.17101588488E+04  0.17318930676E+04  0.00000000000E+00 0.  1.
         22    1    1    2    0    0  0.15185656892E+03  0.29523834396E+03 -0.15474319627E+04  0.15826470789E+04  0.00000000000E+00 0.  1.
<mgrwt>
<rscale>  0 0.35875897E+04</rscale>
<asrwt>0</asrwt>
<pdfrwt beam="1">  1        1 0.31338067E+00 0.35875897E+04</pdfrwt>
<pdfrwt beam="2">  1       -1 0.24302258E+00 0.35875897E+04</pdfrwt>
<totfact> 0.17644193E-01</totfact>
</mgrwt>
</event>
<event>
 6    1  0.1773638E-005  0.4396004E+04  0.7818608E-02  0.7929101E-01
         -2   -1    0    0    0  501 -0.00000000000E+00  0.00000000000E+00  0.17793435440E+04  0.17793435440E+04  0.00000000000E+00 0.  1.
          2   -1    0    0  501    0  0.00000000000E+00 -0.00000000000E+00 -0.27151661871E+04  0.27151661871E+04  0.00000000000E+00 0. -1.
         23    2    1    2    0    0 -0.95072166812E+03  0.59620337312E+03 -0.23992602733E+04  0.26503351597E+04  0.92176176943E+02 0.  0.
         11    1    3    3    0    0 -0.31233790856E+02  0.10589762529E+02 -0.10867395349E+03  0.11356813342E+03  0.00000000000E+00 0. -1.
        -11    1    3    3    0    0 -0.91948787726E+03  0.58561361059E+03 -0.22905863198E+04  0.25367670263E+04  0.00000000000E+00 0.  1.
         22    1    1    2    0    0  0.95072166812E+03 -0.59620337312E+03  0.14634376302E+04  0.18441745714E+04  0.00000000000E+00 0.  1.
<mgrwt>
<rscale>  0 0.43960043E+04</rscale>
<asrwt>0</asrwt>
<pdfrwt beam="1">  1        2 0.41771787E+00 0.43960043E+04</pdfrwt>
<pdfrwt beam="2">  1       -2 0.27374516E+00 0.43960043E+04</pdfrwt>
<totfact> 0.91360840E-02</totfact>
</mgrwt>
</event>
<event>
 6    1  0.1773638E-005  0.1811273E+04  0.7818608E-02  0.8700328E-01
          2   -1    0    0  501    0  0.00000000000E+00  0.00000000000E+00  0.21649741021E+04  0.21649741021E+04  0.00000000000E+00 0. -1.
         -2   -1    0    0    0  501 -0.00000000000E+00 -0.00000000000E+00 -0.37883931288E+03  0.37883931288E+03  0.00000000000E+00 0.  1.
         23    2    1    2    0    0 -0.16444787758E+03  0.74072015622E+03  0.15842961619E+04  0.17586712077E+04  0.84974313216E+02 0.  0.
         11    1    3    3    0    0 -0.48753270045E+02  0.41398652477E+03  0.85617730356E+03  0.95226115072E+03  0.00000000000E+00 0.  1.
        -11    1    3    3    0    0 -0.11569460753E+03  0.32673363145E+03  0.72811885830E+03  0.80641005694E+03  0.00000000000E+00 0. -1.
         22    1    1    2    0    0  0.16444787758E+03 -0.74072015622E+03  0.20183862740E+03  0.78514220736E+03  0.00000000000E+00 0.  1.
<mgrwt>
<rscale>  0 0.18112728E+04</rscale>
<asrwt>0</asrwt>
<pdfrwt beam="1">  1        2 0.33307293E+00 0.18112728E+04</pdfrwt>
<pdfrwt beam="2">  1       -2 0.58282972E-01 0.18112728E+04</pdfrwt>
<totfact> 0.14037013E+01</totfact>
</mgrwt>
</event>
<event>
 6    1  0.1773638E-005  0.2728314E+04  0.7818608E-02  0.8325876E-01
         -1   -1    0    0    0  501 -0.00000000000E+00  0.00000000000E+00  0.80374586099E+03  0.80374586099E+03  0.00000000000E+00 0.  1.
          1   -1    0    0  501    0  0.00000000000E+00 -0.00000000000E+00 -0.23153149868E+04  0.23153149868E+04  0.00000000000E+00 0. -1.
         23    2    1    2    0    0 -0.21344852334E+03 -0.84857082271E+03 -0.19508145408E+04  0.21399953505E+04  0.90939618489E+02 0.  0.
         13    1    3    3    0    0 -0.59259371762E+02 -0.11666292821E+03 -0.32621918791E+03  0.35148381260E+03  0.00000000000E+00 0. -1.
        -13    1    3    3    0    0 -0.15418915158E+03 -0.73190789450E+03 -0.16245953529E+04  0.17885115379E+04  0.00000000000E+00 0.  1.
         22    1    1    2    0    0  0.21344852334E+03  0.84857082271E+03  0.43924541504E+03  0.97906549725E+03  0.00000000000E+00 0.  1.
<mgrwt>
<rscale>  0 0.27283144E+04</rscale>
<asrwt>0</asrwt>
<pdfrwt beam="1">  1        1 0.35620230E+00 0.27283144E+04</pdfrwt>
<pdfrwt beam="2">  1       -1 0.12365321E+00 0.27283144E+04</pdfrwt>
<totfact> 0.90945158E-01</totfact>
</mgrwt>
</event>
<event>
 6    1  0.1773638E-005  0.3055644E+04  0.7818608E-02  0.8228018E-01
         -2   -1    0    0    0  501 -0.00000000000E+00  0.00000000000E+00  0.86121926080E+03  0.86121926080E+03  0.00000000000E+00 0.  1.
          2   -1    0    0  501    0  0.00000000000E+00 -0.00000000000E+00 -0.27103895138E+04  0.27103895138E+04  0.00000000000E+00 0. -1.
         23    2    1    2    0    0 -0.39540438170E+03  0.11673250349E+04  0.12718522254E+03  0.12424515605E+04  0.92289962594E+02 0.  0.
         13    1    3    3    0    0 -0.15997841623E+03  0.58635220811E+03  0.34359698493E+02  0.60875495439E+03  0.00000000000E+00 0. -1.
        -13    1    3    3    0    0 -0.23542596546E+03  0.58097282679E+03  0.92825524051E+02  0.63369660611E+03  0.00000000000E+00 0.  1.
         22    1    1    2    0    0  0.39540438170E+03 -0.11673250349E+04 -0.19763554755E+04  0.23291572141E+04  0.00000000000E+00 0. -1.
<mgrwt>
<rscale>  0 0.30556437E+04</rscale>
<asrwt>0</asrwt>
<pdfrwt beam="1">  1        2 0.41698299E+00 0.30556437E+04</pdfrwt>
<pdfrwt beam="2">  1       -2 0.13249527E+00 0.30556437E+04</pdfrwt>
<totfact> 0.92277984E-01</totfact>
</mgrwt>
</event>
<event>
 6    1  0.1773638E-005  0.2314270E+04  0.7818608E-02  0.8472316E-01
          1   -1    0    0  501    0  0.00000000000E+00  0.00000000000E+00  0.18648740057E+04  0.18648740057E+04  0.00000000000E+00 0. -1.
         -1   -1    0    0    0  501 -0.00000000000E+00 -0.00000000000E+00 -0.71799043691E+03  0.71799043691E+03  0.00000000000E+00 0.  1.
         23    2    1    2    0    0 -0.96094902520E+03  0.37740829820E+03 -0.45712209168E+01  0.10363495913E+04  0.90219325762E+02 0.  0.
         11    1    3    3    0    0 -0.47061522535E+03  0.17191599698E+03 -0.45676486161E+02  0.50311046673E+03  0.00000000000E+00 0. -1.
        -11    1    3    3    0    0 -0.49033379985E+03  0.20549230122E+03  0.41105265244E+02  0.53323912457E+03  0.00000000000E+00 0.  1.
         22    1    1    2    0    0  0.96094902520E+03 -0.37740829820E+03  0.11514547897E+04  0.15465148513E+04  0.00000000000E+00 0. -1.
<mgrwt>
<rscale>  0 0.23142703E+04</rscale>
<asrwt>0</asrwt>
<pdfrwt beam="1">  1        1 0.28690369E+00 0.23142703E+04</pdfrwt>
<pdfrwt beam="2">  1       -1 0.11046007E+00 0.23142703E+04</pdfrwt>
<totfact> 0.25106580E+00</totfact>
</mgrwt>
</event>
<event>
 6    1  0.1773638E-005  0.5570420E+03  0.7818608E-02  0.9998770E-01
          2   -1    0    0  501    0  0.00000000000E+00  0.00000000000E+00  0.98282763219E+02  0.98282763219E+02  0.00000000000E+00 0. -1.
         -2   -1    0    0    0  501 -0.00000000000E+00 -0.00000000000E+00 -0.78929355956E+03  0.78929355956E+03  0.00000000000E+00 0.  1.
         23    2    1    2    0    0 -0.14009045728E+03  0.10808600144E+02  0.15981984927E+02  0.16675668180E+03  0.88375364353E+02 0.  0.
         13    1    3    3    0    0 -0.17828040529E+02 -0.22530916583E+02  0.27161856969E+02  0.39537927426E+02  0.00000000000E+00 0. -1.
        -13    1    3    3    0    0 -0.12226241675E+03  0.33339516727E+02 -0.11179872042E+02  0.12721875437E+03  0.00000000000E+00 0.  1.
         22    1    1    2    0    0  0.14009045728E+03 -0.10808600144E+02 -0.70699278127E+03  0.72081964098E+03  0.00000000000E+00 0.  1.
<mgrwt>
<rscale>  0 0.55704202E+03</rscale>
<asrwt>0</asrwt>
<pdfrwt beam="1">  1        2 0.15120425E-01 0.55704202E+03</pdfrwt>
<pdfrwt beam="2">  1       -2 0.12142978E+00 0.55704202E+03</pdfrwt>
<totfact> 0.20762219E+02</totfact>
</mgrwt>
</event>
<event>
 6    1  0.1773638E-005  0.1498664E+04  0.7818608E-02  0.8885342E-01
         -2   -1    0    0    0  501 -0.00000000000E+00  0.00000000000E+00  0.36426236973E+03  0.36426236973E+03  0.00000000000E+00 0. -1.
          2   -1    0    0  501    0  0.00000000000E+00 -0.00000000000E+00 -0.15414671427E+04  0.15414671427E+04  0.00000000000E+00 0.  1.
         23    2    1    2    0    0 -0.71946263218E+03  0.18396917722E+03 -0.49338771695E+03  0.89623612296E+03  0.91305046947E+02 0.  0.
         13    1    3    3    0    0 -0.21077572839E+03  0.95968157988E+02 -0.13994059908E+03  0.27059132710E+03  0.00000000000E+00 0. -1.
        -13    1    3    3    0    0 -0.50868690378E+03  0.88001019236E+02 -0.35344711786E+03  0.62564479587E+03  0.00000000000E+00 0.  1.
         22    1    1    2    0    0  0.71946263218E+03 -0.18396917722E+03 -0.68381705603E+03  0.10094933895E+04  0.00000000000E+00 0.  1.
<mgrwt>
<rscale>  0 0.14986640E+04</rscale>
<asrwt>0</asrwt>
<pdfrwt beam="1">  1        2 0.23714879E+00 0.14986640E+04</pdfrwt>
<pdfrwt beam="2">  1       -2 0.56040365E-01 0.14986640E+04</pdfrwt>
<totfact> 0.34744578E+01</totfact>
</mgrwt>
</event>
<event>
 6    1  0.1773638E-005  0.2425892E+04  0.7818608E-02  0.8429873E-01
         -2   -1    0    0    0  501 -0.00000000000E+00  0.00000000000E+00  0.97034836092E+03  0.97034836092E+03  0.00000000000E+00 0.  1.
          2   -1    0    0  501    0  0.00000000000E+00 -0.00000000000E+00 -0.15161957401E+04  0.15161957401E+04  0.00000000000E+00 0. -1.
         23    2    1    2    0    0  0.62301725980E+03  0.55760303784E+03 -0.11717029455E+04  0.14421462632E+04  0.88466931719E+02 0.  0.
         13    1    3    3    0    0  0.15127161933E+03  0.18840261521E+03 -0.32616532671E+03  0.40590943396E+03  0.00000000000E+00 0. -1.
        -13    1    3    3    0    0  0.47174564047E+03  0.36920042262E+03 -0.84553761881E+03  0.10362368292E+04  0.00000000000E+00 0.  1.
         22    1    1    2    0    0 -0.62301725980E+03 -0.55760303784E+03  0.62585556634E+03  0.10443978379E+04  0.00000000000E+00 0.  1.
<mgrwt>
<rscale>  0 0.24258920E+04</rscale>
<asrwt>0</asrwt>
<pdfrwt beam="1">  1        2 0.23326088E+00 0.24258920E+04</pdfrwt>
<pdfrwt beam="2">  1       -2 0.14928437E+00 0.24258920E+04</pdfrwt>
<totfact> 0.33848937E+00</totfact>
</mgrwt>
</event>
<event>
 6    1  0.1773638E-005  0.4822402E+03  0.7818608E-02  0.1018521E+00
          2   -1    0    0  501    0  0.00000000000E+00  0.00000000000E+00  0.75719700458E+02  0.75719700458E+02  0.00000000000E+00 0. -1.
         -2   -1    0    0    0  501 -0.00000000000E+00 -0.00000000000E+00 -0.76781727069E+03  0.76781727069E+03  0.00000000000E+00 0.  1.
         23    2    1    2    0    0  0.17951441323E+03 -0.16769820734E+02 -0.10212859776E+03  0.22663338069E+03  0.91792087434E+02 0.  0.
         13    1    3    3    0    0  0.50098357308E+01  0.20769085936E+02 -0.79704140762E+00  0.21379631888E+02  0.00000000000E+00 0.  1.
        -13    1    3    3    0    0  0.17450457750E+03 -0.37538906670E+02 -0.10133155636E+03  0.20525374880E+03  0.00000000000E+00 0. -1.
         22    1    1    2    0    0 -0.17951441323E+03  0.16769820734E+02 -0.58996897247E+03  0.61690359046E+03  0.00000000000E+00 0. -1.
<mgrwt>
<rscale>  0 0.48224016E+03</rscale>
<asrwt>0</asrwt>
<pdfrwt beam="1">  1        2 0.11649185E-01 0.48224016E+03</pdfrwt>
<pdfrwt beam="2">  1       -2 0.11812573E+00 0.48224016E+03</pdfrwt>
<totfact> 0.30649052E+02</totfact>
</mgrwt>
</event>
<event>
 6    1  0.1773638E-005  0.5328844E+03  0.7818608E-02  0.1005535E+00
         -1   -1    0    0    0  501 -0.00000000000E+00  0.00000000000E+00  0.13518701466E+03  0.13518701466E+03  0.00000000000E+00 0.  1.
          1   -1    0    0  501    0  0.00000000000E+00 -0.00000000000E+00 -0.52513514261E+03  0.52513514261E+03  0.00000000000E+00 0. -1.
         23    2    1    2    0    0  0.19491785880E+03  0.12372409629E+03 -0.34552796738E+03  0.42521840496E+03  0.90113772502E+02 0.  0.
         11    1    3    3    0    0  0.14832464748E+03  0.65128992233E+02 -0.28939301948E+03  0.33164786506E+03  0.00000000000E+00 0.  1.
        -11    1    3    3    0    0  0.46593211324E+02  0.58595104057E+02 -0.56134947901E+02  0.93570539898E+02  0.00000000000E+00 0. -1.
         22    1    1    2    0    0 -0.19491785880E+03 -0.12372409629E+03 -0.44420160575E+02  0.23510375230E+03  0.00000000000E+00 0.  1.
<mgrwt>
<rscale>  0 0.53288442E+03</rscale>
<asrwt>0</asrwt>
<pdfrwt beam="1">  1        1 0.80790022E-01 0.53288442E+03</pdfrwt>
<pdfrwt beam="2">  1       -1 0.20798002E-01 0.53288442E+03</pdfrwt>
<totfact> 0.79801161E+02</totfact>
</mgrwt>
</event>
<event>
 6    1  0.1773638E-005  0.2758509E+04  0.7818608E-02  0.8316267E-01
          2   -1    0    0  501    0  0.00000000000E+00  0.00000000000E+00  0.15612508114E+04  0.15612508114E+04  0.00000000000E+00 0. -1.
         -2   -1    0    0    0  501 -0.00000000000E+00 -0.00000000000E+00 -0.12184733798E+04  0.12184733798E+04  0.00000000000E+00 0.  1.
         23    2    1    2    0    0 -0.47402700123E+03  0.72003739713E+03  0.12545377155E+04  0.15249484078E+04  0.91909279969E+02 0.  0.
         11    1    3    3    0    0 -0.42352662184E+03  0.64406729540E+03  0.10660448116E+04  0.13155413414E+04  0.00000000000E+00 0. -1.
        -11    1    3    3    0    0 -0.50500379390E+02  0.75970101727E+02  0.18849290391E+03  0.20940706649E+03  0.00000000000E+00 0.  1.
         22    1    1    2    0    0  0.47402700123E+03 -0.72003739713E+03 -0.91176028397E+03  0.12547757834E+04  0.00000000000E+00 0.  1.
<mgrwt>
<rscale>  0 0.27585087E+04</rscale>
<asrwt>0</asrwt>
<pdfrwt beam="1">  1        2 0.24019243E+00 0.27585087E+04</pdfrwt>
<pdfrwt beam="2">  1       -2 0.18745744E+00 0.27585087E+04</pdfrwt>
<totfact> 0.16507510E+00</totfact>
</mgrwt>
</event>
<event>
 6    1  0.1773638E-005  0.1897476E+04  0.7818608E-02  0.8656114E-01
         -2   -1    0    0    0  501 -0.00000000000E+00  0.00000000000E+00  0.55776821798E+03  0.55776821798E+03  0.00000000000E+00 0.  1.
          2   -1    0    0  501    0  0.00000000000E+00 -0.00000000000E+00 -0.16137588006E+04  0.16137588006E+04  0.00000000000E+00 0. -1.
         23    2    1    2    0    0 -0.26046505454E+03 -0.51700464381E+03 -0.13862272691E+04  0.15050496255E+04  0.91719612507E+02 0.  0.
         11    1    3    3    0    0 -0.41734809752E+02 -0.42793548442E+02 -0.20489530931E+03  0.21343657116E+03  0.00000000000E+00 0. -1.
        -11    1    3    3    0    0 -0.21873024479E+03 -0.47421109537E+03 -0.11813319598E+04  0.12916130543E+04  0.00000000000E+00 0.  1.
         22    1    1    2    0    0  0.26046505454E+03  0.51700464381E+03  0.33023668648E+03  0.66647739306E+03  0.00000000000E+00 0.  1.
<mgrwt>
<rscale>  0 0.18974756E+04</rscale>
<asrwt>0</asrwt>
<pdfrwt beam="1">  1        2 0.24827058E+00 0.18974756E+04</pdfrwt>
<pdfrwt beam="2">  1       -2 0.85810497E-01 0.18974756E+04</pdfrwt>
<totfact> 0.12100915E+01</totfact>
</mgrwt>
</event>
<event>
 6    1  0.1773638E-005  0.2207279E+04  0.7818608E-02  0.8515405E-01
          2   -1    0    0  501    0  0.00000000000E+00  0.00000000000E+00  0.19457266435E+04  0.19457266435E+04  0.00000000000E+00 0. -1.
         -2   -1    0    0    0  501 -0.00000000000E+00 -0.00000000000E+00 -0.62599758157E+03  0.62599758157E+03  0.00000000000E+00 0.  1.
         23    2    1    2    0    0  0.43822170113E+03 -0.85736273538E+03  0.12848456209E+04  0.16082274821E+04  0.91968719105E+02 0.  0.
         13    1    3    3    0    0  0.15760137581E+03 -0.23367372637E+03  0.41625517262E+03  0.50270266837E+03  0.00000000000E+00 0. -1.
        -13    1    3    3    0    0  0.28062032532E+03 -0.62368900900E+03  0.86859044825E+03  0.11055248137E+04  0.00000000000E+00 0.  1.
         22    1    1    2    0    0 -0.43822170113E+03  0.85736273538E+03  0.34883441099E+02  0.96349674302E+03  0.00000000000E+00 0.  1.
<mgrwt>
<rscale>  0 0.22072790E+04</rscale>
<asrwt>0</asrwt>
<pdfrwt beam="1">  1        2 0.29934256E+00 0.22072790E+04</pdfrwt>
<pdfrwt beam="2">  1       -2 0.96307321E-01 0.22072790E+04</pdfrwt>
<totfact> 0.59051568E+00</totfact>
</mgrwt>
</event>
<event>
 6    1  0.1773638E-005  0.2040194E+04  0.7818608E-02  0.8588056E-01
          2   -1    0    0  501    0  0.00000000000E+00  0.00000000000E+00  0.45365372500E+03  0.45365372500E+03  0.00000000000E+00 0. -1.
         -2   -1    0    0    0  501 -0.00000000000E+00 -0.00000000000E+00 -0.22938159152E+04  0.22938159152E+04  0.00000000000E+00 0.  1.
         23    2    1    2    0    0  0.51720601183E+03 -0.12332214623E+03  0.24712582964E+03  0.59352403082E+03  0.92136795332E+02 0.  0.
         11    1    3    3    0    0  0.40906998275E+03 -0.13001438081E+03  0.17597293146E+03  0.46390566132E+03  0.00000000000E+00 0. -1.
        -11    1    3    3    0    0  0.10813602908E+03  0.66922345790E+01  0.71152898186E+02  0.12961836949E+03  0.00000000000E+00 0.  1.
         22    1    1    2    0    0 -0.51720601183E+03  0.12332214623E+03 -0.20872880198E+04  0.21539456094E+04  0.00000000000E+00 0.  1.
<mgrwt>
<rscale>  0 0.20401942E+04</rscale>
<asrwt>0</asrwt>
<pdfrwt beam="1">  1        2 0.69792881E-01 0.20401942E+04</pdfrwt>
<pdfrwt beam="2">  1       -2 0.35289475E+00 0.20401942E+04</pdfrwt>
<totfact> 0.95397851E-01</totfact>
</mgrwt>
</event>
<event>
 6    1  0.1773638E-005  0.6923447E+04  0.7818608E-02  0.7585382E-01
          1   -1    0    0  501    0  0.00000000000E+00  0.00000000000E+00  0.51459997394E+04  0.51459997394E+04  0.00000000000E+00 0. -1.
         -1   -1    0    0    0  501 -0.00000000000E+00 -0.00000000000E+00 -0.23287080948E+04  0.23287080948E+04  0.00000000000E+00 0.  1.
         23    2    1    2    0    0  0.11274113671E+04  0.24151356555E+04 -0.97497357072E+03  0.28394934823E+04  0.90626415060E+02 0.  0.
         13    1    3    3    0    0  0.93655923379E+03  0.20553038886E+04 -0.79898103998E+03  0.23957854610E+04  0.00000000000E+00 0.  1.
        -13    1    3    3    0    0  0.19085213334E+03  0.35983176687E+03 -0.17599253074E+03  0.44370802125E+03  0.00000000000E+00 0. -1.
         22    1    1    2    0    0 -0.11274113671E+04 -0.24151356555E+04  0.37922652153E+04  0.46352143519E+04  0.00000000000E+00 0. -1.
<mgrwt>
<rscale>  0 0.69234475E+04</rscale>
<asrwt>0</asrwt>
<pdfrwt beam="1">  1        1 0.79169226E+00 0.69234475E+04</pdfrwt>
<pdfrwt beam="2">  1       -1 0.35826279E+00 0.69234475E+04</pdfrwt>
<totfact> 0.45989738E-05</totfact>
</mgrwt>
</event>
<event>
 6    1  0.1773638E-005  0.9236512E+03  0.7818608E-02  0.9396490E-01
          2   -1    0    0  501    0  0.00000000000E+00  0.00000000000E+00  0.21921115668E+04  0.21921115668E+04  0.00000000000E+00 0.  1.
         -2   -1    0    0    0  501 -0.00000000000E+00 -0.00000000000E+00 -0.97295625114E+02  0.97295625114E+02  0.00000000000E+00 0. -1.
         23    2    1    2    0    0  0.19080359073E+03 -0.62419894122E+01  0.20876836844E+04  0.20983683431E+04  0.91003100044E+02 0.  0.
         11    1    3    3    0    0  0.10551888130E+02  0.22287953484E+02  0.42136728864E+03  0.42208824569E+03  0.00000000000E+00 0. -1.
        -11    1    3    3    0    0  0.18025170260E+03 -0.28529942896E+02  0.16663163958E+04  0.16762800974E+04  0.00000000000E+00 0.  1.
         22    1    1    2    0    0 -0.19080359073E+03  0.62419894122E+01  0.71322572239E+01  0.19103884883E+03  0.00000000000E+00 0. -1.
<mgrwt>
<rscale>  0 0.92365116E+03</rscale>
<asrwt>0</asrwt>
<pdfrwt beam="1">  1        2 0.33724790E+00 0.92365116E+03</pdfrwt>
<pdfrwt beam="2">  1       -2 0.14968559E-01 0.92365116E+03</pdfrwt>
<totfact> 0.18592371E+02</totfact>
</mgrwt>
</event>
<event>
 6    1  0.1773638E-005  0.1370559E+04  0.7818608E-02  0.8975409E-01
          2   -1    0    0  501    0  0.00000000000E+00  0.00000000000E+00  0.13891568709E+04  0.13891568709E+04  0.00000000000E+00 0. -1.
         -2   -1    0    0    0  501 -0.00000000000E+00 -0.00000000000E+00 -0.33805274608E+03  0.33805274608E+03  0.00000000000E+00 0.  1.
         23    2    1    2    0    0  0.53780657027E+03 -0.41251838553E+03  0.62515629430E+03  0.92668548882E+03  0.92294514842E+02 0.  0.
         11    1    3    3    0    0  0.15795352108E+03 -0.71662091759E+02  0.14805695185E+03  0.22804743193E+03  0.00000000000E+00 0.  1.
        -11    1    3    3    0    0  0.37985304919E+03 -0.34085629377E+03  0.47709934244E+03  0.69863805689E+03  0.00000000000E+00 0. -1.
         22    1    1    2    0    0 -0.53780657027E+03  0.41251838553E+03  0.42594783051E+03  0.80052412814E+03  0.00000000000E+00 0.  1.
<mgrwt>
<rscale>  0 0.13705594E+04</rscale>
<asrwt>0</asrwt>
<pdfrwt beam="1">  1        2 0.21371644E+00 0.13705594E+04</pdfrwt>
<pdfrwt beam="2">  1       -2 0.52008116E-01 0.13705594E+04</pdfrwt>
<totfact> 0.49966938E+01</totfact>
</mgrwt>
</event>
<event>
 6    1  0.1773638E-005  0.8895566E+03  0.7818608E-02  0.9438731E-01
         -2   -1    0    0    0  501 -0.00000000000E+00  0.00000000000E+00  0.30185988153E+03  0.30185988153E+03  0.00000000000E+00 0. -1.
          2   -1    0    0  501    0  0.00000000000E+00 -0.00000000000E+00 -0.65536285801E+03  0.65536285801E+03  0.00000000000E+00 0.  1.
         23    2    1    2    0    0  0.19495679113E+03 -0.12425197343E+03  0.22431819126E+03  0.33486913812E+03  0.91498554197E+02 0.  0.
         13    1    3    3    0    0  0.19301644762E+03 -0.12904800310E+03  0.18958267616E+03  0.29975044162E+03  0.00000000000E+00 0.  1.
        -13    1    3    3    0    0  0.19403435113E+01  0.47960296650E+01  0.34735515106E+02  0.35118696491E+02  0.00000000000E+00 0. -1.
         22    1    1    2    0    0 -0.19495679113E+03  0.12425197343E+03 -0.57782116774E+03  0.62235360142E+03  0.00000000000E+00 0.  1.
<mgrwt>
<rscale>  0 0.88955664E+03</rscale>
<asrwt>0</asrwt>
<pdfrwt beam="1">  1        2 0.10082505E+00 0.88955664E+03</pdfrwt>
<pdfrwt beam="2">  1       -2 0.46439983E-01 0.88955664E+03</pdfrwt>
<totfact> 0.19632742E+02</totfact>
</mgrwt>
</event>
<event>
 6    1  0.1773638E-005  0.3460834E+04  0.7818608E-02  0.8123135E-01
         -1   -1    0    0    0  501 -0.00000000000E+00  0.00000000000E+00  0.10197750993E+04  0.10197750993E+04  0.00000000000E+00 0.  1.
          1   -1    0    0  501    0  0.00000000000E+00 -0.00000000000E+00 -0.29362786541E+04  0.29362786541E+04  0.00000000000E+00 0. -1.
         23    2    1    2    0    0  0.58337428995E+03  0.15826618250E+04 -0.52339651375E+03  0.17683857616E+04  0.90001536805E+02 0.  0.
         13    1    3    3    0    0  0.24214799222E+03  0.55748366616E+03 -0.21586929175E+03  0.64499863511E+03  0.00000000000E+00 0.  1.
        -13    1    3    3    0    0  0.34122629774E+03  0.10251781589E+04 -0.30752722200E+03  0.11233871265E+04  0.00000000000E+00 0. -1.
         22    1    1    2    0    0 -0.58337428995E+03 -0.15826618250E+04 -0.13931070411E+04  0.21876679918E+04  0.00000000000E+00 0. -1.
<mgrwt>
<rscale>  0 0.34608345E+04</rscale>
<asrwt>0</asrwt>
<pdfrwt beam="1">  1        1 0.45173518E+00 0.34608345E+04</pdfrwt>
<pdfrwt beam="2">  1       -1 0.15688848E+00 0.34608345E+04</pdfrwt>
<totfact> 0.16790195E-01</totfact>
</mgrwt>
</event>
<event>
 6    1  0.1773638E-005  0.6101594E+04  0.7818608E-02  0.7677931E-01
         -2   -1    0    0    0  501 -0.00000000000E+00  0.00000000000E+00  0.22748221626E+04  0.22748221626E+04  0.00000000000E+00 0.  1.
          2   -1    0    0  501    0  0.00000000000E+00 -0.00000000000E+00 -0.40914682576E+04  0.40914682576E+04  0.00000000000E+00 0. -1.
         23    2    1    2    0    0  0.19058764619E+04 -0.65824259420E+03  0.14793139235E+04  0.25024838975E+04  0.91692812658E+02 0.  0.
         11    1    3    3    0    0  0.39105206766E+03 -0.97470571072E+02  0.28436563719E+03  0.49324035466E+03  0.00000000000E+00 0.  1.
        -11    1    3    3    0    0  0.15148243943E+04 -0.56077202312E+03  0.11949482863E+04  0.20092435428E+04  0.00000000000E+00 0. -1.
         22    1    1    2    0    0 -0.19058764619E+04  0.65824259420E+03 -0.32959600186E+04  0.38638065227E+04  0.00000000000E+00 0. -1.
<mgrwt>
<rscale>  0 0.61015941E+04</rscale>
<asrwt>0</asrwt>
<pdfrwt beam="1">  1        2 0.62945666E+00 0.61015941E+04</pdfrwt>
<pdfrwt beam="2">  1       -2 0.34997264E+00 0.61015941E+04</pdfrwt>
<totfact> 0.29718359E-03</totfact>
</mgrwt>
</event>
<event>
 6    1  0.1773638E-005  0.5816471E+04  0.7818608E-02  0.7713583E-01
          1   -1    0    0  501    0  0.00000000000E+00  0.00000000000E+00  0.30473782677E+04  0.30473782677E+04  0.00000000000E+00 0. -1.
         -1   -1    0    0    0  501 -0.00000000000E+00 -0.00000000000E+00 -0.27754455373E+04  0.27754455373E+04  0.00000000000E+00 0.  1.
         23    2    1    2    0    0 -0.10133530358E+04  0.27224549568E+04  0.25983728212E+03  0.29178639660E+04  0.88143881598E+02 0.  0.
         11    1    3    3    0    0 -0.63749493381E+03  0.15901897992E+04  0.16056451195E+03  0.17207220434E+04  0.00000000000E+00 0. -1.
        -11    1    3    3    0    0 -0.37585810204E+03  0.11322651576E+04  0.99272770171E+02  0.11971419226E+04  0.00000000000E+00 0.  1.
         22    1    1    2    0    0  0.10133530358E+04 -0.27224549568E+04  0.12095448315E+02  0.29049598391E+04  0.00000000000E+00 0. -1.
<mgrwt>
<rscale>  0 0.58164705E+04</rscale>
<asrwt>0</asrwt>
<pdfrwt beam="1">  1        1 0.46882742E+00 0.58164705E+04</pdfrwt>
<pdfrwt beam="2">  1       -1 0.42699162E+00 0.58164705E+04</pdfrwt>
<totfact> 0.17474447E-03</totfact>
</mgrwt>
</event>
<event>
 6    1  0.1773638E-005  0.8504725E+03  0.7818608E-02  0.9489703E-01
          1   -1    0    0  501    0  0.00000000000E+00  0.00000000000E+00  0.21771267902E+04  0.21771267902E+04  0.00000000000E+00 0. -1.
         -1   -1    0    0    0  501 -0.00000000000E+00 -0.00000000000E+00 -0.83057114889E+02  0.83057114889E+02  0.00000000000E+00 0.  1.
         23    2    1    2    0    0  0.29224777539E+03  0.63206574491E+02  0.18442651343E+04  0.18705608283E+04  0.90995018833E+02 0.  0.
         13    1    3    3    0    0  0.15043530911E+03  0.42229550272E+02  0.12246943349E+04  0.12346215335E+04  0.00000000000E+00 0. -1.
        -13    1    3    3    0    0  0.14181246627E+03  0.20977024219E+02  0.61957079942E+03  0.63593929476E+03  0.00000000000E+00 0.  1.
         22    1    1    2    0    0 -0.29224777539E+03 -0.63206574491E+02  0.24980454105E+03  0.38962307684E+03  0.00000000000E+00 0.  1.
<mgrwt>
<rscale>  0 0.85047250E+03</rscale>
<asrwt>0</asrwt>
<pdfrwt beam="1">  1        1 0.33494254E+00 0.85047250E+03</pdfrwt>
<pdfrwt beam="2">  1       -1 0.12778019E-01 0.85047250E+03</pdfrwt>
<totfact> 0.98658032E+01</totfact>
</mgrwt>
</event>
<event>
 6    1  0.1773638E-005  0.4003585E+04  0.7818608E-02  0.8003824E-01
         -2   -1    0    0    0  501 -0.00000000000E+00  0.00000000000E+00  0.40702060949E+04  0.40702060949E+04  0.00000000000E+00 0.  1.
          2   -1    0    0  501    0  0.00000000000E+00 -0.00000000000E+00 -0.98451362276E+03  0.98451362276E+03  0.00000000000E+00 0. -1.
         23    2    1    2    0    0 -0.14915661890E+04 -0.11004371235E+04  0.59268269400E+03  0.19481413245E+04  0.90831081353E+02 0.  0.
         11    1    3    3    0    0 -0.80686381181E+03 -0.54147219858E+03  0.32456368055E+03  0.10244817887E+04  0.00000000000E+00 0. -1.
        -11    1    3    3    0    0 -0.68470237720E+03 -0.55896492494E+03  0.26811901345E+03  0.92365953578E+03  0.00000000000E+00 0.  1.
         22    1    1    2    0    0  0.14915661890E+04  0.11004371235E+04  0.24930097781E+04  0.31065783931E+04  0.00000000000E+00 0.  1.
<mgrwt>
<rscale>  0 0.40035851E+04</rscale>
<asrwt>0</asrwt>
<pdfrwt beam="1">  1        2 0.15146364E+00 0.40035851E+04</pdfrwt>
<pdfrwt beam="2">  1       -2 0.62618554E+00 0.40035851E+04</pdfrwt>
<totfact> 0.82314670E-03</totfact>
</mgrwt>
</event>
<event>
 6    1  0.1773638E-005  0.1030109E+04  0.7818608E-02  0.9276124E-01
          4   -1    0    0  501    0  0.00000000000E+00  0.00000000000E+00  0.20431414429E+04  0.20431414429E+04  0.00000000000E+00 0. -1.
         -4   -1    0    0    0  501 -0.00000000000E+00 -0.00000000000E+00 -0.12983993547E+03  0.12983993547E+03  0.00000000000E+00 0.  1.
         23    2    1    2    0    0  0.91989991329E+01  0.37220630021E+02  0.20391476921E+04  0.20414243219E+04  0.88430509523E+02 0.  0.
         11    1    3    3    0    0  0.26652928787E+01  0.62170448633E+02  0.98647686981E+03  0.98843759699E+03  0.00000000000E+00 0. -1.
        -11    1    3    3    0    0  0.65337062541E+01 -0.24949818612E+02  0.10526708223E+04  0.10529867250E+04  0.00000000000E+00 0.  1.
         22    1    1    2    0    0 -0.91989991329E+01 -0.37220630021E+02 -0.12584618472E+03  0.13155705641E+03  0.00000000000E+00 0.  1.
<mgrwt>
<rscale>  0 0.10301094E+04</rscale>
<asrwt>0</asrwt>
<pdfrwt beam="1">  1        4 0.31432943E+00 0.10301094E+04</pdfrwt>
<pdfrwt beam="2">  1       -4 0.19975376E-01 0.10301094E+04</pdfrwt>
<totfact> 0.11797861E+00</totfact>
</mgrwt>
</event>
<event>
 6    1  0.1773638E-005  0.2881296E+04  0.7818608E-02  0.8278464E-01
         -1   -1    0    0    0  501 -0.00000000000E+00  0.00000000000E+00  0.74926585750E+03  0.74926585750E+03  0.00000000000E+00 0.  1.
          1   -1    0    0  501    0  0.00000000000E+00 -0.00000000000E+00 -0.27700004664E+04  0.27700004664E+04  0.00000000000E+00 0. -1.
         23    2    1    2    0    0 -0.43653756390E+03 -0.12800811742E+03 -0.26791100767E+04  0.27190105027E+04  0.91848723827E+02 0.  0.
         11    1    3    3    0    0 -0.31585058673E+03 -0.10201748905E+03 -0.21643861183E+04  0.21896886606E+04  0.00000000000E+00 0.  1.
        -11    1    3    3    0    0 -0.12068697717E+03 -0.25990628361E+02 -0.51472395840E+03  0.52932184215E+03  0.00000000000E+00 0. -1.
         22    1    1    2    0    0  0.43653756390E+03  0.12800811742E+03  0.65837546777E+03  0.80025582121E+03  0.00000000000E+00 0.  1.
<mgrwt>
<rscale>  0 0.28812961E+04</rscale>
<asrwt>0</asrwt>
<pdfrwt beam="1">  1        1 0.42615391E+00 0.28812961E+04</pdfrwt>
<pdfrwt beam="2">  1       -1 0.11527167E+00 0.28812961E+04</pdfrwt>
<totfact> 0.51338832E-01</totfact>
</mgrwt>
</event>
<event>
 6    1  0.1773638E-005  0.7673748E+03  0.7818608E-02  0.9608480E-01
         -1   -1    0    0    0  501 -0.00000000000E+00  0.00000000000E+00  0.22855821732E+03  0.22855821732E+03  0.00000000000E+00 0.  1.
          1   -1    0    0  501    0  0.00000000000E+00 -0.00000000000E+00 -0.64410734340E+03  0.64410734340E+03  0.00000000000E+00 0. -1.
         23    2    1    2    0    0 -0.14086225113E+03  0.34561699704E+03 -0.26582892534E+03  0.47053446151E+03  0.10697840667E+03 0.  0.
         13    1    3    3    0    0 -0.66350195640E+02  0.26880168872E+03 -0.15878160659E+03  0.31916812954E+03  0.00000000000E+00 0. -1.
        -13    1    3    3    0    0 -0.74512055490E+02  0.76815308313E+02 -0.10704731875E+03  0.15136633198E+03  0.00000000000E+00 0.  1.
         22    1    1    2    0    0  0.14086225113E+03 -0.34561699704E+03 -0.14972020075E+03  0.40213109920E+03  0.00000000000E+00 0.  1.
<mgrwt>
<rscale>  0 0.76737481E+03</rscale>
<asrwt>0</asrwt>
<pdfrwt beam="1">  1        1 0.99093437E-01 0.76737481E+03</pdfrwt>
<pdfrwt beam="2">  1       -1 0.35162803E-01 0.76737481E+03</pdfrwt>
<totfact> 0.24016734E+02</totfact>
</mgrwt>
</event>
<event>
 6    1  0.1773638E-005  0.1759511E+04  0.7818608E-02  0.8728132E-01
         -3   -1    0    0    0  501 -0.00000000000E+00  0.00000000000E+00  0.61513720185E+03  0.61513720185E+03  0.00000000000E+00 0.  1.
          3   -1    0    0  501    0  0.00000000000E+00 -0.00000000000E+00 -0.12582073442E+04  0.12582073442E+04  0.00000000000E+00 0. -1.
         23    2    1    2    0    0  0.25993979116E+03  0.93347127947E+02  0.56421301337E+03  0.63487169636E+03  0.91887785140E+02 0.  0.
         13    1    3    3    0    0  0.63560499878E+02  0.87586682275E+01  0.22432108002E+03  0.23331651968E+03  0.00000000000E+00 0. -1.
        -13    1    3    3    0    0  0.19637929128E+03  0.84588459720E+02  0.33989193335E+03  0.40155517668E+03  0.00000000000E+00 0.  1.
         22    1    1    2    0    0 -0.25993979116E+03 -0.93347127947E+02 -0.12072831557E+04  0.12384728497E+04  0.00000000000E+00 0. -1.
<mgrwt>
<rscale>  0 0.17595115E+04</rscale>
<asrwt>0</asrwt>
<pdfrwt beam="1">  1        3 0.19357036E+00 0.17595115E+04</pdfrwt>
<pdfrwt beam="2">  1       -3 0.94636492E-01 0.17595115E+04</pdfrwt>
<totfact> 0.39839578E-01</totfact>
</mgrwt>
</event>
<event>
 6    1  0.1773638E-005  0.1549261E+04  0.7818608E-02  0.8852340E-01
         -2   -1    0    0    0  501 -0.00000000000E+00  0.00000000000E+00  0.79946528356E+03  0.79946528356E+03  0.00000000000E+00 0.  1.
          2   -1    0    0  501    0  0.00000000000E+00 -0.00000000000E+00 -0.75056671659E+03  0.75056671659E+03  0.00000000000E+00 0. -1.
         23    2    1    2    0    0  0.38959614135E+02 -0.53183617650E+03  0.58293688533E+03  0.79533703154E+03  0.91531477041E+02 0.  0.
         13    1    3    3    0    0  0.39009715000E+02 -0.26940199923E+03  0.23563370000E+03  0.36003115925E+03  0.00000000000E+00 0.  1.
        -13    1    3    3    0    0 -0.50100864914E-01 -0.26243417727E+03  0.34730318533E+03  0.43530587229E+03  0.00000000000E+00 0. -1.
         22    1    1    2    0    0 -0.38959614135E+02  0.53183617650E+03 -0.53403831836E+03  0.75469496861E+03  0.00000000000E+00 0. -1.
<mgrwt>
<rscale>  0 0.15492605E+04</rscale>
<asrwt>0</asrwt>
<pdfrwt beam="1">  1        2 0.11547180E+00 0.15492605E+04</pdfrwt>
<pdfrwt beam="2">  1       -2 0.12299466E+00 0.15492605E+04</pdfrwt>
<totfact> 0.18004750E+01</totfact>
</mgrwt>
</event>
<event>
 6    1  0.1773638E-005  0.1985084E+04  0.7818608E-02  0.8613626E-01
         -2   -1    0    0    0  501 -0.00000000000E+00  0.00000000000E+00  0.80489614669E+03  0.80489614669E+03  0.00000000000E+00 0.  1.
          2   -1    0    0  501    0  0.00000000000E+00 -0.00000000000E+00 -0.12239337485E+04  0.12239337485E+04  0.00000000000E+00 0. -1.
         23    2    1    2    0    0 -0.36630619644E+03 -0.82376478007E+03 -0.62909986761E+03  0.11031437723E+04  0.91601837280E+02 0.  0.
         13    1    3    3    0    0 -0.15022171922E+03 -0.43177348654E+03 -0.28705619533E+03  0.53981123356E+03  0.00000000000E+00 0. -1.
        -13    1    3    3    0    0 -0.21608447721E+03 -0.39199129353E+03 -0.34204367228E+03  0.56333253878E+03  0.00000000000E+00 0.  1.
         22    1    1    2    0    0  0.36630619644E+03  0.82376478007E+03  0.21006226585E+03  0.92568612281E+03  0.00000000000E+00 0.  1.
<mgrwt>
<rscale>  0 0.19850839E+04</rscale>
<asrwt>0</asrwt>
<pdfrwt beam="1">  1        2 0.18829750E+00 0.19850839E+04</pdfrwt>
<pdfrwt beam="2">  1       -2 0.12383018E+00 0.19850839E+04</pdfrwt>
<totfact> 0.83709709E+00</totfact>
</mgrwt>
</event>
<event>
 6    1  0.1773638E-005  0.1107325E+04  0.7818608E-02  0.9198081E-01
          2   -1    0    0  501    0  0.00000000000E+00  0.00000000000E+00  0.14406198958E+04  0.14406198958E+04  0.00000000000E+00 0.  1.
         -2   -1    0    0    0  501 -0.00000000000E+00 -0.00000000000E+00 -0.21278498328E+03  0.21278498328E+03  0.00000000000E+00 0. -1.
         23    2    1    2    0    0 -0.43341992888E+03 -0.20055775643E+03  0.10252002432E+04  0.11346206681E+04  0.90842023502E+02 0.  0.
         13    1    3    3    0    0 -0.11858987190E+03 -0.50651071114E+02  0.37907234518E+03  0.40040595850E+03  0.00000000000E+00 0. -1.
        -13    1    3    3    0    0 -0.31483005699E+03 -0.14990668532E+03  0.64612789806E+03  0.73421470956E+03  0.00000000000E+00 0.  1.
         22    1    1    2    0    0  0.43341992888E+03  0.20055775643E+03  0.20263466930E+03  0.51878421104E+03  0.00000000000E+00 0. -1.
<mgrwt>
<rscale>  0 0.11073252E+04</rscale>
<asrwt>0</asrwt>
<pdfrwt beam="1">  1        2 0.22163382E+00 0.11073252E+04</pdfrwt>
<pdfrwt beam="2">  1       -2 0.32736152E-01 0.11073252E+04</pdfrwt>
<totfact> 0.11836192E+02</totfact>
</mgrwt>
</event>
<event>
 6    1  0.1773638E-005  0.1935759E+04  0.7818608E-02  0.8637259E-01
          1   -1    0    0  501    0  0.00000000000E+00  0.00000000000E+00  0.19125118660E+04  0.19125118660E+04  0.00000000000E+00 0. -1.
         -1   -1    0    0    0  501 -0.00000000000E+00 -0.00000000000E+00 -0.48982241490E+03  0.48982241490E+03  0.00000000000E+00 0.  1.
         23    2    1    2    0    0 -0.46050325631E+03 -0.76961814628E+03  0.11578655681E+04  0.14671834753E+04  0.87174172196E+02 0.  0.
         11    1    3    3    0    0 -0.28606896474E+03 -0.50175147943E+03  0.80898457766E+03  0.99400505361E+03  0.00000000000E+00 0.  1.
        -11    1    3    3    0    0 -0.17443429157E+03 -0.26786666684E+03  0.34888099042E+03  0.47317842170E+03  0.00000000000E+00 0. -1.
         22    1    1    2    0    0  0.46050325631E+03  0.76961814628E+03  0.26482388298E+03  0.93515080556E+03  0.00000000000E+00 0.  1.
<mgrwt>
<rscale>  0 0.19357595E+04</rscale>
<asrwt>0</asrwt>
<pdfrwt beam="1">  1        1 0.29423259E+00 0.19357595E+04</pdfrwt>
<pdfrwt beam="2">  1       -1 0.75357296E-01 0.19357595E+04</pdfrwt>
<totfact> 0.56410514E+00</totfact>
</mgrwt>
</event>
<event>
 6    1  0.1852831E-005  0.3853149E+04  0.7818608E-02  0.8034844E-01
         -1   -1    0    0    0  501 -0.00000000000E+00  0.00000000000E+00  0.16740015259E+04  0.16740015259E+04  0.00000000000E+00 0.  1.
          1   -1    0    0  501    0  0.00000000000E+00 -0.00000000000E+00 -0.22172555756E+04  0.22172555756E+04  0.00000000000E+00 0. -1.
         23    2    1    2    0    0  0.69577197305E+03  0.47015664250E+03 -0.20216744702E+04  0.21910004012E+04  0.90383558794E+02 0.  0.
         11    1    3    3    0    0  0.29785438267E+03  0.17961513416E+03 -0.73257167948E+03  0.81095011885E+03  0.00000000000E+00 0. -1.
        -11    1    3    3    0    0  0.39791759038E+03  0.29054150833E+03 -0.12891027907E+04  0.13800502823E+04  0.00000000000E+00 0.  1.
         22    1    1    2    0    0 -0.69577197305E+03 -0.47015664250E+03  0.14784204205E+04  0.17002567002E+04  0.00000000000E+00 0.  1.
<mgrwt>
<rscale>  0 0.38531490E+04</rscale>
<asrwt>0</asrwt>
<pdfrwt beam="1">  1        1 0.34111624E+00 0.38531490E+04</pdfrwt>
<pdfrwt beam="2">  1       -1 0.25753870E+00 0.38531490E+04</pdfrwt>
<totfact> 0.10456960E-01</totfact>
</mgrwt>
</event>
<event>
 6    1  0.1773638E-005  0.5953652E+03  0.7818608E-02  0.9915069E-01
          1   -1    0    0  501    0  0.00000000000E+00  0.00000000000E+00  0.16581934721E+04  0.16581934721E+04  0.00000000000E+00 0. -1.
         -1   -1    0    0    0  501 -0.00000000000E+00 -0.00000000000E+00 -0.53440646057E+02  0.53440646057E+02  0.00000000000E+00 0.  1.
         23    2    1    2    0    0 -0.22813909037E+03 -0.14001289667E+03  0.50384875137E+03  0.57865537280E+03  0.96578571294E+02 0.  0.
         11    1    3    3    0    0 -0.90053505649E+02 -0.11181036572E+03  0.26043501761E+03  0.29738458292E+03  0.00000000000E+00 0. -1.
        -11    1    3    3    0    0 -0.13808558472E+03 -0.28202530947E+02  0.24341373376E+03  0.28127078988E+03  0.00000000000E+00 0.  1.
         22    1    1    2    0    0  0.22813909037E+03  0.14001289667E+03  0.11009040747E+04  0.11329787454E+04  0.00000000000E+00 0.  1.
<mgrwt>
<rscale>  0 0.59536520E+03</rscale>
<asrwt>0</asrwt>
<pdfrwt beam="1">  1        1 0.25510665E+00 0.59536520E+03</pdfrwt>
<pdfrwt beam="2">  1       -1 0.82216391E-02 0.59536520E+03</pdfrwt>
<totfact> 0.45097422E+02</totfact>
</mgrwt>
</event>
<event>
 6    1  0.1773638E-005  0.2741300E+04  0.7818608E-02  0.8321728E-01
         -2   -1    0    0    0  501 -0.00000000000E+00  0.00000000000E+00  0.22438863201E+04  0.22438863201E+04  0.00000000000E+00 0. -1.
          2   -1    0    0  501    0  0.00000000000E+00 -0.00000000000E+00 -0.83724446214E+03  0.83724446214E+03  0.00000000000E+00 0.  1.
         23    2    1    2    0    0  0.12133640093E+04 -0.26869905306E+03  0.13498659551E+04  0.18370749541E+04  0.90856425602E+02 0.  0.
         11    1    3    3    0    0  0.51492397987E+03 -0.15564244216E+03  0.61165202528E+03  0.81454863261E+03  0.00000000000E+00 0.  1.
        -11    1    3    3    0    0  0.69844002945E+03 -0.11305661090E+03  0.73821392982E+03  0.10225263215E+04  0.00000000000E+00 0. -1.
         22    1    1    2    0    0 -0.12133640093E+04  0.26869905306E+03  0.56775902811E+02  0.12440558281E+04  0.00000000000E+00 0.  1.
<mgrwt>
<rscale>  0 0.27413000E+04</rscale>
<asrwt>0</asrwt>
<pdfrwt beam="1">  1        2 0.12880684E+00 0.27413000E+04</pdfrwt>
<pdfrwt beam="2">  1       -2 0.34521328E+00 0.27413000E+04</pdfrwt>
<totfact> 0.47243382E-01</totfact>
</mgrwt>
</event>
<event>
 6    1  0.1773638E-005  0.9425565E+03  0.7818608E-02  0.9373893E-01
         -2   -1    0    0    0  501 -0.00000000000E+00  0.00000000000E+00  0.62654716505E+02  0.62654716505E+02  0.00000000000E+00 0.  1.
          2   -1    0    0  501    0  0.00000000000E+00 -0.00000000000E+00 -0.35448760810E+04  0.35448760810E+04  0.00000000000E+00 0. -1.
         23    2    1    2    0    0 -0.73059667601E+02 -0.32123446930E+03 -0.30236117141E+04  0.30428608844E+04  0.90803441910E+02 0.  0.
         13    1    3    3    0    0 -0.24306071646E+02 -0.22934081518E+03 -0.17742882149E+04  0.17892139794E+04  0.00000000000E+00 0. -1.
        -13    1    3    3    0    0 -0.48753595955E+02 -0.91893654118E+02 -0.12493234992E+04  0.12536469050E+04  0.00000000000E+00 0.  1.
         22    1    1    2    0    0  0.73059667601E+02  0.32123446930E+03 -0.45860965038E+03  0.56466991306E+03  0.00000000000E+00 0.  1.
<mgrwt>
<rscale>  0 0.94255654E+03</rscale>
<asrwt>0</asrwt>
<pdfrwt beam="1">  1        2 0.54536581E+00 0.94255654E+03</pdfrwt>
<pdfrwt beam="2">  1       -2 0.96391826E-02 0.94255654E+03</pdfrwt>
<totfact> 0.57854923E+01</totfact>
</mgrwt>
</event>
<event>
 6    1  0.1773638E-005  0.3483836E+03  0.7818608E-02  0.1063280E+00
         -2   -1    0    0    0  501 -0.00000000000E+00  0.00000000000E+00  0.30739864228E+02  0.30739864228E+02  0.00000000000E+00 0.  1.
          2   -1    0    0  501    0  0.00000000000E+00 -0.00000000000E+00 -0.98708261413E+03  0.98708261413E+03  0.00000000000E+00 0. -1.
         23    2    1    2    0    0  0.32623501886E+01  0.62520155872E+02 -0.94809421662E+03  0.95467621069E+03  0.92761041702E+02 0.  0.
         13    1    3    3    0    0 -0.26894209142E+02  0.88124152286E+01 -0.63218750900E+03  0.63282067261E+03  0.00000000000E+00 0. -1.
        -13    1    3    3    0    0  0.30156559331E+02  0.53707740643E+02 -0.31590670761E+03  0.32185553808E+03  0.00000000000E+00 0.  1.
         22    1    1    2    0    0 -0.32623501886E+01 -0.62520155872E+02 -0.82485332865E+01  0.63146267668E+02  0.00000000000E+00 0.  1.
<mgrwt>
<rscale>  0 0.34838361E+03</rscale>
<asrwt>0</asrwt>
<pdfrwt beam="1">  1        2 0.15185890E+00 0.34838361E+03</pdfrwt>
<pdfrwt beam="2">  1       -2 0.47292089E-02 0.34838361E+03</pdfrwt>
<totfact> 0.57239537E+03</totfact>
</mgrwt>
</event>
<event>
 6    1  0.1773638E-005  0.1921206E+04  0.7818608E-02  0.8644372E-01
         -2   -1    0    0    0  501 -0.00000000000E+00  0.00000000000E+00  0.46153107736E+03  0.46153107736E+03  0.00000000000E+00 0.  1.
          2   -1    0    0  501    0  0.00000000000E+00 -0.00000000000E+00 -0.19993411609E+04  0.19993411609E+04  0.00000000000E+00 0. -1.
         23    2    1    2    0    0  0.60306736425E+03  0.74461103325E+03 -0.80272929395E+03  0.12531969492E+04  0.89400432847E+02 0.  0.
         13    1    3    3    0    0  0.14178728657E+03  0.23916315577E+03 -0.23634882659E+03  0.36491563071E+03  0.00000000000E+00 0. -1.
        -13    1    3    3    0    0  0.46128007769E+03  0.50544787748E+03 -0.56638046736E+03  0.88828131846E+03  0.00000000000E+00 0.  1.
         22    1    1    2    0    0 -0.60306736425E+03 -0.74461103325E+03 -0.73508078962E+03  0.12076752891E+04  0.00000000000E+00 0. -1.
<mgrwt>
<rscale>  0 0.19212060E+04</rscale>
<asrwt>0</asrwt>
<pdfrwt beam="1">  1        2 0.30759095E+00 0.19212060E+04</pdfrwt>
<pdfrwt beam="2">  1       -2 0.71004781E-01 0.19212060E+04</pdfrwt>
<totfact> 0.11264154E+01</totfact>
</mgrwt>
</event>
<event>
 6    1  0.1773638E-005  0.2312210E+04  0.7818608E-02  0.8473122E-01
          1   -1    0    0  501    0  0.00000000000E+00  0.00000000000E+00  0.13091223239E+04  0.13091223239E+04  0.00000000000E+00 0. -1.
         -1   -1    0    0    0  501 -0.00000000000E+00 -0.00000000000E+00 -0.10209733460E+04  0.10209733460E+04  0.00000000000E+00 0.  1.
         23    2    1    2    0    0 -0.58834155857E+03 -0.63084854265E+02  0.11430101017E+04  0.12904259967E+04  0.92745199899E+02 0.  0.
         11    1    3    3    0    0 -0.22010910712E+03 -0.32996348138E+02  0.33821723431E+03  0.40487982861E+03  0.00000000000E+00 0.  1.
        -11    1    3    3    0    0 -0.36823245145E+03 -0.30088506127E+02  0.80479286738E+03  0.88554616813E+03  0.00000000000E+00 0. -1.
         22    1    1    2    0    0  0.58834155857E+03  0.63084854265E+02 -0.85486112374E+03  0.10396696731E+04  0.00000000000E+00 0.  1.
<mgrwt>
<rscale>  0 0.23122102E+04</rscale>
<asrwt>0</asrwt>
<pdfrwt beam="1">  1        1 0.20140344E+00 0.23122102E+04</pdfrwt>
<pdfrwt beam="2">  1       -1 0.15707282E+00 0.23122102E+04</pdfrwt>
<totfact> 0.24754127E+00</totfact>
</mgrwt>
</event>
<event>
 6    1  0.1773638E-005  0.3272748E+04  0.7818608E-02  0.8169864E-01
          2   -1    0    0  501    0  0.00000000000E+00  0.00000000000E+00  0.19644959261E+04  0.19644959261E+04  0.00000000000E+00 0. -1.
         -2   -1    0    0    0  501 -0.00000000000E+00 -0.00000000000E+00 -0.13630570530E+04  0.13630570530E+04  0.00000000000E+00 0.  1.
         23    2    1    2    0    0  0.62331295258E+03  0.12932579231E+04  0.10967346541E+04  0.18088848115E+04  0.90566368827E+02 0.  0.
         13    1    3    3    0    0  0.41937716593E+03  0.91632015104E+03  0.72320301739E+03  0.12403799542E+04  0.00000000000E+00 0. -1.
        -13    1    3    3    0    0  0.20393578664E+03  0.37693777208E+03  0.37353163672E+03  0.56850485725E+03  0.00000000000E+00 0.  1.
         22    1    1    2    0    0 -0.62331295258E+03 -0.12932579231E+04 -0.49529578109E+03  0.15186681676E+04  0.00000000000E+00 0.  1.
<mgrwt>
<rscale>  0 0.32727481E+04</rscale>
<asrwt>0</asrwt>
<pdfrwt beam="1">  1        2 0.30223014E+00 0.32727481E+04</pdfrwt>
<pdfrwt beam="2">  1       -2 0.20970109E+00 0.32727481E+04</pdfrwt>
<totfact> 0.67323002E-01</totfact>
</mgrwt>
</event>
<event>
 6    1  0.1773638E-005  0.2349796E+04  0.7818608E-02  0.8458542E-01
         -2   -1    0    0    0  501 -0.00000000000E+00  0.00000000000E+00  0.43179770173E+03  0.43179770173E+03  0.00000000000E+00 0.  1.
          2   -1    0    0  501    0  0.00000000000E+00 -0.00000000000E+00 -0.31968332785E+04  0.31968332785E+04  0.00000000000E+00 0. -1.
         23    2    1    2    0    0 -0.83074865156E+03  0.39449158004E+03 -0.25092715847E+04  0.26740723658E+04  0.91935862895E+02 0.  0.
         11    1    3    3    0    0 -0.30392867953E+03  0.16618090266E+03 -0.10622107126E+04  0.11172646654E+04  0.00000000000E+00 0. -1.
        -11    1    3    3    0    0 -0.52681997204E+03  0.22831067738E+03 -0.14470608721E+04  0.15568077004E+04  0.00000000000E+00 0.  1.
         22    1    1    2    0    0  0.83074865156E+03 -0.39449158004E+03 -0.25576399211E+03  0.95455861447E+03  0.00000000000E+00 0.  1.
<mgrwt>
<rscale>  0 0.23497960E+04</rscale>
<asrwt>0</asrwt>
<pdfrwt beam="1">  1        2 0.49182053E+00 0.23497960E+04</pdfrwt>
<pdfrwt beam="2">  1       -2 0.66430412E-01 0.23497960E+04</pdfrwt>
<totfact> 0.24534620E+00</totfact>
</mgrwt>
</event>
<event>
 6    1  0.1773638E-005  0.8564076E+03  0.7818608E-02  0.9481777E-01
         -3   -1    0    0    0  501 -0.00000000000E+00  0.00000000000E+00  0.34680777725E+03  0.34680777725E+03  0.00000000000E+00 0.  1.
          3   -1    0    0  501    0  0.00000000000E+00 -0.00000000000E+00 -0.52870355906E+03  0.52870355906E+03  0.00000000000E+00 0. -1.
         23    2    1    2    0    0  0.22475747889E+03  0.25508003729E+03  0.16661487398E+03  0.38864233242E+03  0.87753043132E+02 0.  0.
         13    1    3    3    0    0  0.69549474757E+02  0.25798147353E+02  0.38179776968E+02  0.83428827242E+02  0.00000000000E+00 0.  1.
        -13    1    3    3    0    0  0.15520800414E+03  0.22928188993E+03  0.12843509702E+03  0.30521350518E+03  0.00000000000E+00 0. -1.
         22    1    1    2    0    0 -0.22475747889E+03 -0.25508003729E+03 -0.34851065579E+03  0.48686900388E+03  0.00000000000E+00 0. -1.
<mgrwt>
<rscale>  0 0.85640763E+03</rscale>
<asrwt>0</asrwt>
<pdfrwt beam="1">  1        3 0.81339009E-01 0.85640763E+03</pdfrwt>
<pdfrwt beam="2">  1       -3 0.53355042E-01 0.85640763E+03</pdfrwt>
<totfact> 0.12806332E+01</totfact>
</mgrwt>
</event>
<event>
 6    1  0.1773638E-005  0.1310522E+04  0.7818608E-02  0.9021263E-01
         -3   -1    0    0    0  501 -0.00000000000E+00  0.00000000000E+00  0.57265738210E+03  0.57265738210E+03  0.00000000000E+00 0.  1.
          3   -1    0    0  501    0  0.00000000000E+00 -0.00000000000E+00 -0.74977982826E+03  0.74977982826E+03  0.00000000000E+00 0. -1.
         23    2    1    2    0    0  0.38866785449E+03  0.54202992116E+02 -0.61450674152E+03  0.73481004344E+03  0.91250200545E+02 0.  0.
         11    1    3    3    0    0  0.93744092099E+02  0.43177436678E+02 -0.11408979916E+03  0.15384644330E+03  0.00000000000E+00 0.  1.
        -11    1    3    3    0    0  0.29492376239E+03  0.11025555438E+02 -0.50041694236E+03  0.58096360015E+03  0.00000000000E+00 0. -1.
         22    1    1    2    0    0 -0.38866785449E+03 -0.54202992116E+02  0.43738429537E+03  0.58762716692E+03  0.00000000000E+00 0.  1.
<mgrwt>
<rscale>  0 0.13105220E+04</rscale>
<asrwt>0</asrwt>
<pdfrwt beam="1">  1        3 0.11535074E+00 0.13105220E+04</pdfrwt>
<pdfrwt beam="2">  1       -3 0.88101135E-01 0.13105220E+04</pdfrwt>
<totfact> 0.18725611E+00</totfact>
</mgrwt>
</event>
<event>
 6    1  0.1773638E-005  0.1262014E+04  0.7818608E-02  0.9060243E-01
          1   -1    0    0  501    0  0.00000000000E+00  0.00000000000E+00  0.16742567875E+04  0.16742567875E+04  0.00000000000E+00 0. -1.
         -1   -1    0    0    0  501 -0.00000000000E+00 -0.00000000000E+00 -0.23781882083E+03  0.23781882083E+03  0.00000000000E+00 0.  1.
         23    2    1    2    0    0 -0.48183056588E+03 -0.37961501793E+03  0.92399081513E+03  0.11127819582E+04  0.90864756118E+02 0.  0.
         13    1    3    3    0    0 -0.11769843458E+03 -0.10248619490E+03  0.16978738719E+03  0.23061677844E+03  0.00000000000E+00 0. -1.
        -13    1    3    3    0    0 -0.36413213130E+03 -0.27712882304E+03  0.75420342794E+03  0.88216517972E+03  0.00000000000E+00 0.  1.
         22    1    1    2    0    0  0.48183056588E+03  0.37961501793E+03  0.51244715151E+03  0.79929365014E+03  0.00000000000E+00 0. -1.
<mgrwt>
<rscale>  0 0.12620139E+04</rscale>
<asrwt>0</asrwt>
<pdfrwt beam="1">  1        1 0.25757796E+00 0.12620139E+04</pdfrwt>
<pdfrwt beam="2">  1       -1 0.36587512E-01 0.12620139E+04</pdfrwt>
<totfact> 0.35036880E+01</totfact>
</mgrwt>
</event>
<event>
 6    1  0.1773638E-005  0.3304604E+04  0.7818608E-02  0.8161725E-01
         -1   -1    0    0    0  501 -0.00000000000E+00  0.00000000000E+00  0.20530191836E+04  0.20530191836E+04  0.00000000000E+00 0.  1.
          1   -1    0    0  501    0  0.00000000000E+00 -0.00000000000E+00 -0.13297981962E+04  0.13297981962E+04  0.00000000000E+00 0. -1.
         23    2    1    2    0    0  0.20858352866E+03  0.41035364172E+03  0.19849318301E+04  0.20397569009E+04  0.93576947609E+02 0.  0.
         11    1    3    3    0    0  0.12681440769E+03  0.33603758879E+03  0.15024991980E+04  0.15448323517E+04  0.00000000000E+00 0. -1.
        -11    1    3    3    0    0  0.81769120969E+02  0.74316052929E+02  0.48243263211E+03  0.49492454919E+03  0.00000000000E+00 0.  1.
         22    1    1    2    0    0 -0.20858352866E+03 -0.41035364172E+03 -0.12617108426E+04  0.13430604789E+04  0.00000000000E+00 0. -1.
<mgrwt>
<rscale>  0 0.33046036E+04</rscale>
<asrwt>0</asrwt>
<pdfrwt beam="1">  1        1 0.20458434E+00 0.33046036E+04</pdfrwt>
<pdfrwt beam="2">  1       -1 0.31584910E+00 0.33046036E+04</pdfrwt>
<totfact> 0.18603078E-01</totfact>
</mgrwt>
</event>
<event>
 6    1  0.1773638E-005  0.2360639E+04  0.7818608E-02  0.8454389E-01
          2   -1    0    0  501    0  0.00000000000E+00  0.00000000000E+00  0.25840854728E+04  0.25840854728E+04  0.00000000000E+00 0. -1.
         -2   -1    0    0    0  501 -0.00000000000E+00 -0.00000000000E+00 -0.53912844097E+03  0.53912844097E+03  0.00000000000E+00 0.  1.
         23    2    1    2    0    0 -0.57529416641E+03 -0.61487154523E+03  0.21150634505E+04  0.22782610719E+04  0.89161183973E+02 0.  0.
         11    1    3    3    0    0 -0.43384100177E+03 -0.50441541630E+03  0.17262870322E+04  0.18500594165E+04  0.00000000000E+00 0.  1.
        -11    1    3    3    0    0 -0.14145316464E+03 -0.11045612893E+03  0.38877641833E+03  0.42820165536E+03  0.00000000000E+00 0. -1.
         22    1    1    2    0    0  0.57529416641E+03  0.61487154523E+03 -0.70106418736E+02  0.84495284187E+03  0.00000000000E+00 0.  1.
<mgrwt>
<rscale>  0 0.23606389E+04</rscale>
<asrwt>0</asrwt>
<pdfrwt beam="1">  1        2 0.39755160E+00 0.23606389E+04</pdfrwt>
<pdfrwt beam="2">  1       -2 0.82942839E-01 0.23606389E+04</pdfrwt>
<totfact> 0.35734002E+00</totfact>
</mgrwt>
</event>
<event>
 6    1  0.1773638E-005  0.1459873E+04  0.7818608E-02  0.8911585E-01
         -2   -1    0    0    0  501 -0.00000000000E+00  0.00000000000E+00  0.27250266812E+03  0.27250266812E+03  0.00000000000E+00 0.  1.
          2   -1    0    0  501    0  0.00000000000E+00 -0.00000000000E+00 -0.19552358565E+04  0.19552358565E+04  0.00000000000E+00 0. -1.
         23    2    1    2    0    0  0.26505153572E+03  0.62972628434E+03 -0.12241090500E+04  0.14048511629E+04  0.91412875105E+02 0.  0.
         13    1    3    3    0    0  0.11838346092E+03  0.39221898848E+03 -0.70210215115E+03  0.81289470991E+03  0.00000000000E+00 0. -1.
        -13    1    3    3    0    0  0.14666807480E+03  0.23750729586E+03 -0.52200689889E+03  0.59195645300E+03  0.00000000000E+00 0.  1.
         22    1    1    2    0    0 -0.26505153572E+03 -0.62972628434E+03 -0.45862413832E+03  0.82288736169E+03  0.00000000000E+00 0.  1.
<mgrwt>
<rscale>  0 0.14598726E+04</rscale>
<asrwt>0</asrwt>
<pdfrwt beam="1">  1        2 0.30080552E+00 0.14598726E+04</pdfrwt>
<pdfrwt beam="2">  1       -2 0.41923487E-01 0.14598726E+04</pdfrwt>
<totfact> 0.36982677E+01</totfact>
</mgrwt>
</event>
<event>
 6    1  0.1773638E-005  0.1912085E+04  0.7818608E-02  0.8648864E-01
          2   -1    0    0  501    0  0.00000000000E+00  0.00000000000E+00  0.62171671789E+03  0.62171671789E+03  0.00000000000E+00 0. -1.
         -2   -1    0    0    0  501 -0.00000000000E+00 -0.00000000000E+00 -0.14701513622E+04  0.14701513622E+04  0.00000000000E+00 0.  1.
         23    2    1    2    0    0 -0.43379949527E+03  0.33428532181E+03 -0.12796798179E+04  0.13948020300E+04  0.89238938207E+02 0.  0.
         11    1    3    3    0    0 -0.83464948792E+02  0.36196834262E+02 -0.27908070944E+03  0.29353475240E+03  0.00000000000E+00 0. -1.
        -11    1    3    3    0    0 -0.35033454648E+03  0.29808848755E+03 -0.10005991085E+04  0.11012672776E+04  0.00000000000E+00 0.  1.
         22    1    1    2    0    0  0.43379949527E+03 -0.33428532181E+03  0.43124517357E+03  0.69706605010E+03  0.00000000000E+00 0. -1.
<mgrwt>
<rscale>  0 0.19120854E+04</rscale>
<asrwt>0</asrwt>
<pdfrwt beam="1">  1        2 0.95648728E-01 0.19120854E+04</pdfrwt>
<pdfrwt beam="2">  1       -2 0.22617713E+00 0.19120854E+04</pdfrwt>
<totfact> 0.40128674E+00</totfact>
</mgrwt>
</event>
<event>
 6    1  0.1773638E-005  0.3801332E+04  0.7818608E-02  0.8045869E-01
          2   -1    0    0  501    0  0.00000000000E+00  0.00000000000E+00  0.17470734628E+04  0.17470734628E+04  0.00000000000E+00 0. -1.
         -2   -1    0    0    0  501 -0.00000000000E+00 -0.00000000000E+00 -0.20677612702E+04  0.20677612702E+04  0.00000000000E+00 0.  1.
         23    2    1    2    0    0 -0.83986745019E+03 -0.17025940238E+04 -0.95441955872E+02  0.19030451427E+04  0.90928016379E+02 0.  0.
         13    1    3    3    0    0 -0.23785148305E+03 -0.40713268352E+03 -0.26998151201E+01  0.47152692286E+03  0.00000000000E+00 0. -1.
        -13    1    3    3    0    0 -0.60201596714E+03 -0.12954613403E+04 -0.92742140752E+02  0.14315182198E+04  0.00000000000E+00 0.  1.
         22    1    1    2    0    0  0.83986745019E+03  0.17025940238E+04 -0.22524585152E+03  0.19117895903E+04  0.00000000000E+00 0.  1.
<mgrwt>
<rscale>  0 0.38013318E+04</rscale>
<asrwt>0</asrwt>
<pdfrwt beam="1">  1        2 0.26878053E+00 0.38013318E+04</pdfrwt>
<pdfrwt beam="2">  1       -2 0.31811712E+00 0.38013318E+04</pdfrwt>
<totfact> 0.18203339E-01</totfact>
</mgrwt>
</event>
<event>
 6    1  0.1773638E-005  0.2336672E+04  0.7818608E-02  0.8463601E-01
          1   -1    0    0  501    0  0.00000000000E+00  0.00000000000E+00  0.88457909719E+03  0.88457909719E+03  0.00000000000E+00 0. -1.
         -1   -1    0    0    0  501 -0.00000000000E+00 -0.00000000000E+00 -0.15431169409E+04  0.15431169409E+04  0.00000000000E+00 0.  1.
         23    2    1    2    0    0 -0.10955821770E+04 -0.39993337947E+03 -0.31093628028E+03  0.12107022578E+04  0.94189022641E+02 0.  0.
         11    1    3    3    0    0 -0.69543542586E+03 -0.25937319371E+03 -0.15101338056E+03  0.75743641730E+03  0.00000000000E+00 0.  1.
        -11    1    3    3    0    0 -0.40014675113E+03 -0.14056018576E+03 -0.15992289972E+03  0.45326584045E+03  0.00000000000E+00 0. -1.
         22    1    1    2    0    0  0.10955821770E+04  0.39993337947E+03 -0.34760156347E+03  0.12169937804E+04  0.00000000000E+00 0. -1.
<mgrwt>
<rscale>  0 0.23366720E+04</rscale>
<asrwt>0</asrwt>
<pdfrwt beam="1">  1        1 0.13608909E+00 0.23366720E+04</pdfrwt>
<pdfrwt beam="2">  1       -1 0.23740261E+00 0.23366720E+04</pdfrwt>
<totfact> 0.14236463E+00</totfact>
</mgrwt>
</event>
<event>
 6    1  0.1773638E-005  0.7711901E+03  0.7818608E-02  0.9602681E-01
         -1   -1    0    0    0  501 -0.00000000000E+00  0.00000000000E+00  0.34135236868E+03  0.34135236868E+03  0.00000000000E+00 0.  1.
          1   -1    0    0  501    0  0.00000000000E+00 -0.00000000000E+00 -0.43557200291E+03  0.43557200291E+03  0.00000000000E+00 0. -1.
         23    2    1    2    0    0  0.30672769502E+03  0.15656043632E+02  0.17755972118E+03  0.36681340048E+03  0.93261061487E+02 0.  0.
         11    1    3    3    0    0  0.73429520706E+02  0.32127575141E+02  0.13867885208E+02  0.81341218553E+02  0.00000000000E+00 0.  1.
        -11    1    3    3    0    0  0.23329817431E+03 -0.16471531509E+02  0.16369183598E+03  0.28547218193E+03  0.00000000000E+00 0. -1.
         22    1    1    2    0    0 -0.30672769502E+03 -0.15656043632E+02 -0.27177935541E+03  0.41011097111E+03  0.00000000000E+00 0. -1.
<mgrwt>
<rscale>  0 0.77119008E+03</rscale>
<asrwt>0</asrwt>
<pdfrwt beam="1">  1        1 0.67011077E-01 0.77119008E+03</pdfrwt>
<pdfrwt beam="2">  1       -1 0.52515749E-01 0.77119008E+03</pdfrwt>
<totfact> 0.19796578E+02</totfact>
</mgrwt>
</event>
<event>
 6    1  0.1773638E-005  0.1637795E+04  0.7818608E-02  0.8797659E-01
         -1   -1    0    0    0  501 -0.00000000000E+00  0.00000000000E+00  0.47474198392E+03  0.47474198392E+03  0.00000000000E+00 0.  1.
          1   -1    0    0  501    0  0.00000000000E+00 -0.00000000000E+00 -0.14125429291E+04  0.14125429291E+04  0.00000000000E+00 0. -1.
         23    2    1    2    0    0 -0.56269123817E+03  0.20000275345E+03  0.17090740465E+03  0.62797687450E+03  0.92320545061E+02 0.  0.
         11    1    3    3    0    0 -0.35112963955E+03  0.10709513506E+03  0.61097863419E+02  0.37214827776E+03  0.00000000000E+00 0. -1.
        -11    1    3    3    0    0 -0.21156159862E+03  0.92907618386E+02  0.10980954123E+03  0.25582859674E+03  0.00000000000E+00 0.  1.
         22    1    1    2    0    0  0.56269123817E+03 -0.20000275345E+03 -0.11087083498E+04  0.12593080385E+04  0.00000000000E+00 0. -1.
<mgrwt>
<rscale>  0 0.16377954E+04</rscale>
<asrwt>0</asrwt>
<pdfrwt beam="1">  1        1 0.21731430E+00 0.16377954E+04</pdfrwt>
<pdfrwt beam="2">  1       -1 0.73037228E-01 0.16377954E+04</pdfrwt>
<totfact> 0.13608092E+01</totfact>
</mgrwt>
</event>
<event>
 6    1  0.1773638E-005  0.1057310E+04  0.7818608E-02  0.9247829E-01
          2   -1    0    0  501    0  0.00000000000E+00  0.00000000000E+00  0.28825337889E+04  0.28825337889E+04  0.00000000000E+00 0. -1.
         -2   -1    0    0    0  501 -0.00000000000E+00 -0.00000000000E+00 -0.96955007236E+02  0.96955007236E+02  0.00000000000E+00 0.  1.
         23    2    1    2    0    0  0.41186638122E+03 -0.21923960045E+03  0.20802268965E+04  0.21337812815E+04  0.89323557686E+02 0.  0.
         11    1    3    3    0    0  0.31361898851E+02 -0.47255017791E+02  0.21173522061E+03  0.21919947321E+03  0.00000000000E+00 0.  1.
        -11    1    3    3    0    0  0.38050448237E+03 -0.17198458266E+03  0.18684916759E+04  0.19145818083E+04  0.00000000000E+00 0. -1.
         22    1    1    2    0    0 -0.41186638122E+03  0.21923960045E+03  0.70535188507E+03  0.84570751455E+03  0.00000000000E+00 0.  1.
<mgrwt>
<rscale>  0 0.10573100E+04</rscale>
<asrwt>0</asrwt>
<pdfrwt beam="1">  1        2 0.44346667E+00 0.10573100E+04</pdfrwt>
<pdfrwt beam="2">  1       -2 0.14916157E-01 0.10573100E+04</pdfrwt>
<totfact> 0.73990474E+01</totfact>
</mgrwt>
</event>
<event>
 6    1  0.1773638E-005  0.1220664E+04  0.7818608E-02  0.9094959E-01
         -2   -1    0    0    0  501 -0.00000000000E+00  0.00000000000E+00  0.28272311051E+03  0.28272311051E+03  0.00000000000E+00 0.  1.
          2   -1    0    0  501    0  0.00000000000E+00 -0.00000000000E+00 -0.13175625730E+04  0.13175625730E+04  0.00000000000E+00 0. -1.
         23    2    1    2    0    0 -0.43353047764E+03 -0.40865254285E+03 -0.38198391374E+03  0.71644975794E+03  0.11154805901E+03 0.  0.
         13    1    3    3    0    0 -0.23567385370E+03 -0.23143371933E+03 -0.14597189782E+03  0.36112536149E+03  0.00000000000E+00 0. -1.
        -13    1    3    3    0    0 -0.19785662395E+03 -0.17721882352E+03 -0.23601201593E+03  0.35532439645E+03  0.00000000000E+00 0.  1.
         22    1    1    2    0    0  0.43353047764E+03  0.40865254285E+03 -0.65285554880E+03  0.88383592562E+03  0.00000000000E+00 0.  1.
<mgrwt>
<rscale>  0 0.12206644E+04</rscale>
<asrwt>0</asrwt>
<pdfrwt beam="1">  1        2 0.20270194E+00 0.12206644E+04</pdfrwt>
<pdfrwt beam="2">  1       -2 0.43495862E-01 0.12206644E+04</pdfrwt>
<totfact> 0.79706635E+01</totfact>
</mgrwt>
</event>
<event>
 6    1  0.1773638E-005  0.1435527E+04  0.7818608E-02  0.8928496E-01
          2   -1    0    0  501    0  0.00000000000E+00  0.00000000000E+00  0.97638023197E+03  0.97638023197E+03  0.00000000000E+00 0. -1.
         -2   -1    0    0    0  501 -0.00000000000E+00 -0.00000000000E+00 -0.52764761876E+03  0.52764761876E+03  0.00000000000E+00 0.  1.
         23    2    1    2    0    0  0.18287664175E+03  0.59214029245E+03  0.59889767521E+03  0.86635745163E+03  0.88446687784E+02 0.  0.
         11    1    3    3    0    0  0.30342199831E+02  0.11527674016E+03  0.70752553853E+02  0.13861926197E+03  0.00000000000E+00 0. -1.
        -11    1    3    3    0    0  0.15253444192E+03  0.47686355229E+03  0.52814512135E+03  0.72773818966E+03  0.00000000000E+00 0.  1.
         22    1    1    2    0    0 -0.18287664175E+03 -0.59214029245E+03 -0.15016506200E+03  0.63767039910E+03  0.00000000000E+00 0.  1.
<mgrwt>
<rscale>  0 0.14355274E+04</rscale>
<asrwt>0</asrwt>
<pdfrwt beam="1">  1        2 0.15021234E+00 0.14355274E+04</pdfrwt>
<pdfrwt beam="2">  1       -2 0.81176557E-01 0.14355274E+04</pdfrwt>
<totfact> 0.33887720E+01</totfact>
</mgrwt>
</event>
<event>
 6    1  0.1773638E-005  0.2215267E+04  0.7818608E-02  0.8512101E-01
          2   -1    0    0  501    0  0.00000000000E+00  0.00000000000E+00  0.25384055935E+04  0.25384055935E+04  0.00000000000E+00 0.  1.
         -2   -1    0    0    0  501 -0.00000000000E+00 -0.00000000000E+00 -0.48331587046E+03  0.48331587046E+03  0.00000000000E+00 0. -1.
         23    2    1    2    0    0  0.70416654201E+03 -0.81378304138E+03  0.13776256076E+04  0.17500882680E+04  0.82844878669E+02 0.  0.
         13    1    3    3    0    0  0.44614057674E+03 -0.57020098251E+03  0.94926776630E+03  0.11938508562E+04  0.00000000000E+00 0.  1.
        -13    1    3    3    0    0  0.25802596527E+03 -0.24358205886E+03  0.42835784128E+03  0.55623741184E+03  0.00000000000E+00 0. -1.
         22    1    1    2    0    0 -0.70416654201E+03  0.81378304138E+03  0.67746411551E+03  0.12716331960E+04  0.00000000000E+00 0. -1.
<mgrwt>
<rscale>  0 0.22152668E+04</rscale>
<asrwt>0</asrwt>
<pdfrwt beam="1">  1        2 0.39052393E+00 0.22152668E+04</pdfrwt>
<pdfrwt beam="2">  1       -2 0.74356289E-01 0.22152668E+04</pdfrwt>
<totfact> 0.49137433E+00</totfact>
</mgrwt>
</event>
<event>
 6    1  0.1773638E-005  0.3423963E+04  0.7818608E-02  0.8132050E-01
         -1   -1    0    0    0  501 -0.00000000000E+00  0.00000000000E+00  0.21964262000E+04  0.21964262000E+04  0.00000000000E+00 0.  1.
          1   -1    0    0  501    0  0.00000000000E+00 -0.00000000000E+00 -0.13343863824E+04  0.13343863824E+04  0.00000000000E+00 0. -1.
         23    2    1    2    0    0  0.14050432727E+04 -0.23619734355E+03  0.14079248171E+04  0.20050582719E+04  0.89836516855E+02 0.  0.
         13    1    3    3    0    0  0.69603609377E+03 -0.15367311752E+03  0.74090401687E+03  0.10281149902E+04  0.00000000000E+00 0.  1.
        -13    1    3    3    0    0  0.70900717895E+03 -0.82524226033E+02  0.66702080020E+03  0.97694328167E+03  0.00000000000E+00 0. -1.
         22    1    1    2    0    0 -0.14050432727E+04  0.23619734355E+03 -0.54588499948E+03  0.15257543105E+04  0.00000000000E+00 0. -1.
<mgrwt>
<rscale>  0 0.34239633E+04</rscale>
<asrwt>0</asrwt>
<pdfrwt beam="1">  1        1 0.20529021E+00 0.34239633E+04</pdfrwt>
<pdfrwt beam="2">  1       -1 0.33791172E+00 0.34239633E+04</pdfrwt>
<totfact> 0.13104361E-01</totfact>
</mgrwt>
</event>
<event>
 6    1  0.1773638E-005  0.2626538E+04  0.7818608E-02  0.8359242E-01
          2   -1    0    0  501    0  0.00000000000E+00  0.00000000000E+00  0.15251026205E+04  0.15251026205E+04  0.00000000000E+00 0. -1.
         -2   -1    0    0    0  501 -0.00000000000E+00 -0.00000000000E+00 -0.11308582754E+04  0.11308582754E+04  0.00000000000E+00 0.  1.
         23    2    1    2    0    0  0.12792816742E+04 -0.49200202223E+02  0.48607744263E+03  0.13724440166E+04  0.91373062662E+02 0.  0.
         13    1    3    3    0    0  0.52873330569E+03  0.21563639719E+02  0.18292886259E+03  0.55989898006E+03  0.00000000000E+00 0.  1.
        -13    1    3    3    0    0  0.75054836852E+03 -0.70763841943E+02  0.30314858004E+03  0.81254503653E+03  0.00000000000E+00 0. -1.
         22    1    1    2    0    0 -0.12792816742E+04  0.49200202223E+02 -0.91833097521E+02  0.12835168794E+04  0.00000000000E+00 0.  1.
<mgrwt>
<rscale>  0 0.26265376E+04</rscale>
<asrwt>0</asrwt>
<pdfrwt beam="1">  1        2 0.23463117E+00 0.26265376E+04</pdfrwt>
<pdfrwt beam="2">  1       -2 0.17397820E+00 0.26265376E+04</pdfrwt>
<totfact> 0.21665667E+00</totfact>
</mgrwt>
</event>
<event>
 6    1  0.1773638E-005  0.3264690E+04  0.7818608E-02  0.8171938E-01
          1   -1    0    0  501    0  0.00000000000E+00  0.00000000000E+00  0.21471732273E+04  0.21471732273E+04  0.00000000000E+00 0. -1.
         -1   -1    0    0    0  501 -0.00000000000E+00 -0.00000000000E+00 -0.12409574952E+04  0.12409574952E+04  0.00000000000E+00 0.  1.
         23    2    1    2    0    0  0.40034708969E+03 -0.97520784407E+03 -0.83816835165E+03  0.13499491891E+04  0.92349856540E+02 0.  0.
         11    1    3    3    0    0  0.27974083438E+03 -0.59134571174E+03 -0.48166257584E+03  0.81236908002E+03  0.00000000000E+00 0.  1.
        -11    1    3    3    0    0  0.12060625531E+03 -0.38386213233E+03 -0.35650577580E+03  0.53758010904E+03  0.00000000000E+00 0. -1.
         22    1    1    2    0    0 -0.40034708969E+03  0.97520784407E+03  0.17443840837E+04  0.20381815334E+04  0.00000000000E+00 0. -1.
<mgrwt>
<rscale>  0 0.32646903E+04</rscale>
<asrwt>0</asrwt>
<pdfrwt beam="1">  1        1 0.33033434E+00 0.32646903E+04</pdfrwt>
<pdfrwt beam="2">  1       -1 0.19091654E+00 0.32646903E+04</pdfrwt>
<totfact> 0.34287528E-01</totfact>
</mgrwt>
</event>
<event>
 6    1  0.1773638E-005  0.1958428E+04  0.7818608E-02  0.8626307E-01
          1   -1    0    0  501    0  0.00000000000E+00  0.00000000000E+00  0.24388719037E+04  0.24388719037E+04  0.00000000000E+00 0. -1.
         -1   -1    0    0    0  501 -0.00000000000E+00 -0.00000000000E+00 -0.39315721823E+03  0.39315721823E+03  0.00000000000E+00 0.  1.
         23    2    1    2    0    0  0.46939024094E+03  0.47971211461E+03  0.20522873868E+04  0.21608405407E+04  0.83050666090E+02 0.  0.
         13    1    3    3    0    0  0.20001291325E+03  0.24703477559E+03  0.87648035855E+03  0.93233532848E+03  0.00000000000E+00 0.  1.
        -13    1    3    3    0    0  0.26937732769E+03  0.23267733902E+03  0.11758070282E+04  0.12285052122E+04  0.00000000000E+00 0. -1.
         22    1    1    2    0    0 -0.46939024094E+03 -0.47971211461E+03 -0.65727013030E+01  0.67118858125E+03  0.00000000000E+00 0. -1.
<mgrwt>
<rscale>  0 0.19584280E+04</rscale>
<asrwt>0</asrwt>
<pdfrwt beam="1">  1        1 0.37521105E+00 0.19584280E+04</pdfrwt>
<pdfrwt beam="2">  1       -1 0.60485728E-01 0.19584280E+04</pdfrwt>
<totfact> 0.38557366E+00</totfact>
</mgrwt>
</event>
<event>
 6    1  0.1773638E-005  0.4022163E+04  0.7818608E-02  0.8000091E-01
          2   -1    0    0  501    0  0.00000000000E+00  0.00000000000E+00  0.25778462356E+04  0.25778462356E+04  0.00000000000E+00 0. -1.
         -2   -1    0    0    0  501 -0.00000000000E+00 -0.00000000000E+00 -0.15689251513E+04  0.15689251513E+04  0.00000000000E+00 0.  1.
         23    2    1    2    0    0  0.73247493778E+03 -0.30693048810E+03  0.24084373079E+04  0.25376189643E+04  0.90630475792E+02 0.  0.
         11    1    3    3    0    0  0.23064140139E+03 -0.89752416865E+02  0.88797755403E+03  0.92182161443E+03  0.00000000000E+00 0.  1.
        -11    1    3    3    0    0  0.50183353639E+03 -0.21717807123E+03  0.15204597539E+04  0.16157973499E+04  0.00000000000E+00 0. -1.
         22    1    1    2    0    0 -0.73247493778E+03  0.30693048810E+03 -0.13995162236E+04  0.16091524226E+04  0.00000000000E+00 0.  1.
<mgrwt>
<rscale>  0 0.40221625E+04</rscale>
<asrwt>0</asrwt>
<pdfrwt beam="1">  1        2 0.39659173E+00 0.40221625E+04</pdfrwt>
<pdfrwt beam="2">  1       -2 0.24137310E+00 0.40221625E+04</pdfrwt>
<totfact> 0.17935899E-01</totfact>
</mgrwt>
</event>
<event>
 6    1  0.1773638E-005  0.3575058E+04  0.7818608E-02  0.8096229E-01
          2   -1    0    0  501    0  0.00000000000E+00  0.00000000000E+00  0.27570490178E+04  0.27570490178E+04  0.00000000000E+00 0. -1.
         -2   -1    0    0    0  501 -0.00000000000E+00 -0.00000000000E+00 -0.11589418095E+04  0.11589418095E+04  0.00000000000E+00 0.  1.
         23    2    1    2    0    0 -0.23225372728E+03 -0.16660849166E+04  0.14580317243E+04  0.22279736816E+04  0.90716448741E+02 0.  0.
         11    1    3    3    0    0 -0.43177129587E+02 -0.14751493377E+03  0.15122835177E+03  0.21562684105E+03  0.00000000000E+00 0. -1.
        -11    1    3    3    0    0 -0.18907659769E+03 -0.15185699828E+04  0.13068033725E+04  0.20123468406E+04  0.00000000000E+00 0.  1.
         22    1    1    2    0    0  0.23225372728E+03  0.16660849166E+04  0.14007548403E+03  0.16880171457E+04  0.00000000000E+00 0.  1.
<mgrwt>
<rscale>  0 0.35750577E+04</rscale>
<asrwt>0</asrwt>
<pdfrwt beam="1">  1        2 0.42416139E+00 0.35750577E+04</pdfrwt>
<pdfrwt beam="2">  1       -2 0.17829874E+00 0.35750577E+04</pdfrwt>
<totfact> 0.37338424E-01</totfact>
</mgrwt>
</event>
<event>
 6    1  0.1773638E-005  0.2307701E+04  0.7818608E-02  0.8474891E-01
         -1   -1    0    0    0  501 -0.00000000000E+00  0.00000000000E+00  0.95024034823E+03  0.95024034823E+03  0.00000000000E+00 0.  1.
          1   -1    0    0  501    0  0.00000000000E+00 -0.00000000000E+00 -0.14010880813E+04  0.14010880813E+04  0.00000000000E+00 0. -1.
         23    2    1    2    0    0 -0.17045025269E+03  0.50211882029E+03 -0.12679143597E+04  0.13772778813E+04  0.90060759143E+02 0.  0.
         13    1    3    3    0    0 -0.38599816656E+02  0.10463215009E+03 -0.18253659675E+03  0.21390989185E+03  0.00000000000E+00 0. -1.
        -13    1    3    3    0    0 -0.13185043603E+03  0.39748667019E+03 -0.10853777630E+04  0.11633679894E+04  0.00000000000E+00 0.  1.
         22    1    1    2    0    0  0.17045025269E+03 -0.50211882029E+03  0.81706662660E+03  0.97405054830E+03  0.00000000000E+00 0.  1.
<mgrwt>
<rscale>  0 0.23077005E+04</rscale>
<asrwt>0</asrwt>
<pdfrwt beam="1">  1        1 0.21555201E+00 0.23077005E+04</pdfrwt>
<pdfrwt beam="2">  1       -1 0.14619082E+00 0.23077005E+04</pdfrwt>
<totfact> 0.25899898E+00</totfact>
</mgrwt>
</event>
<event>
 6    1  0.1773638E-005  0.2990877E+04  0.7818608E-02  0.8246341E-01
         -2   -1    0    0    0  501 -0.00000000000E+00  0.00000000000E+00  0.10899793200E+04  0.10899793200E+04  0.00000000000E+00 0.  1.
          2   -1    0    0  501    0  0.00000000000E+00 -0.00000000000E+00 -0.20517236514E+04  0.20517236514E+04  0.00000000000E+00 0. -1.
         23    2    1    2    0    0  0.14763074165E+04  0.10683922963E+02 -0.72219351976E+03  0.16460484907E+04  0.91183439238E+02 0.  0.
         13    1    3    3    0    0  0.18459055727E+03 -0.28864412348E+02 -0.92401721876E+02  0.20843441736E+03  0.00000000000E+00 0.  1.
        -13    1    3    3    0    0  0.12917168592E+04  0.39548335311E+02 -0.62979179789E+03  0.14376140733E+04  0.00000000000E+00 0. -1.
         22    1    1    2    0    0 -0.14763074165E+04 -0.10683922963E+02 -0.23955081159E+03  0.14956544806E+04  0.00000000000E+00 0.  1.
<mgrwt>
<rscale>  0 0.29908770E+04</rscale>
<asrwt>0</asrwt>
<pdfrwt beam="1">  1        2 0.31564979E+00 0.29908770E+04</pdfrwt>
<pdfrwt beam="2">  1       -2 0.16768913E+00 0.29908770E+04</pdfrwt>
<totfact> 0.11858905E+00</totfact>
</mgrwt>
</event>
<event>
 6    1  0.1773638E-005  0.1377245E+04  0.7818608E-02  0.8970457E-01
         -2   -1    0    0    0  501 -0.00000000000E+00  0.00000000000E+00  0.11586173655E+03  0.11586173655E+03  0.00000000000E+00 0.  1.
          2   -1    0    0  501    0  0.00000000000E+00 -0.00000000000E+00 -0.40928165808E+04  0.40928165808E+04  0.00000000000E+00 0. -1.
         23    2    1    2    0    0  0.31184165163E+03 -0.21322863107E+03 -0.37455867978E+04  0.37656852726E+04  0.90848486221E+02 0.  0.
         11    1    3    3    0    0  0.14414358782E+03 -0.14963240913E+03 -0.21698248051E+04  0.21797492784E+04  0.00000000000E+00 0. -1.
        -11    1    3    3    0    0  0.16769806381E+03 -0.63596221946E+02 -0.15757619927E+04  0.15859359942E+04  0.00000000000E+00 0.  1.
         22    1    1    2    0    0 -0.31184165163E+03  0.21322863107E+03 -0.23136804644E+03  0.44299304477E+03  0.00000000000E+00 0.  1.
<mgrwt>
<rscale>  0 0.13772448E+04</rscale>
<asrwt>0</asrwt>
<pdfrwt beam="1">  1        2 0.62966408E+00 0.13772448E+04</pdfrwt>
<pdfrwt beam="2">  1       -2 0.17824883E-01 0.13772448E+04</pdfrwt>
<totfact> 0.75458635E+00</totfact>
</mgrwt>
</event>
<event>
 6    1  0.1773638E-005  0.1741937E+04  0.7818608E-02  0.8737801E-01
         -1   -1    0    0    0  501 -0.00000000000E+00  0.00000000000E+00  0.28616326363E+03  0.28616326363E+03  0.00000000000E+00 0.  1.
          1   -1    0    0  501    0  0.00000000000E+00 -0.00000000000E+00 -0.26508854195E+04  0.26508854195E+04  0.00000000000E+00 0. -1.
         23    2    1    2    0    0 -0.13448077572E+03  0.54406276118E+03 -0.23044494291E+04  0.23733801912E+04  0.91416593516E+02 0.  0.
         11    1    3    3    0    0 -0.10744345180E+03  0.24927727980E+03 -0.10593551430E+04  0.10935797075E+04  0.00000000000E+00 0.  1.
        -11    1    3    3    0    0 -0.27037323916E+02  0.29478548137E+03 -0.12450942861E+04  0.12798004837E+04  0.00000000000E+00 0. -1.
         22    1    1    2    0    0  0.13448077572E+03 -0.54406276118E+03 -0.60272726715E+02  0.56366849187E+03  0.00000000000E+00 0.  1.
<mgrwt>
<rscale>  0 0.17419369E+04</rscale>
<asrwt>0</asrwt>
<pdfrwt beam="1">  1        1 0.40782852E+00 0.17419369E+04</pdfrwt>
<pdfrwt beam="2">  1       -1 0.44025118E-01 0.17419369E+04</pdfrwt>
<totfact> 0.51514686E+00</totfact>
</mgrwt>
</event>
<event>
 6    1  0.1773638E-005  0.9878880E+03  0.7818608E-02  0.9321930E-01
         -2   -1    0    0    0  501 -0.00000000000E+00  0.00000000000E+00  0.28738377734E+03  0.28738377734E+03  0.00000000000E+00 0.  1.
          2   -1    0    0  501    0  0.00000000000E+00 -0.00000000000E+00 -0.84897167950E+03  0.84897167950E+03  0.00000000000E+00 0. -1.
         23    2    1    2    0    0 -0.34979908753E+03 -0.15848672968E+03 -0.63284252093E+03  0.74577298691E+03  0.90610411011E+02 0.  0.
         11    1    3    3    0    0 -0.22265931442E+03 -0.62762750061E+02 -0.42636087804E+03  0.48507724273E+03  0.00000000000E+00 0. -1.
        -11    1    3    3    0    0 -0.12713977311E+03 -0.95723979624E+02 -0.20648164288E+03  0.26069574417E+03  0.00000000000E+00 0.  1.
         22    1    1    2    0    0  0.34979908753E+03  0.15848672968E+03  0.71254618768E+02  0.39058246993E+03  0.00000000000E+00 0.  1.
<mgrwt>
<rscale>  0 0.98788803E+03</rscale>
<asrwt>0</asrwt>
<pdfrwt beam="1">  1        2 0.13061103E+00 0.98788803E+03</pdfrwt>
<pdfrwt beam="2">  1       -2 0.44212889E-01 0.98788803E+03</pdfrwt>
<totfact> 0.15400934E+02</totfact>
</mgrwt>
</event>
<event>
 6    1  0.1773638E-005  0.3417786E+04  0.7818608E-02  0.8133555E-01
          2   -1    0    0  501    0  0.00000000000E+00  0.00000000000E+00  0.24699917623E+04  0.24699917623E+04  0.00000000000E+00 0. -1.
         -2   -1    0    0    0  501 -0.00000000000E+00 -0.00000000000E+00 -0.11823180509E+04  0.11823180509E+04  0.00000000000E+00 0.  1.
         23    2    1    2    0    0  0.17052054938E+04 -0.81177323506E+02  0.59724882081E+03  0.18108424464E+04  0.90159180122E+02 0.  0.
         13    1    3    3    0    0  0.10060980507E+04 -0.57094605631E+01  0.33683922950E+03  0.10610026165E+04  0.00000000000E+00 0.  1.
        -13    1    3    3    0    0  0.69910744301E+03 -0.75467862943E+02  0.26040959132E+03  0.74983982987E+03  0.00000000000E+00 0. -1.
         22    1    1    2    0    0 -0.17052054938E+04  0.81177323506E+02  0.69042489054E+03  0.18414673669E+04  0.00000000000E+00 0. -1.
<mgrwt>
<rscale>  0 0.34177863E+04</rscale>
<asrwt>0</asrwt>
<pdfrwt beam="1">  1        2 0.37999873E+00 0.34177863E+04</pdfrwt>
<pdfrwt beam="2">  1       -2 0.18189509E+00 0.34177863E+04</pdfrwt>
<totfact> 0.52731794E-01</totfact>
</mgrwt>
</event>
<event>
 6    1  0.1773638E-005  0.2466962E+04  0.7818608E-02  0.8414851E-01
         -2   -1    0    0    0  501 -0.00000000000E+00  0.00000000000E+00  0.66915340860E+03  0.66915340860E+03  0.00000000000E+00 0.  1.
          2   -1    0    0  501    0  0.00000000000E+00 -0.00000000000E+00 -0.22737319427E+04  0.22737319427E+04  0.00000000000E+00 0. -1.
         23    2    1    2    0    0 -0.88556341216E+03  0.10616693198E+03  0.21004879932E+03  0.92091444805E+03  0.92026888046E+02 0.  0.
         11    1    3    3    0    0 -0.26592107394E+03  0.69623794383E+02  0.44143813612E+02  0.27840647727E+03  0.00000000000E+00 0.  1.
        -11    1    3    3    0    0 -0.61964233823E+03  0.36543137600E+02  0.16590498571E+03  0.64250797078E+03  0.00000000000E+00 0. -1.
         22    1    1    2    0    0  0.88556341216E+03 -0.10616693198E+03 -0.18146273334E+04  0.20219709032E+04  0.00000000000E+00 0. -1.
<mgrwt>
<rscale>  0 0.24669621E+04</rscale>
<asrwt>0</asrwt>
<pdfrwt beam="1">  1        2 0.34980492E+00 0.24669621E+04</pdfrwt>
<pdfrwt beam="2">  1       -2 0.10294668E+00 0.24669621E+04</pdfrwt>
<totfact> 0.32334361E+00</totfact>
</mgrwt>
</event>
<event>
 6    1  0.1773638E-005  0.7741250E+03  0.7818608E-02  0.9598244E-01
         -2   -1    0    0    0  501 -0.00000000000E+00  0.00000000000E+00  0.37425923809E+03  0.37425923809E+03  0.00000000000E+00 0.  1.
          2   -1    0    0  501    0  0.00000000000E+00 -0.00000000000E+00 -0.40030379420E+03  0.40030379420E+03  0.00000000000E+00 0. -1.
         23    2    1    2    0    0 -0.20102672069E+03 -0.26760705176E+03  0.17181177152E+03  0.38575407796E+03  0.85215299371E+02 0.  0.
         13    1    3    3    0    0 -0.13561820408E+03 -0.10978966978E+03  0.90298555960E+02  0.19646856766E+03  0.00000000000E+00 0. -1.
        -13    1    3    3    0    0 -0.65408516605E+02 -0.15781738198E+03  0.81513215558E+02  0.18928551030E+03  0.00000000000E+00 0.  1.
         22    1    1    2    0    0  0.20102672069E+03  0.26760705176E+03 -0.19785632763E+03  0.38880895433E+03  0.00000000000E+00 0. -1.
<mgrwt>
<rscale>  0 0.77412504E+03</rscale>
<asrwt>0</asrwt>
<pdfrwt beam="1">  1        2 0.61585199E-01 0.77412504E+03</pdfrwt>
<pdfrwt beam="2">  1       -2 0.57578344E-01 0.77412504E+03</pdfrwt>
<totfact> 0.22630244E+02</totfact>
</mgrwt>
</event>
<event>
 6    1  0.1773638E-005  0.1561893E+04  0.7818608E-02  0.8844307E-01
          1   -1    0    0  501    0  0.00000000000E+00  0.00000000000E+00  0.12042593518E+04  0.12042593518E+04  0.00000000000E+00 0. -1.
         -1   -1    0    0    0  501 -0.00000000000E+00 -0.00000000000E+00 -0.50643360768E+03  0.50643360768E+03  0.00000000000E+00 0.  1.
         23    2    1    2    0    0 -0.28467574538E+03 -0.65710766647E+03  0.68422732936E+03  0.99444182882E+03  0.88976105277E+02 0.  0.
         11    1    3    3    0    0 -0.14792004459E+03 -0.43410353266E+03  0.46530512740E+03  0.65332616528E+03  0.00000000000E+00 0. -1.
        -11    1    3    3    0    0 -0.13675570079E+03 -0.22300413382E+03  0.21892220196E+03  0.34111566354E+03  0.00000000000E+00 0.  1.
         22    1    1    2    0    0  0.28467574538E+03  0.65710766647E+03  0.13598414809E+02  0.71625113070E+03  0.00000000000E+00 0.  1.
<mgrwt>
<rscale>  0 0.15618930E+04</rscale>
<asrwt>0</asrwt>
<pdfrwt beam="1">  1        1 0.18527067E+00 0.15618930E+04</pdfrwt>
<pdfrwt beam="2">  1       -1 0.77912863E-01 0.15618930E+04</pdfrwt>
<totfact> 0.16850888E+01</totfact>
</mgrwt>
</event>
<event>
 6    1  0.1773638E-005  0.2115147E+04  0.7818608E-02  0.8554600E-01
         -2   -1    0    0    0  501 -0.00000000000E+00  0.00000000000E+00  0.49236864829E+03  0.49236864829E+03  0.00000000000E+00 0.  1.
          2   -1    0    0  501    0  0.00000000000E+00 -0.00000000000E+00 -0.22715945835E+04  0.22715945835E+04  0.00000000000E+00 0. -1.
         23    2    1    2    0    0  0.18834319764E+03 -0.76485545648E+03 -0.18095216508E+04  0.19756772052E+04  0.91949904150E+02 0.  0.
         13    1    3    3    0    0  0.33936317082E+02 -0.19417889981E+03 -0.55138491572E+03  0.58556164836E+03  0.00000000000E+00 0. -1.
        -13    1    3    3    0    0  0.15440688056E+03 -0.57067655667E+03 -0.12581367351E+04  0.13901155568E+04  0.00000000000E+00 0.  1.
         22    1    1    2    0    0 -0.18834319764E+03  0.76485545648E+03  0.30295715586E+02  0.78828602663E+03  0.00000000000E+00 0.  1.
<mgrwt>
<rscale>  0 0.21151472E+04</rscale>
<asrwt>0</asrwt>
<pdfrwt beam="1">  1        2 0.34947609E+00 0.21151472E+04</pdfrwt>
<pdfrwt beam="2">  1       -2 0.75749022E-01 0.21151472E+04</pdfrwt>
<totfact> 0.67637333E+00</totfact>
</mgrwt>
</event>
<event>
 6    1  0.1773638E-005  0.2357315E+04  0.7818608E-02  0.8455659E-01
          2   -1    0    0  501    0  0.00000000000E+00  0.00000000000E+00  0.10548583938E+04  0.10548583938E+04  0.00000000000E+00 0. -1.
         -2   -1    0    0    0  501 -0.00000000000E+00 -0.00000000000E+00 -0.13169856238E+04  0.13169856238E+04  0.00000000000E+00 0.  1.
         23    2    1    2    0    0  0.80449520846E+03 -0.93095109441E+01 -0.99540111656E+03  0.12832716497E+04  0.93078121520E+02 0.  0.
         11    1    3    3    0    0  0.57537139844E+03 -0.41319522281E+02 -0.74729207551E+03  0.94403654335E+03  0.00000000000E+00 0. -1.
        -11    1    3    3    0    0  0.22912381002E+03  0.32010011337E+02 -0.24810904105E+03  0.33923510637E+03  0.00000000000E+00 0.  1.
         22    1    1    2    0    0 -0.80449520846E+03  0.93095109441E+01  0.73327388650E+03  0.10885723678E+04  0.00000000000E+00 0. -1.
<mgrwt>
<rscale>  0 0.23573149E+04</rscale>
<asrwt>0</asrwt>
<pdfrwt beam="1">  1        2 0.16228591E+00 0.23573149E+04</pdfrwt>
<pdfrwt beam="2">  1       -2 0.20261317E+00 0.23573149E+04</pdfrwt>
<totfact> 0.26813816E+00</totfact>
</mgrwt>
</event>
<event>
 6    1  0.1773638E-005  0.1751734E+04  0.7818608E-02  0.8732397E-01
         -2   -1    0    0    0  501 -0.00000000000E+00  0.00000000000E+00  0.72031960930E+03  0.72031960930E+03  0.00000000000E+00 0.  1.
          2   -1    0    0  501    0  0.00000000000E+00 -0.00000000000E+00 -0.10650033911E+04  0.10650033911E+04  0.00000000000E+00 0. -1.
         23    2    1    2    0    0  0.27579911484E+03 -0.65000263900E+03 -0.69704516347E+03  0.99619238657E+03  0.89211707162E+02 0.  0.
         13    1    3    3    0    0  0.39762110075E+01 -0.20962591852E+01  0.21288683412E+01  0.49735939684E+01  0.00000000000E+00 0.  1.
        -13    1    3    3    0    0  0.27182290383E+03 -0.64790637982E+03 -0.69917403181E+03  0.99121879260E+03  0.00000000000E+00 0. -1.
         22    1    1    2    0    0 -0.27579911484E+03  0.65000263900E+03  0.35236138163E+03  0.78913061385E+03  0.00000000000E+00 0.  1.
<mgrwt>
<rscale>  0 0.17517338E+04</rscale>
<asrwt>0</asrwt>
<pdfrwt beam="1">  1        2 0.16384667E+00 0.17517338E+04</pdfrwt>
<pdfrwt beam="2">  1       -2 0.11081840E+00 0.17517338E+04</pdfrwt>
<totfact> 0.14010331E+01</totfact>
</mgrwt>
</event>
<event>
 6    1  0.1773638E-005  0.1155150E+04  0.7818608E-02  0.9153045E-01
          1   -1    0    0  501    0  0.00000000000E+00  0.00000000000E+00  0.39223697887E+03  0.39223697887E+03  0.00000000000E+00 0. -1.
         -1   -1    0    0    0  501 -0.00000000000E+00 -0.00000000000E+00 -0.85048842103E+03  0.85048842103E+03  0.00000000000E+00 0.  1.
         23    2    1    2    0    0  0.43019227211E+03 -0.36643566910E+03 -0.12501872362E+03  0.58668840759E+03  0.96089103272E+02 0.  0.
         11    1    3    3    0    0  0.10720827774E+03 -0.50470509185E+02 -0.24220207701E+01  0.11851899973E+03  0.00000000000E+00 0. -1.
        -11    1    3    3    0    0  0.32298399438E+03 -0.31596515991E+03 -0.12259670285E+03  0.46816940786E+03  0.00000000000E+00 0.  1.
         22    1    1    2    0    0 -0.43019227211E+03  0.36643566910E+03 -0.33323271854E+03  0.65603699231E+03  0.00000000000E+00 0.  1.
<mgrwt>
<rscale>  0 0.11551502E+04</rscale>
<asrwt>0</asrwt>
<pdfrwt beam="1">  1        1 0.60344150E-01 0.11551502E+04</pdfrwt>
<pdfrwt beam="2">  1       -1 0.13084437E+00 0.11551502E+04</pdfrwt>
<totfact> 0.30512007E+01</totfact>
</mgrwt>
</event>
<event>
 6    1  0.1773638E-005  0.2041325E+04  0.7818608E-02  0.8587540E-01
          2   -1    0    0  501    0  0.00000000000E+00  0.00000000000E+00  0.14064507530E+04  0.14064507530E+04  0.00000000000E+00 0. -1.
         -2   -1    0    0    0  501 -0.00000000000E+00 -0.00000000000E+00 -0.74069555658E+03  0.74069555658E+03  0.00000000000E+00 0.  1.
         23    2    1    2    0    0 -0.12087509431E+03 -0.10006734472E+03  0.13922720322E+04  0.14038758509E+04  0.88440551765E+02 0.  0.
         11    1    3    3    0    0  0.41341605901E+01  0.68678826560E+01  0.21681953026E+03  0.21696766533E+03  0.00000000000E+00 0.  1.
        -11    1    3    3    0    0 -0.12500925490E+03 -0.10693522738E+03  0.11754525020E+04  0.11869081856E+04  0.00000000000E+00 0. -1.
         22    1    1    2    0    0  0.12087509431E+03  0.10006734472E+03 -0.72651683583E+03  0.74327045862E+03  0.00000000000E+00 0.  1.
<mgrwt>
<rscale>  0 0.20413249E+04</rscale>
<asrwt>0</asrwt>
<pdfrwt beam="1">  1        2 0.21637704E+00 0.20413249E+04</pdfrwt>
<pdfrwt beam="2">  1       -2 0.11395316E+00 0.20413249E+04</pdfrwt>
<totfact> 0.80121391E+00</totfact>
</mgrwt>
</event>
<event>
 6    1  0.1773638E-005  0.2448268E+04  0.7818608E-02  0.8421651E-01
         -1   -1    0    0    0  501 -0.00000000000E+00  0.00000000000E+00  0.97226304269E+03  0.97226304269E+03  0.00000000000E+00 0. -1.
          1   -1    0    0  501    0  0.00000000000E+00 -0.00000000000E+00 -0.15412536796E+04  0.15412536796E+04  0.00000000000E+00 0.  1.
         23    2    1    2    0    0 -0.98833838453E+02 -0.12088680579E+04 -0.44097229458E+03  0.12938779213E+04  0.92376412533E+02 0.  0.
         13    1    3    3    0    0 -0.90868549589E+02 -0.71627506412E+03 -0.29597824877E+03  0.78032697283E+03  0.00000000000E+00 0.  1.
        -13    1    3    3    0    0 -0.79652888644E+01 -0.49259299374E+03 -0.14499404581E+03  0.51355094843E+03  0.00000000000E+00 0. -1.
         22    1    1    2    0    0  0.98833838453E+02  0.12088680579E+04 -0.12801834229E+03  0.12196388010E+04  0.00000000000E+00 0. -1.
<mgrwt>
<rscale>  0 0.24482680E+04</rscale>
<asrwt>0</asrwt>
<pdfrwt beam="1">  1        1 0.23711595E+00 0.24482680E+04</pdfrwt>
<pdfrwt beam="2">  1       -1 0.14957893E+00 0.24482680E+04</pdfrwt>
<totfact> 0.19217064E+00</totfact>
</mgrwt>
</event>
<event>
 6    1  0.1773638E-005  0.1021562E+04  0.7818608E-02  0.9285207E-01
         -1   -1    0    0    0  501 -0.00000000000E+00  0.00000000000E+00  0.17092162541E+03  0.17092162541E+03  0.00000000000E+00 0.  1.
          1   -1    0    0  501    0  0.00000000000E+00 -0.00000000000E+00 -0.15264146953E+04  0.15264146953E+04  0.00000000000E+00 0. -1.
         23    2    1    2    0    0  0.44168074293E+03 -0.71427718085E+02 -0.28812369578E+03  0.53998538934E+03  0.91570514020E+02 0.  0.
         13    1    3    3    0    0  0.42113418104E+03 -0.45699420624E+02 -0.27097224770E+03  0.50286021368E+03  0.00000000000E+00 0.  1.
        -13    1    3    3    0    0  0.20546561897E+02 -0.25728297461E+02 -0.17151448087E+02  0.37125175656E+02  0.00000000000E+00 0. -1.
         22    1    1    2    0    0 -0.44168074293E+03  0.71427718085E+02 -0.10673693741E+04  0.11573509314E+04  0.00000000000E+00 0. -1.
<mgrwt>
<rscale>  0 0.10215621E+04</rscale>
<asrwt>0</asrwt>
<pdfrwt beam="1">  1        1 0.23483302E+00 0.10215621E+04</pdfrwt>
<pdfrwt beam="2">  1       -1 0.26295635E-01 0.10215621E+04</pdfrwt>
<totfact> 0.80635865E+01</totfact>
</mgrwt>
</event>
<event>
 6    1  0.1773638E-005  0.1193785E+04  0.7818608E-02  0.9118314E-01
         -1   -1    0    0    0  501 -0.00000000000E+00  0.00000000000E+00  0.77797319662E+03  0.77797319662E+03  0.00000000000E+00 0.  1.
          1   -1    0    0  501    0  0.00000000000E+00 -0.00000000000E+00 -0.45795985730E+03  0.45795985730E+03  0.00000000000E+00 0. -1.
         23    2    1    2    0    0 -0.43064593287E+02  0.14846979014E+03  0.75410241265E+03  0.77513899866E+03  0.90951529346E+02 0.  0.
         11    1    3    3    0    0  0.27536800985E+02  0.25503040843E+02  0.15175718791E+03  0.15632953842E+03  0.00000000000E+00 0. -1.
        -11    1    3    3    0    0 -0.70601394272E+02  0.12296674930E+03  0.60234522474E+03  0.61880946024E+03  0.00000000000E+00 0.  1.
         22    1    1    2    0    0  0.43064593287E+02 -0.14846979014E+03 -0.43408907333E+03  0.46079405527E+03  0.00000000000E+00 0. -1.
<mgrwt>
<rscale>  0 0.11937847E+04</rscale>
<asrwt>0</asrwt>
<pdfrwt beam="1">  1        1 0.70455362E-01 0.11937847E+04</pdfrwt>
<pdfrwt beam="2">  1       -1 0.11968818E+00 0.11937847E+04</pdfrwt>
<totfact> 0.30856563E+01</totfact>
</mgrwt>
</event>
<event>
 6    1  0.1773638E-005  0.2321178E+04  0.7818608E-02  0.8469617E-01
          1   -1    0    0  501    0  0.00000000000E+00  0.00000000000E+00  0.17959773620E+04  0.17959773620E+04  0.00000000000E+00 0. -1.
         -1   -1    0    0    0  501 -0.00000000000E+00 -0.00000000000E+00 -0.74999102896E+03  0.74999102896E+03  0.00000000000E+00 0.  1.
         23    2    1    2    0    0  0.58758255567E+03  0.17523429216E+03  0.16023100691E+04  0.17180454379E+04  0.91226379050E+02 0.  0.
         13    1    3    3    0    0  0.27315479026E+03  0.34308750688E+02  0.70199476200E+03  0.75404726357E+03  0.00000000000E+00 0.  1.
        -13    1    3    3    0    0  0.31442776541E+03  0.14092554147E+03  0.90031530711E+03  0.96399817433E+03  0.00000000000E+00 0. -1.
         22    1    1    2    0    0 -0.58758255567E+03 -0.17523429216E+03 -0.55632373608E+03  0.82792295305E+03  0.00000000000E+00 0.  1.
<mgrwt>
<rscale>  0 0.23211781E+04</rscale>
<asrwt>0</asrwt>
<pdfrwt beam="1">  1        1 0.27630421E+00 0.23211781E+04</pdfrwt>
<pdfrwt beam="2">  1       -1 0.11538324E+00 0.23211781E+04</pdfrwt>
<totfact> 0.25184745E+00</totfact>
</mgrwt>
</event>
<event>
 6    1  0.1773638E-005  0.6640146E+03  0.7818608E-02  0.9780831E-01
         -1   -1    0    0    0  501 -0.00000000000E+00  0.00000000000E+00  0.21984580009E+03  0.21984580009E+03  0.00000000000E+00 0.  1.
          1   -1    0    0  501    0  0.00000000000E+00 -0.00000000000E+00 -0.50139165218E+03  0.50139165218E+03  0.00000000000E+00 0. -1.
         23    2    1    2    0    0  0.20016231274E+03  0.14050954696E+03 -0.37704781122E+03  0.45869505870E+03  0.91805341318E+02 0.  0.
         11    1    3    3    0    0  0.15699638697E+03  0.14087052289E+03 -0.34706680484E+03  0.40613758354E+03  0.00000000000E+00 0. -1.
        -11    1    3    3    0    0  0.43165925769E+02 -0.36097592570E+00 -0.29981006384E+02  0.52557475157E+02  0.00000000000E+00 0.  1.
         22    1    1    2    0    0 -0.20016231274E+03 -0.14050954696E+03  0.95501959132E+02  0.26254239358E+03  0.00000000000E+00 0.  1.
<mgrwt>
<rscale>  0 0.66401461E+03</rscale>
<asrwt>0</asrwt>
<pdfrwt beam="1">  1        1 0.77137177E-01 0.66401461E+03</pdfrwt>
<pdfrwt beam="2">  1       -1 0.33822431E-01 0.66401461E+03</pdfrwt>
<totfact> 0.36861215E+02</totfact>
</mgrwt>
</event>
<event>
 6    1  0.1773638E-005  0.1168044E+04  0.7818608E-02  0.9141297E-01
         -2   -1    0    0    0  501 -0.00000000000E+00  0.00000000000E+00  0.67009755076E+03  0.67009755076E+03  0.00000000000E+00 0.  1.
          2   -1    0    0  501    0  0.00000000000E+00 -0.00000000000E+00 -0.50900317957E+03  0.50900317957E+03  0.00000000000E+00 0. -1.
         23    2    1    2    0    0 -0.28327534830E+03 -0.31904147511E+02 -0.42794576868E+03  0.52470705375E+03  0.10448499290E+03 0.  0.
         13    1    3    3    0    0 -0.66710512602E+02 -0.44096629584E+02 -0.16865399105E+03  0.18665201293E+03  0.00000000000E+00 0. -1.
        -13    1    3    3    0    0 -0.21656483570E+03  0.12192482072E+02 -0.25929177762E+03  0.33805504082E+03  0.00000000000E+00 0.  1.
         22    1    1    2    0    0  0.28327534830E+03  0.31904147511E+02  0.58904013986E+03  0.65439367658E+03  0.00000000000E+00 0.  1.
<mgrwt>
<rscale>  0 0.11680441E+04</rscale>
<asrwt>0</asrwt>
<pdfrwt beam="1">  1        2 0.78308181E-01 0.11680441E+04</pdfrwt>
<pdfrwt beam="2">  1       -2 0.10309193E+00 0.11680441E+04</pdfrwt>
<totfact> 0.45813261E+01</totfact>
</mgrwt>
</event>
<event>
 6    1  0.1773638E-005  0.3584968E+04  0.7818608E-02  0.8093944E-01
          2   -1    0    0  501    0  0.00000000000E+00  0.00000000000E+00  0.24716161014E+04  0.24716161014E+04  0.00000000000E+00 0. -1.
         -2   -1    0    0    0  501 -0.00000000000E+00 -0.00000000000E+00 -0.12999590137E+04  0.12999590137E+04  0.00000000000E+00 0.  1.
         23    2    1    2    0    0  0.60169413028E+02  0.66318150132E+03  0.23357023713E+04  0.24305190073E+04  0.92124997454E+02 0.  0.
         13    1    3    3    0    0  0.57762574430E+02  0.20604009331E+03  0.68085492094E+03  0.71368932906E+03  0.00000000000E+00 0. -1.
        -13    1    3    3    0    0  0.24068385982E+01  0.45714140801E+03  0.16548474504E+04  0.17168296782E+04  0.00000000000E+00 0.  1.
         22    1    1    2    0    0 -0.60169413028E+02 -0.66318150132E+03 -0.11640452837E+04  0.13410561078E+04  0.00000000000E+00 0.  1.
<mgrwt>
<rscale>  0 0.35849684E+04</rscale>
<asrwt>0</asrwt>
<pdfrwt beam="1">  1        2 0.38024863E+00 0.35849684E+04</pdfrwt>
<pdfrwt beam="2">  1       -2 0.19999369E+00 0.35849684E+04</pdfrwt>
<totfact> 0.39239658E-01</totfact>
</mgrwt>
</event>
<event>
 6    1  0.1773638E-005  0.2607431E+04  0.7818608E-02  0.8365681E-01
          2   -1    0    0  501    0  0.00000000000E+00  0.00000000000E+00  0.28162448649E+04  0.28162448649E+04  0.00000000000E+00 0. -1.
         -2   -1    0    0    0  501 -0.00000000000E+00 -0.00000000000E+00 -0.60352493695E+03  0.60352493695E+03  0.00000000000E+00 0.  1.
         23    2    1    2    0    0  0.86497958059E+03  0.54527068440E+03  0.51512534263E+02  0.10288856155E+04  0.10218744764E+03 0.  0.
         13    1    3    3    0    0  0.28861624164E+03  0.17954137340E+03 -0.30977201302E+02  0.34131221294E+03  0.00000000000E+00 0. -1.
        -13    1    3    3    0    0  0.57636333894E+03  0.36572931100E+03  0.82489735565E+02  0.68757340254E+03  0.00000000000E+00 0.  1.
         22    1    1    2    0    0 -0.86497958059E+03 -0.54527068440E+03  0.21612073937E+04  0.23908841864E+04  0.00000000000E+00 0. -1.
<mgrwt>
<rscale>  0 0.26074309E+04</rscale>
<asrwt>0</asrwt>
<pdfrwt beam="1">  1        2 0.43326843E+00 0.26074309E+04</pdfrwt>
<pdfrwt beam="2">  1       -2 0.92849992E-01 0.26074309E+04</pdfrwt>
<totfact> 0.19642592E+00</totfact>
</mgrwt>
</event>
<event>
 6    1  0.1773638E-005  0.1403575E+04  0.7818608E-02  0.8951235E-01
         -2   -1    0    0    0  501 -0.00000000000E+00  0.00000000000E+00  0.69113761342E+03  0.69113761342E+03  0.00000000000E+00 0.  1.
          2   -1    0    0  501    0  0.00000000000E+00 -0.00000000000E+00 -0.71260108300E+03  0.71260108300E+03  0.00000000000E+00 0. -1.
         23    2    1    2    0    0 -0.17592528709E+03 -0.16986718349E+03 -0.66552516368E+03  0.71481197138E+03  0.90707465363E+02 0.  0.
         13    1    3    3    0    0 -0.18390218802E+03 -0.16677351511E+03 -0.60924461464E+03  0.65788480798E+03  0.00000000000E+00 0. -1.
        -13    1    3    3    0    0  0.79769009361E+01 -0.30936683826E+01 -0.56280549046E+02  0.56927163407E+02  0.00000000000E+00 0.  1.
         22    1    1    2    0    0  0.17592528709E+03  0.16986718349E+03  0.64406169411E+03  0.68892672504E+03  0.00000000000E+00 0.  1.
<mgrwt>
<rscale>  0 0.14035746E+04</rscale>
<asrwt>0</asrwt>
<pdfrwt beam="1">  1        2 0.10963094E+00 0.14035746E+04</pdfrwt>
<pdfrwt beam="2">  1       -2 0.10632886E+00 0.14035746E+04</pdfrwt>
<totfact> 0.27799127E+01</totfact>
</mgrwt>
</event>
<event>
 6    1  0.1773638E-005  0.3910075E+04  0.7818608E-02  0.8022937E-01
         -2   -1    0    0    0  501 -0.00000000000E+00  0.00000000000E+00  0.20514285625E+04  0.20514285625E+04  0.00000000000E+00 0.  1.
          2   -1    0    0  501    0  0.00000000000E+00 -0.00000000000E+00 -0.18631759000E+04  0.18631759000E+04  0.00000000000E+00 0. -1.
         23    2    1    2    0    0 -0.42141625555E+03  0.16423511326E+04  0.10665431441E+04  0.20050749202E+04  0.88894623845E+02 0.  0.
         11    1    3    3    0    0 -0.26572698608E+03  0.11830792635E+04  0.74240468096E+03  0.14217777904E+04  0.00000000000E+00 0.  1.
        -11    1    3    3    0    0 -0.15568926946E+03  0.45927186902E+03  0.32413846313E+03  0.58329712976E+03  0.00000000000E+00 0. -1.
         22    1    1    2    0    0  0.42141625555E+03 -0.16423511326E+04 -0.87829048163E+03  0.19095295424E+04  0.00000000000E+00 0. -1.
<mgrwt>
<rscale>  0 0.39100753E+04</rscale>
<asrwt>0</asrwt>
<pdfrwt beam="1">  1        2 0.28664245E+00 0.39100753E+04</pdfrwt>
<pdfrwt beam="2">  1       -2 0.31560439E+00 0.39100753E+04</pdfrwt>
<totfact> 0.16119094E-01</totfact>
</mgrwt>
</event>
<event>
 6    1  0.1773638E-005  0.1608493E+04  0.7818608E-02  0.8815347E-01
         -2   -1    0    0    0  501 -0.00000000000E+00  0.00000000000E+00  0.24519053226E+03  0.24519053226E+03  0.00000000000E+00 0.  1.
          2   -1    0    0  501    0  0.00000000000E+00 -0.00000000000E+00 -0.26380002338E+04  0.26380002338E+04  0.00000000000E+00 0. -1.
         23    2    1    2    0    0  0.50451020477E+03 -0.53824911909E+02 -0.86978989735E+02  0.52219882635E+03  0.87741676093E+02 0.  0.
         11    1    3    3    0    0  0.36066545882E+03 -0.72393601674E+02 -0.82996553248E+02  0.37710586657E+03  0.00000000000E+00 0. -1.
        -11    1    3    3    0    0  0.14384474594E+03  0.18568689765E+02 -0.39824364873E+01  0.14509295977E+03  0.00000000000E+00 0.  1.
         22    1    1    2    0    0 -0.50451020477E+03  0.53824911909E+02 -0.23058307118E+04  0.23609919397E+04  0.00000000000E+00 0. -1.
<mgrwt>
<rscale>  0 0.16084933E+04</rscale>
<asrwt>0</asrwt>
<pdfrwt beam="1">  1        2 0.40584620E+00 0.16084933E+04</pdfrwt>
<pdfrwt beam="2">  1       -2 0.37721619E-01 0.16084933E+04</pdfrwt>
<totfact> 0.18420723E+01</totfact>
</mgrwt>
</event>
<event>
 6    1  0.1773638E-005  0.3614492E+04  0.7818608E-02  0.8087180E-01
          1   -1    0    0  501    0  0.00000000000E+00  0.00000000000E+00  0.11785267831E+04  0.11785267831E+04  0.00000000000E+00 0. -1.
         -1   -1    0    0    0  501 -0.00000000000E+00 -0.00000000000E+00 -0.27713738625E+04  0.27713738625E+04  0.00000000000E+00 0.  1.
         23    2    1    2    0    0  0.10045590640E+04 -0.71142949099E+02 -0.24354759023E+04  0.26368037088E+04  0.83610380573E+02 0.  0.
         11    1    3    3    0    0  0.25357774448E+03 -0.53545850040E+02 -0.60303321368E+03  0.65636718942E+03  0.00000000000E+00 0. -1.
        -11    1    3    3    0    0  0.75098131952E+03 -0.17597099059E+02 -0.18324426886E+04  0.19804365194E+04  0.00000000000E+00 0.  1.
         22    1    1    2    0    0 -0.10045590640E+04  0.71142949099E+02  0.84262882285E+03  0.13130969368E+04  0.00000000000E+00 0. -1.
<mgrwt>
<rscale>  0 0.36144921E+04</rscale>
<asrwt>0</asrwt>
<pdfrwt beam="1">  1        1 0.18131182E+00 0.36144921E+04</pdfrwt>
<pdfrwt beam="2">  1       -1 0.42636520E+00 0.36144921E+04</pdfrwt>
<totfact> 0.42158545E-02</totfact>
</mgrwt>
</event>
<event>
 6    1  0.1773638E-005  0.1974990E+04  0.7818608E-02  0.8618404E-01
          2   -1    0    0  501    0  0.00000000000E+00  0.00000000000E+00  0.25637546142E+04  0.25637546142E+04  0.00000000000E+00 0. -1.
         -2   -1    0    0    0  501 -0.00000000000E+00 -0.00000000000E+00 -0.38035873067E+03  0.38035873067E+03  0.00000000000E+00 0.  1.
         23    2    1    2    0    0 -0.56314688792E+03 -0.11504348899E+03  0.22872731740E+04  0.23600243849E+04  0.87903941518E+02 0.  0.
         13    1    3    3    0    0 -0.11951823352E+03  0.51240386708E+01  0.56099946513E+03  0.57361246830E+03  0.00000000000E+00 0. -1.
        -13    1    3    3    0    0 -0.44362865440E+03 -0.12016752766E+03  0.17262737089E+04  0.17864119166E+04  0.00000000000E+00 0.  1.
         22    1    1    2    0    0  0.56314688792E+03  0.11504348899E+03 -0.10387729046E+03  0.58408896001E+03  0.00000000000E+00 0.  1.
<mgrwt>
<rscale>  0 0.19749901E+04</rscale>
<asrwt>0</asrwt>
<pdfrwt beam="1">  1        2 0.39442378E+00 0.19749901E+04</pdfrwt>
<pdfrwt beam="2">  1       -2 0.58516729E-01 0.19749901E+04</pdfrwt>
<totfact> 0.81301430E+00</totfact>
</mgrwt>
</event>
<event>
 6    1  0.2200269E-005  0.3534351E+04  0.7818608E-02  0.8105697E-01
          2   -1    0    0  501    0  0.00000000000E+00  0.00000000000E+00  0.23506183052E+04  0.23506183052E+04  0.00000000000E+00 0. -1.
         -2   -1    0    0    0  501 -0.00000000000E+00 -0.00000000000E+00 -0.13285480339E+04  0.13285480339E+04  0.00000000000E+00 0.  1.
         23    2    1    2    0    0 -0.30793866258E+03 -0.23850817954E+03  0.23047196139E+04  0.23386807152E+04  0.77347378987E+02 0.  0.
         11    1    3    3    0    0 -0.25929407625E+03 -0.19638156470E+03  0.17248254802E+04  0.17552270720E+04  0.00000000000E+00 0. -1.
        -11    1    3    3    0    0 -0.48644586335E+02 -0.42126614841E+02  0.57989413370E+03  0.58345364320E+03  0.00000000000E+00 0.  1.
         22    1    1    2    0    0  0.30793866258E+03  0.23850817954E+03 -0.12826493427E+04  0.13404856239E+04  0.00000000000E+00 0.  1.
<mgrwt>
<rscale>  0 0.35343510E+04</rscale>
<asrwt>0</asrwt>
<pdfrwt beam="1">  1        2 0.36163358E+00 0.35343510E+04</pdfrwt>
<pdfrwt beam="2">  1       -2 0.20439201E+00 0.35343510E+04</pdfrwt>
<totfact> 0.43277200E-01</totfact>
</mgrwt>
</event>
<event>
 6    1  0.1773638E-005  0.1581686E+04  0.7818608E-02  0.8831879E-01
         -2   -1    0    0    0  501 -0.00000000000E+00  0.00000000000E+00  0.27228570343E+03  0.27228570343E+03  0.00000000000E+00 0.  1.
          2   -1    0    0  501    0  0.00000000000E+00 -0.00000000000E+00 -0.22969718627E+04  0.22969718627E+04  0.00000000000E+00 0. -1.
         23    2    1    2    0    0 -0.61404593306E+02  0.60082374031E+03 -0.19317114116E+03  0.64073301286E+03  0.92000070569E+02 0.  0.
         11    1    3    3    0    0 -0.69607296602E+02  0.53168976435E+03 -0.19634096008E+03  0.57104198958E+03  0.00000000000E+00 0. -1.
        -11    1    3    3    0    0  0.82027032960E+01  0.69133975960E+02  0.31698189203E+01  0.69691023277E+02  0.00000000000E+00 0.  1.
         22    1    1    2    0    0  0.61404593306E+02 -0.60082374031E+03 -0.18315150181E+04  0.19285245532E+04  0.00000000000E+00 0. -1.
<mgrwt>
<rscale>  0 0.15816859E+04</rscale>
<asrwt>0</asrwt>
<pdfrwt beam="1">  1        2 0.35338029E+00 0.15816859E+04</pdfrwt>
<pdfrwt beam="2">  1       -2 0.41890107E-01 0.15816859E+04</pdfrwt>
<totfact> 0.23632325E+01</totfact>
</mgrwt>
</event>
<event>
 6    1  0.1773638E-005  0.7210692E+03  0.7818608E-02  0.9681864E-01
          1   -1    0    0  501    0  0.00000000000E+00  0.00000000000E+00  0.46986841350E+03  0.46986841350E+03  0.00000000000E+00 0. -1.
         -1   -1    0    0    0  501 -0.00000000000E+00 -0.00000000000E+00 -0.27664168507E+03  0.27664168507E+03  0.00000000000E+00 0.  1.
         23    2    1    2    0    0  0.33432403751E+03  0.95046250725E+02  0.17156002286E+03  0.39826334989E+03  0.91512308395E+02 0.  0.
         11    1    3    3    0    0  0.26648313915E+03  0.35460024480E+02  0.13531980448E+03  0.30096864666E+03  0.00000000000E+00 0.  1.
        -11    1    3    3    0    0  0.67840898356E+02  0.59586226245E+02  0.36240218385E+02  0.97294703229E+02  0.00000000000E+00 0. -1.
         22    1    1    2    0    0 -0.33432403751E+03 -0.95046250725E+02  0.21666705572E+02  0.34824674868E+03  0.00000000000E+00 0. -1.
<mgrwt>
<rscale>  0 0.72106918E+03</rscale>
<asrwt>0</asrwt>
<pdfrwt beam="1">  1        1 0.72287448E-01 0.72106918E+03</pdfrwt>
<pdfrwt beam="2">  1       -1 0.42560259E-01 0.72106918E+03</pdfrwt>
<totfact> 0.26562067E+02</totfact>
</mgrwt>
</event>
<event>
 6    1  0.1773638E-005  0.2011793E+04  0.7818608E-02  0.8601127E-01
         -1   -1    0    0    0  501 -0.00000000000E+00  0.00000000000E+00  0.12794907503E+04  0.12794907503E+04  0.00000000000E+00 0.  1.
          1   -1    0    0  501    0  0.00000000000E+00 -0.00000000000E+00 -0.79080500506E+03  0.79080500506E+03  0.00000000000E+00 0. -1.
         23    2    1    2    0    0  0.25591974762E+03  0.37415965538E+02 -0.75323944304E+03  0.80172449406E+03  0.92182612931E+02 0.  0.
         13    1    3    3    0    0  0.23217956651E+03  0.35870731672E+02 -0.56369887130E+03  0.61069671524E+03  0.00000000000E+00 0.  1.
        -13    1    3    3    0    0  0.23740181107E+02  0.15452338664E+01 -0.18954057174E+03  0.19102777882E+03  0.00000000000E+00 0. -1.
         22    1    1    2    0    0 -0.25591974762E+03 -0.37415965538E+02  0.12419251883E+04  0.12685712613E+04  0.00000000000E+00 0.  1.
<mgrwt>
<rscale>  0 0.20117929E+04</rscale>
<asrwt>0</asrwt>
<pdfrwt beam="1">  1        1 0.12166231E+00 0.20117929E+04</pdfrwt>
<pdfrwt beam="2">  1       -1 0.19684473E+00 0.20117929E+04</pdfrwt>
<totfact> 0.33031801E+00</totfact>
</mgrwt>
</event>
<event>
 6    1  0.1773638E-005  0.6465893E+03  0.7818608E-02  0.9813200E-01
          1   -1    0    0  501    0  0.00000000000E+00  0.00000000000E+00  0.14635209404E+04  0.14635209404E+04  0.00000000000E+00 0. -1.
         -1   -1    0    0    0  501 -0.00000000000E+00 -0.00000000000E+00 -0.71416417118E+02  0.71416417118E+02  0.00000000000E+00 0.  1.
         23    2    1    2    0    0 -0.15437037574E+03  0.27176633446E+03  0.83254781070E+03  0.89400766711E+03  0.91797049518E+02 0.  0.
         11    1    3    3    0    0 -0.11648945784E+02  0.10705164923E+03  0.28693058557E+03  0.30647171889E+03  0.00000000000E+00 0. -1.
        -11    1    3    3    0    0 -0.14272142996E+03  0.16471468523E+03  0.54561722512E+03  0.58753594822E+03  0.00000000000E+00 0.  1.
         22    1    1    2    0    0  0.15437037574E+03 -0.27176633446E+03  0.55955671260E+03  0.64092969042E+03  0.00000000000E+00 0.  1.
<mgrwt>
<rscale>  0 0.64658927E+03</rscale>
<asrwt>0</asrwt>
<pdfrwt beam="1">  1        1 0.22515705E+00 0.64658927E+03</pdfrwt>
<pdfrwt beam="2">  1       -1 0.10987142E-01 0.64658927E+03</pdfrwt>
<totfact> 0.38562608E+02</totfact>
</mgrwt>
</event>
<event>
 6    1  0.1773638E-005  0.1187286E+04  0.7818608E-02  0.9124059E-01
         -2   -1    0    0    0  501 -0.00000000000E+00  0.00000000000E+00  0.18091947882E+03  0.18091947882E+03  0.00000000000E+00 0.  1.
          2   -1    0    0  501    0  0.00000000000E+00 -0.00000000000E+00 -0.19478931426E+04  0.19478931426E+04  0.00000000000E+00 0. -1.
         23    2    1    2    0    0 -0.19312611468E+03  0.52937631540E+03 -0.57375981387E+03  0.80923076677E+03  0.90095118623E+02 0.  0.
         11    1    3    3    0    0 -0.73995684889E+02  0.31256550404E+03 -0.28969715039E+03  0.43254710107E+03  0.00000000000E+00 0. -1.
        -11    1    3    3    0    0 -0.11913042979E+03  0.21681081136E+03 -0.28406266347E+03  0.37668366570E+03  0.00000000000E+00 0.  1.
         22    1    1    2    0    0  0.19312611468E+03 -0.52937631540E+03 -0.11932138499E+04  0.13195818546E+04  0.00000000000E+00 0. -1.
<mgrwt>
<rscale>  0 0.11872857E+04</rscale>
<asrwt>0</asrwt>
<pdfrwt beam="1">  1        2 0.29967587E+00 0.11872857E+04</pdfrwt>
<pdfrwt beam="2">  1       -2 0.27833766E-01 0.11872857E+04</pdfrwt>
<totfact> 0.83220806E+01</totfact>
</mgrwt>
</event>
<event>
 6    1  0.1773638E-005  0.1762505E+04  0.7818608E-02  0.8726497E-01
         -2   -1    0    0    0  501 -0.00000000000E+00  0.00000000000E+00  0.34182768860E+03  0.34182768860E+03  0.00000000000E+00 0. -1.
          2   -1    0    0  501    0  0.00000000000E+00 -0.00000000000E+00 -0.22719235456E+04  0.22719235456E+04  0.00000000000E+00 0.  1.
         23    2    1    2    0    0 -0.22131427302E+03  0.44531684603E+03  0.10705405957E+03  0.51678512017E+03  0.91209582559E+02 0.  0.
         11    1    3    3    0    0 -0.40408595131E+01  0.58845102222E+02  0.32039414658E+02  0.67123756545E+02  0.00000000000E+00 0. -1.
        -11    1    3    3    0    0 -0.21727341351E+03  0.38647174381E+03  0.75014644909E+02  0.44966136362E+03  0.00000000000E+00 0.  1.
         22    1    1    2    0    0  0.22131427302E+03 -0.44531684603E+03 -0.20371499166E+04  0.20969661140E+04  0.00000000000E+00 0.  1.
<mgrwt>
<rscale>  0 0.17625055E+04</rscale>
<asrwt>0</asrwt>
<pdfrwt beam="1">  1        2 0.34952669E+00 0.17625055E+04</pdfrwt>
<pdfrwt beam="2">  1       -2 0.52588877E-01 0.17625055E+04</pdfrwt>
<totfact> 0.15200817E+01</totfact>
</mgrwt>
</event>
<event>
 6    1  0.1773638E-005  0.1949430E+04  0.7818608E-02  0.8630636E-01
          3   -1    0    0  501    0  0.00000000000E+00  0.00000000000E+00  0.14755540879E+04  0.14755540879E+04  0.00000000000E+00 0. -1.
         -3   -1    0    0    0  501 -0.00000000000E+00 -0.00000000000E+00 -0.64387289162E+03  0.64387289162E+03  0.00000000000E+00 0.  1.
         23    2    1    2    0    0  0.63868374573E+03  0.96794549232E+01  0.12142388988E+04  0.13748727406E+04  0.88816274867E+02 0.  0.
         13    1    3    3    0    0  0.15591902325E+03  0.10791807370E+02  0.22292657910E+03  0.27225624802E+03  0.00000000000E+00 0.  1.
        -13    1    3    3    0    0  0.48276472248E+03 -0.11123524467E+01  0.99131231968E+03  0.11026164926E+04  0.00000000000E+00 0. -1.
         22    1    1    2    0    0 -0.63868374573E+03 -0.96794549232E+01 -0.38255770251E+03  0.74455423889E+03  0.00000000000E+00 0.  1.
<mgrwt>
<rscale>  0 0.19494299E+04</rscale>
<asrwt>0</asrwt>
<pdfrwt beam="1">  1        3 0.22700832E+00 0.19494299E+04</pdfrwt>
<pdfrwt beam="2">  1       -3 0.99057369E-01 0.19494299E+04</pdfrwt>
<totfact> 0.21938111E-01</totfact>
</mgrwt>
</event>
<event>
 6    1  0.1773638E-005  0.1190092E+04  0.7818608E-02  0.9121574E-01
         -1   -1    0    0    0  501 -0.00000000000E+00  0.00000000000E+00  0.58158896419E+03  0.58158896419E+03  0.00000000000E+00 0.  1.
          1   -1    0    0  501    0  0.00000000000E+00 -0.00000000000E+00 -0.60881431274E+03  0.60881431274E+03  0.00000000000E+00 0. -1.
         23    2    1    2    0    0 -0.22165631081E+03 -0.57474010683E+02 -0.55904802124E+03  0.61137811580E+03  0.93881459237E+02 0.  0.
         13    1    3    3    0    0 -0.15791127597E+03  0.52673801867E+01 -0.35146536547E+03  0.38534610352E+03  0.00000000000E+00 0.  1.
        -13    1    3    3    0    0 -0.63745034849E+02 -0.62741390869E+02 -0.20758265577E+03  0.22603201228E+03  0.00000000000E+00 0. -1.
         22    1    1    2    0    0  0.22165631081E+03  0.57474010683E+02  0.53182267270E+03  0.57902516113E+03  0.00000000000E+00 0.  1.
<mgrwt>
<rscale>  0 0.11900919E+04</rscale>
<asrwt>0</asrwt>
<pdfrwt beam="1">  1        1 0.93663741E-01 0.11900919E+04</pdfrwt>
<pdfrwt beam="2">  1       -1 0.89475225E-01 0.11900919E+04</pdfrwt>
<totfact> 0.40659781E+01</totfact>
</mgrwt>
</event>
<event>
 6    1  0.1773638E-005  0.1633771E+04  0.7818608E-02  0.8800065E-01
          2   -1    0    0  501    0  0.00000000000E+00  0.00000000000E+00  0.10217992696E+04  0.10217992696E+04  0.00000000000E+00 0. -1.
         -2   -1    0    0    0  501 -0.00000000000E+00 -0.00000000000E+00 -0.65306582178E+03  0.65306582178E+03  0.00000000000E+00 0.  1.
         23    2    1    2    0    0  0.20404391071E+03 -0.61004376667E+03  0.69703276075E+03  0.95266861282E+03  0.89081432109E+02 0.  0.
         13    1    3    3    0    0  0.30847647488E+02 -0.98068121401E+02  0.67648923888E+02  0.12306628577E+03  0.00000000000E+00 0.  1.
        -13    1    3    3    0    0  0.17319626322E+03 -0.51197564527E+03  0.62938383686E+03  0.82960232705E+03  0.00000000000E+00 0. -1.
         22    1    1    2    0    0 -0.20404391071E+03  0.61004376667E+03 -0.32829931294E+03  0.72219647855E+03  0.00000000000E+00 0.  1.
<mgrwt>
<rscale>  0 0.16337713E+04</rscale>
<asrwt>0</asrwt>
<pdfrwt beam="1">  1        2 0.15719989E+00 0.16337713E+04</pdfrwt>
<pdfrwt beam="2">  1       -2 0.10047166E+00 0.16337713E+04</pdfrwt>
<totfact> 0.19059503E+01</totfact>
</mgrwt>
</event>
<event>
 6    1  0.1773638E-005  0.2566092E+04  0.7818608E-02  0.8379811E-01
          1   -1    0    0  501    0  0.00000000000E+00  0.00000000000E+00  0.25294436594E+04  0.25294436594E+04  0.00000000000E+00 0. -1.
         -1   -1    0    0    0  501 -0.00000000000E+00 -0.00000000000E+00 -0.65081793856E+03  0.65081793856E+03  0.00000000000E+00 0.  1.
         23    2    1    2    0    0 -0.10953615994E+04  0.58580300006E+03  0.55014754248E+03  0.13615157502E+04  0.89892331798E+02 0.  0.
         11    1    3    3    0    0 -0.22855952723E+03  0.14796474940E+03  0.15318477262E+03  0.31240774497E+03  0.00000000000E+00 0.  1.
        -11    1    3    3    0    0 -0.86680207215E+03  0.43783825066E+03  0.39696276986E+03  0.10491080053E+04  0.00000000000E+00 0. -1.
         22    1    1    2    0    0  0.10953615994E+04 -0.58580300006E+03  0.13284781784E+04  0.18187458477E+04  0.00000000000E+00 0. -1.
<mgrwt>
<rscale>  0 0.25660922E+04</rscale>
<asrwt>0</asrwt>
<pdfrwt beam="1">  1        1 0.38914517E+00 0.25660922E+04</pdfrwt>
<pdfrwt beam="2">  1       -1 0.10012584E+00 0.25660922E+04</pdfrwt>
<totfact> 0.10845568E+00</totfact>
</mgrwt>
</event>
<event>
 6    1  0.1773638E-005  0.4171455E+04  0.7818608E-02  0.7970824E-01
         -1   -1    0    0    0  501 -0.00000000000E+00  0.00000000000E+00  0.19873079289E+04  0.19873079289E+04  0.00000000000E+00 0.  1.
          1   -1    0    0  501    0  0.00000000000E+00 -0.00000000000E+00 -0.21890210656E+04  0.21890210656E+04  0.00000000000E+00 0. -1.
         23    2    1    2    0    0 -0.76236847799E+03 -0.17391200423E+04  0.76055369342E+03  0.20475496094E+04  0.90957488223E+02 0.  0.
         11    1    3    3    0    0 -0.49167727686E+03 -0.11472591240E+04  0.45447845596E+03  0.13283451017E+04  0.00000000000E+00 0.  1.
        -11    1    3    3    0    0 -0.27069120113E+03 -0.59186091834E+03  0.30607523746E+03  0.71920450778E+03  0.00000000000E+00 0. -1.
         22    1    1    2    0    0  0.76236847799E+03  0.17391200423E+04 -0.96226683018E+03  0.21287793851E+04  0.00000000000E+00 0. -1.
<mgrwt>
<rscale>  0 0.41714549E+04</rscale>
<asrwt>0</asrwt>
<pdfrwt beam="1">  1        1 0.33677247E+00 0.41714549E+04</pdfrwt>
<pdfrwt beam="2">  1       -1 0.30573968E+00 0.41714549E+04</pdfrwt>
<totfact> 0.51847664E-02</totfact>
</mgrwt>
</event>
<event>
 6    1  0.1773638E-005  0.1579131E+04  0.7818608E-02  0.8833472E-01
         -1   -1    0    0    0  501 -0.00000000000E+00  0.00000000000E+00  0.51413519563E+03  0.51413519563E+03  0.00000000000E+00 0.  1.
          1   -1    0    0  501    0  0.00000000000E+00 -0.00000000000E+00 -0.12125478720E+04  0.12125478720E+04  0.00000000000E+00 0. -1.
         23    2    1    2    0    0  0.71242681267E+03  0.66034982168E+02 -0.70874835178E+03  0.10111277529E+04  0.90235936386E+02 0.  0.
         11    1    3    3    0    0  0.12384199904E+03  0.16547869548E+01 -0.17202892019E+03  0.21197530146E+03  0.00000000000E+00 0.  1.
        -11    1    3    3    0    0  0.58858481363E+03  0.64380195213E+02 -0.53671943159E+03  0.79915245142E+03  0.00000000000E+00 0. -1.
         22    1    1    2    0    0 -0.71242681267E+03 -0.66034982168E+02  0.10335675412E+02  0.71555531475E+03  0.00000000000E+00 0.  1.
<mgrwt>
<rscale>  0 0.15791308E+04</rscale>
<asrwt>0</asrwt>
<pdfrwt beam="1">  1        1 0.18654583E+00 0.15791308E+04</pdfrwt>
<pdfrwt beam="2">  1       -1 0.79097722E-01 0.15791308E+04</pdfrwt>
<totfact> 0.16071245E+01</totfact>
</mgrwt>
</event>
<event>
 6    1  0.1773638E-005  0.3184578E+04  0.7818608E-02  0.8192902E-01
          1   -1    0    0  501    0  0.00000000000E+00  0.00000000000E+00  0.24055938391E+04  0.24055938391E+04  0.00000000000E+00 0. -1.
         -1   -1    0    0    0  501 -0.00000000000E+00 -0.00000000000E+00 -0.10539536928E+04  0.10539536928E+04  0.00000000000E+00 0.  1.
         23    2    1    2    0    0  0.10425870898E+04  0.23832893990E+03 -0.60313367009E+03  0.12313354243E+04  0.92887995731E+02 0.  0.
         11    1    3    3    0    0  0.20017975546E+03  0.37084157229E+02 -0.75338887093E+02  0.21707859665E+03  0.00000000000E+00 0. -1.
        -11    1    3    3    0    0  0.84240733434E+03  0.20124478267E+03 -0.52779478300E+03  0.10142568277E+04  0.00000000000E+00 0.  1.
         22    1    1    2    0    0 -0.10425870898E+04 -0.23832893990E+03  0.19547738163E+04  0.22282121076E+04  0.00000000000E+00 0. -1.
<mgrwt>
<rscale>  0 0.31845782E+04</rscale>
<asrwt>0</asrwt>
<pdfrwt beam="1">  1        1 0.37009136E+00 0.31845782E+04</pdfrwt>
<pdfrwt beam="2">  1       -1 0.16214672E+00 0.31845782E+04</pdfrwt>
<totfact> 0.37128539E-01</totfact>
</mgrwt>
</event>
<event>
 6    1  0.1773638E-005  0.2388219E+04  0.7818608E-02  0.8443927E-01
         -1   -1    0    0    0  501 -0.00000000000E+00  0.00000000000E+00  0.11789460164E+04  0.11789460164E+04  0.00000000000E+00 0.  1.
          1   -1    0    0  501    0  0.00000000000E+00 -0.00000000000E+00 -0.12094683969E+04  0.12094683969E+04  0.00000000000E+00 0. -1.
         23    2    1    2    0    0  0.92215495591E+03  0.15110896407E+03  0.72538266985E+03  0.11865008861E+04  0.91655077999E+02 0.  0.
         13    1    3    3    0    0  0.61085241908E+03  0.14225500798E+03  0.47023361816E+03  0.78389847610E+03  0.00000000000E+00 0.  1.
        -13    1    3    3    0    0  0.31130253683E+03  0.88539560897E+01  0.25514905169E+03  0.40260241002E+03  0.00000000000E+00 0. -1.
         22    1    1    2    0    0 -0.92215495591E+03 -0.15110896407E+03 -0.75590505038E+03  0.12019135272E+04  0.00000000000E+00 0. -1.
<mgrwt>
<rscale>  0 0.23882194E+04</rscale>
<asrwt>0</asrwt>
<pdfrwt beam="1">  1        1 0.18607206E+00 0.23882194E+04</pdfrwt>
<pdfrwt beam="2">  1       -1 0.18137631E+00 0.23882194E+04</pdfrwt>
<totfact> 0.19192015E+00</totfact>
</mgrwt>
</event>
<event>
 6    1  0.1773638E-005  0.2873636E+04  0.7818608E-02  0.8280765E-01
         -2   -1    0    0    0  501 -0.00000000000E+00  0.00000000000E+00  0.15190970605E+04  0.15190970605E+04  0.00000000000E+00 0.  1.
          2   -1    0    0  501    0  0.00000000000E+00 -0.00000000000E+00 -0.13589955457E+04  0.13589955457E+04  0.00000000000E+00 0. -1.
         23    2    1    2    0    0 -0.92393750768E+03 -0.32570631799E+03  0.11307357713E+04  0.14990074081E+04  0.93352564324E+02 0.  0.
         13    1    3    3    0    0 -0.33528598584E+03 -0.77989400929E+02  0.36088989877E+03  0.49873896779E+03  0.00000000000E+00 0.  1.
        -13    1    3    3    0    0 -0.58865152183E+03 -0.24771691706E+03  0.76984587252E+03  0.10002684403E+04  0.00000000000E+00 0. -1.
         22    1    1    2    0    0  0.92393750768E+03  0.32570631799E+03 -0.97063425652E+03  0.13790851981E+04  0.00000000000E+00 0. -1.
<mgrwt>
<rscale>  0 0.28736361E+04</rscale>
<asrwt>0</asrwt>
<pdfrwt beam="1">  1        2 0.20907624E+00 0.28736361E+04</pdfrwt>
<pdfrwt beam="2">  1       -2 0.23370724E+00 0.28736361E+04</pdfrwt>
<totfact> 0.10711469E+00</totfact>
</mgrwt>
</event>
<event>
 6    1  0.1773638E-005  0.6051184E+03  0.7818608E-02  0.9894844E-01
          2   -1    0    0  501    0  0.00000000000E+00  0.00000000000E+00  0.75316346271E+03  0.75316346271E+03  0.00000000000E+00 0.  1.
         -2   -1    0    0    0  501 -0.00000000000E+00 -0.00000000000E+00 -0.12154343287E+03  0.12154343287E+03  0.00000000000E+00 0. -1.
         23    2    1    2    0    0  0.11307946573E+03 -0.23970867812E+03  0.51330327234E+03  0.58445515823E+03  0.88658708796E+02 0.  0.
         13    1    3    3    0    0  0.18685577933E+01 -0.95625475671E+02  0.20954876501E+03  0.23034410786E+03  0.00000000000E+00 0.  1.
        -13    1    3    3    0    0  0.11121090794E+03 -0.14408320245E+03  0.30375450733E+03  0.35411105037E+03  0.00000000000E+00 0. -1.
         22    1    1    2    0    0 -0.11307946573E+03  0.23970867812E+03  0.11831675749E+03  0.29025173736E+03  0.00000000000E+00 0. -1.
<mgrwt>
<rscale>  0 0.60511841E+03</rscale>
<asrwt>0</asrwt>
<pdfrwt beam="1">  1        2 0.11587130E+00 0.60511841E+03</pdfrwt>
<pdfrwt beam="2">  1       -2 0.18698990E-01 0.60511841E+03</pdfrwt>
<totfact> 0.89979760E+02</totfact>
</mgrwt>
</event>
<event>
 6    1  0.2111087E-005  0.2349287E+04  0.7818608E-02  0.8458738E-01
          1   -1    0    0  501    0  0.00000000000E+00  0.00000000000E+00  0.20714615078E+04  0.20714615078E+04  0.00000000000E+00 0. -1.
         -1   -1    0    0    0  501 -0.00000000000E+00 -0.00000000000E+00 -0.66609338698E+03  0.66609338698E+03  0.00000000000E+00 0.  1.
         23    2    1    2    0    0  0.11337729060E+04  0.25789988820E+03  0.52398837546E+03  0.12785197306E+04  0.89975158235E+02 0.  0.
         13    1    3    3    0    0  0.59929815280E+03  0.10890220446E+03  0.23456236182E+03  0.65271545690E+03  0.00000000000E+00 0. -1.
        -13    1    3    3    0    0  0.53447475323E+03  0.14899768374E+03  0.28942601364E+03  0.62580427370E+03  0.00000000000E+00 0.  1.
         22    1    1    2    0    0 -0.11337729060E+04 -0.25789988820E+03  0.88137974534E+03  0.14590351642E+04  0.00000000000E+00 0. -1.
<mgrwt>
<rscale>  0 0.23492865E+04</rscale>
<asrwt>0</asrwt>
<pdfrwt beam="1">  1        1 0.31868638E+00 0.23492865E+04</pdfrwt>
<pdfrwt beam="2">  1       -1 0.10247591E+00 0.23492865E+04</pdfrwt>
<totfact> 0.21603509E+00</totfact>
</mgrwt>
</event>
<event>
 6    1  0.1773638E-005  0.1006305E+04  0.7818608E-02  0.9301657E-01
          2   -1    0    0  501    0  0.00000000000E+00  0.00000000000E+00  0.72827091514E+03  0.72827091514E+03  0.00000000000E+00 0.  1.
         -2   -1    0    0    0  501 -0.00000000000E+00 -0.00000000000E+00 -0.34762114081E+03  0.34762114081E+03  0.00000000000E+00 0. -1.
         23    2    1    2    0    0 -0.11018441890E+03  0.26302360636E+03 -0.24611200869E+03  0.38730483828E+03  0.90066049455E+02 0.  0.
         11    1    3    3    0    0 -0.82482507873E+02  0.25449852588E+03 -0.20519097834E+03  0.33715901496E+03  0.00000000000E+00 0. -1.
        -11    1    3    3    0    0 -0.27701911024E+02  0.85250804891E+01 -0.40921030355E+02  0.50145823326E+02  0.00000000000E+00 0.  1.
         22    1    1    2    0    0  0.11018441890E+03 -0.26302360636E+03  0.62676178303E+03  0.68858721767E+03  0.00000000000E+00 0.  1.
<mgrwt>
<rscale>  0 0.10063049E+04</rscale>
<asrwt>0</asrwt>
<pdfrwt beam="1">  1        2 0.11204168E+00 0.10063049E+04</pdfrwt>
<pdfrwt beam="2">  1       -2 0.53480176E-01 0.10063049E+04</pdfrwt>
<totfact> 0.12813940E+02</totfact>
</mgrwt>
</event>
<event>
 6    1  0.1773638E-005  0.2464633E+04  0.7818608E-02  0.8415694E-01
          2   -1    0    0  501    0  0.00000000000E+00  0.00000000000E+00  0.52753287085E+03  0.52753287085E+03  0.00000000000E+00 0. -1.
         -2   -1    0    0    0  501 -0.00000000000E+00 -0.00000000000E+00 -0.28786917987E+04  0.28786917987E+04  0.00000000000E+00 0.  1.
         23    2    1    2    0    0 -0.92787970022E+03 -0.11694386338E+03 -0.72425281929E+02  0.94304306149E+03  0.97201795684E+02 0.  0.
         13    1    3    3    0    0 -0.28544629124E+03 -0.78023224235E+02 -0.55843353812E+01  0.29597025781E+03  0.00000000000E+00 0. -1.
        -13    1    3    3    0    0 -0.64243340898E+03 -0.38920639149E+02 -0.66840946547E+02  0.64707280368E+03  0.00000000000E+00 0.  1.
         22    1    1    2    0    0  0.92787970022E+03  0.11694386338E+03 -0.22787336459E+04  0.24631816080E+04  0.00000000000E+00 0.  1.
<mgrwt>
<rscale>  0 0.24646335E+04</rscale>
<asrwt>0</asrwt>
<pdfrwt beam="1">  1        2 0.81158903E-01 0.24646335E+04</pdfrwt>
<pdfrwt beam="2">  1       -2 0.44287566E+00 0.24646335E+04</pdfrwt>
<totfact> 0.20004073E-01</totfact>
</mgrwt>
</event>
<event>
 6    1  0.1773638E-005  0.3395843E+04  0.7818608E-02  0.8138927E-01
          2   -1    0    0  501    0  0.00000000000E+00  0.00000000000E+00  0.26437543339E+04  0.26437543339E+04  0.00000000000E+00 0. -1.
         -2   -1    0    0    0  501 -0.00000000000E+00 -0.00000000000E+00 -0.10904710410E+04  0.10904710410E+04  0.00000000000E+00 0.  1.
         23    2    1    2    0    0 -0.73783172168E+03  0.13880762730E+04  0.14792532213E+04  0.21604935551E+04  0.91601964311E+02 0.  0.
         11    1    3    3    0    0 -0.52356246002E+03  0.10166640434E+04  0.10227274153E+04  0.15341756069E+04  0.00000000000E+00 0. -1.
        -11    1    3    3    0    0 -0.21426926166E+03  0.37141222962E+03  0.45652580595E+03  0.62631794825E+03  0.00000000000E+00 0.  1.
         22    1    1    2    0    0  0.73783172168E+03 -0.13880762730E+04  0.74030071584E+02  0.15737318198E+04  0.00000000000E+00 0.  1.
<mgrwt>
<rscale>  0 0.33958431E+04</rscale>
<asrwt>0</asrwt>
<pdfrwt beam="1">  1        2 0.40673143E+00 0.33958431E+04</pdfrwt>
<pdfrwt beam="2">  1       -2 0.16776478E+00 0.33958431E+04</pdfrwt>
<totfact> 0.52536572E-01</totfact>
</mgrwt>
</event>
<event>
 6    1  0.1773638E-005  0.2009369E+04  0.7818608E-02  0.8602253E-01
          2   -1    0    0  501    0  0.00000000000E+00  0.00000000000E+00  0.68294891603E+03  0.68294891603E+03  0.00000000000E+00 0.  1.
         -2   -1    0    0    0  501 -0.00000000000E+00 -0.00000000000E+00 -0.14779889316E+04  0.14779889316E+04  0.00000000000E+00 0. -1.
         23    2    1    2    0    0  0.30058387773E+03 -0.56380807032E+03  0.43239623318E+03  0.77716403935E+03  0.93740246871E+02 0.  0.
         11    1    3    3    0    0  0.12285736905E+03 -0.14654331504E+03  0.14827982862E+03  0.24198302396E+03  0.00000000000E+00 0.  1.
        -11    1    3    3    0    0  0.17772650868E+03 -0.41726475529E+03  0.28411640456E+03  0.53518101539E+03  0.00000000000E+00 0. -1.
         22    1    1    2    0    0 -0.30058387773E+03  0.56380807032E+03 -0.12274362488E+04  0.13837738083E+04  0.00000000000E+00 0. -1.
<mgrwt>
<rscale>  0 0.20093690E+04</rscale>
<asrwt>0</asrwt>
<pdfrwt beam="1">  1        2 0.10506906E+00 0.20093690E+04</pdfrwt>
<pdfrwt beam="2">  1       -2 0.22738291E+00 0.20093690E+04</pdfrwt>
<totfact> 0.34825834E+00</totfact>
</mgrwt>
</event>
<event>
 6    1  0.1773638E-005  0.1351926E+04  0.7818608E-02  0.8989372E-01
         -2   -1    0    0    0  501 -0.00000000000E+00  0.00000000000E+00  0.36739567608E+03  0.36739567608E+03  0.00000000000E+00 0. -1.
          2   -1    0    0  501    0  0.00000000000E+00 -0.00000000000E+00 -0.12436882986E+04  0.12436882986E+04  0.00000000000E+00 0.  1.
         23    2    1    2    0    0  0.82225253661E+01 -0.36761007147E+03 -0.11117497004E+04  0.11744550589E+04  0.90291275962E+02 0.  0.
         11    1    3    3    0    0 -0.21599394157E+02 -0.59576123733E+02 -0.12239515263E+03  0.13782750718E+03  0.00000000000E+00 0.  1.
        -11    1    3    3    0    0  0.29821919523E+02 -0.30803394773E+03 -0.98935454780E+03  0.10366275518E+04  0.00000000000E+00 0. -1.
         22    1    1    2    0    0 -0.82225253661E+01  0.36761007147E+03  0.23545707787E+03  0.43662891577E+03  0.00000000000E+00 0. -1.
<mgrwt>
<rscale>  0 0.13519256E+04</rscale>
<asrwt>0</asrwt>
<pdfrwt beam="1">  1        2 0.19133666E+00 0.13519256E+04</pdfrwt>
<pdfrwt beam="2">  1       -2 0.56522412E-01 0.13519256E+04</pdfrwt>
<totfact> 0.51163815E+01</totfact>
</mgrwt>
</event>
<event>
 6    1  0.1773638E-005  0.3577265E+04  0.7818608E-02  0.8095719E-01
         -1   -1    0    0    0  501 -0.00000000000E+00  0.00000000000E+00  0.10969906009E+04  0.10969906009E+04  0.00000000000E+00 0.  1.
          1   -1    0    0  501    0  0.00000000000E+00 -0.00000000000E+00 -0.29163472146E+04  0.29163472146E+04  0.00000000000E+00 0. -1.
         23    2    1    2    0    0  0.17213998111E+04 -0.35397248404E+03 -0.54855815598E+03  0.18445956572E+04  0.11446946730E+03 0.  0.
         11    1    3    3    0    0  0.71167175207E+03 -0.19876629825E+03 -0.20561260582E+03  0.76698192135E+03  0.00000000000E+00 0.  1.
        -11    1    3    3    0    0  0.10097280590E+04 -0.15520618579E+03 -0.34294555016E+03  0.10776137359E+04  0.00000000000E+00 0. -1.
         22    1    1    2    0    0 -0.17213998111E+04  0.35397248404E+03 -0.12707984577E+04  0.21687421583E+04  0.00000000000E+00 0.  1.
<mgrwt>
<rscale>  0 0.35772646E+04</rscale>
<asrwt>0</asrwt>
<pdfrwt beam="1">  1        1 0.44866880E+00 0.35772646E+04</pdfrwt>
<pdfrwt beam="2">  1       -1 0.16876778E+00 0.35772646E+04</pdfrwt>
<totfact> 0.13994776E-01</totfact>
</mgrwt>
</event>
<event>
 6    1  0.1773638E-005  0.3948999E+04  0.7818608E-02  0.8014915E-01
         -2   -1    0    0    0  501 -0.00000000000E+00  0.00000000000E+00  0.18535549038E+04  0.18535549038E+04  0.00000000000E+00 0.  1.
          2   -1    0    0  501    0  0.00000000000E+00 -0.00000000000E+00 -0.21033360876E+04  0.21033360876E+04  0.00000000000E+00 0. -1.
         23    2    1    2    0    0  0.98109932848E+03  0.21460363661E+03  0.15771428036E+04  0.18721219708E+04  0.94077826901E+02 0.  0.
         13    1    3    3    0    0  0.40183100424E+03  0.44024855988E+02  0.66412917193E+03  0.77747919646E+03  0.00000000000E+00 0.  1.
        -13    1    3    3    0    0  0.57926832424E+03  0.17057878062E+03  0.91301363165E+03  0.10946427744E+04  0.00000000000E+00 0. -1.
         22    1    1    2    0    0 -0.98109932848E+03 -0.21460363661E+03 -0.18269239874E+04  0.20847690206E+04  0.00000000000E+00 0. -1.
<mgrwt>
<rscale>  0 0.39489993E+04</rscale>
<asrwt>0</asrwt>
<pdfrwt beam="1">  1        2 0.32359016E+00 0.39489993E+04</pdfrwt>
<pdfrwt beam="2">  1       -2 0.28516230E+00 0.39489993E+04</pdfrwt>
<totfact> 0.18152669E-01</totfact>
</mgrwt>
</event>
<event>
 6    1  0.1773638E-005  0.1828545E+04  0.7818608E-02  0.8691265E-01
          1   -1    0    0  501    0  0.00000000000E+00  0.00000000000E+00  0.21256350585E+04  0.21256350585E+04  0.00000000000E+00 0. -1.
         -1   -1    0    0    0  501 -0.00000000000E+00 -0.00000000000E+00 -0.39324445624E+03  0.39324445624E+03  0.00000000000E+00 0.  1.
         23    2    1    2    0    0 -0.77103891558E+03  0.45261553820E+03  0.11164078099E+04  0.14331555004E+04  0.90589489852E+02 0.  0.
         13    1    3    3    0    0 -0.47763147742E+03  0.26096416982E+03  0.74335483286E+03  0.92130914121E+03  0.00000000000E+00 0. -1.
        -13    1    3    3    0    0 -0.29340743816E+03  0.19165136839E+03  0.37305297704E+03  0.51184635922E+03  0.00000000000E+00 0.  1.
         22    1    1    2    0    0  0.77103891558E+03 -0.45261553820E+03  0.61598279240E+03  0.10857240143E+04  0.00000000000E+00 0.  1.
<mgrwt>
<rscale>  0 0.18285450E+04</rscale>
<asrwt>0</asrwt>
<pdfrwt beam="1">  1        1 0.32702077E+00 0.18285450E+04</pdfrwt>
<pdfrwt beam="2">  1       -1 0.60499148E-01 0.18285450E+04</pdfrwt>
<totfact> 0.63861643E+00</totfact>
</mgrwt>
</event>
<event>
 6    1  0.1773638E-005  0.1283042E+04  0.7818608E-02  0.9043123E-01
         -1   -1    0    0    0  501 -0.00000000000E+00  0.00000000000E+00  0.67814955886E+03  0.67814955886E+03  0.00000000000E+00 0.  1.
          1   -1    0    0  501    0  0.00000000000E+00 -0.00000000000E+00 -0.60687037072E+03  0.60687037072E+03  0.00000000000E+00 0. -1.
         23    2    1    2    0    0 -0.31857762227E+03 -0.18333076136E+03  0.55840988540E+03  0.67477556403E+03  0.91643833495E+02 0.  0.
         11    1    3    3    0    0 -0.13726201296E+03 -0.55981210517E+02  0.15469485547E+03  0.21425511533E+03  0.00000000000E+00 0. -1.
        -11    1    3    3    0    0 -0.18131560931E+03 -0.12734955084E+03  0.40371502993E+03  0.46052044870E+03  0.00000000000E+00 0.  1.
         22    1    1    2    0    0  0.31857762227E+03  0.18333076136E+03 -0.48713069726E+03  0.61024436555E+03  0.00000000000E+00 0. -1.
<mgrwt>
<rscale>  0 0.12830415E+04</rscale>
<asrwt>0</asrwt>
<pdfrwt beam="1">  1        1 0.93364673E-01 0.12830415E+04</pdfrwt>
<pdfrwt beam="2">  1       -1 0.10433070E+00 0.12830415E+04</pdfrwt>
<totfact> 0.28652720E+01</totfact>
</mgrwt>
</event>
<event>
 6    1  0.1773638E-005  0.3801846E+03  0.7818608E-02  0.1050866E+00
          2   -1    0    0  501    0  0.00000000000E+00  0.00000000000E+00  0.17081810609E+04  0.17081810609E+04  0.00000000000E+00 0. -1.
         -2   -1    0    0    0  501 -0.00000000000E+00 -0.00000000000E+00 -0.21154131736E+02  0.21154131736E+02  0.00000000000E+00 0.  1.
         23    2    1    2    0    0  0.15347962262E+03 -0.16730273124E+02  0.13103061529E+04  0.13222056802E+04  0.86543341227E+02 0.  0.
         11    1    3    3    0    0  0.41486861401E+02  0.32416671009E+02  0.30831716686E+03  0.31278023532E+03  0.00000000000E+00 0.  1.
        -11    1    3    3    0    0  0.11199276122E+03 -0.49146944133E+02  0.10019889861E+04  0.10094254449E+04  0.00000000000E+00 0. -1.
         22    1    1    2    0    0 -0.15347962262E+03  0.16730273124E+02  0.37672077622E+03  0.40712951236E+03  0.00000000000E+00 0.  1.
<mgrwt>
<rscale>  0 0.38018462E+03</rscale>
<asrwt>0</asrwt>
<pdfrwt beam="1">  1        2 0.26279698E+00 0.38018462E+03</pdfrwt>
<pdfrwt beam="2">  1       -2 0.32544831E-02 0.38018462E+03</pdfrwt>
<totfact> 0.39653465E+03</totfact>
</mgrwt>
</event>
<event>
 6    1  0.1773638E-005  0.1644778E+04  0.7818608E-02  0.8793502E-01
          2   -1    0    0  501    0  0.00000000000E+00  0.00000000000E+00  0.21447923611E+04  0.21447923611E+04  0.00000000000E+00 0. -1.
         -2   -1    0    0    0  501 -0.00000000000E+00 -0.00000000000E+00 -0.31533283885E+03  0.31533283885E+03  0.00000000000E+00 0.  1.
         23    2    1    2    0    0 -0.69987901305E+03  0.11721138160E+03  0.15314773660E+04  0.16904743009E+04  0.93334338507E+02 0.  0.
         13    1    3    3    0    0 -0.42057509254E+03  0.54189439723E+02  0.81066212149E+03  0.91487320382E+03  0.00000000000E+00 0. -1.
        -13    1    3    3    0    0 -0.27930392051E+03  0.63021941875E+02  0.72081524448E+03  0.77560109711E+03  0.00000000000E+00 0.  1.
         22    1    1    2    0    0  0.69987901305E+03 -0.11721138160E+03  0.29798215626E+03  0.76965089900E+03  0.00000000000E+00 0.  1.
<mgrwt>
<rscale>  0 0.16447778E+04</rscale>
<asrwt>0</asrwt>
<pdfrwt beam="1">  1        2 0.32996805E+00 0.16447778E+04</pdfrwt>
<pdfrwt beam="2">  1       -2 0.48512746E-01 0.16447778E+04</pdfrwt>
<totfact> 0.21340043E+01</totfact>
</mgrwt>
</event>
<event>
 6    1  0.1773638E-005  0.2890312E+04  0.7818608E-02  0.8275766E-01
          1   -1    0    0  501    0  0.00000000000E+00  0.00000000000E+00  0.19190581247E+04  0.19190581247E+04  0.00000000000E+00 0. -1.
         -1   -1    0    0    0  501 -0.00000000000E+00 -0.00000000000E+00 -0.10882815927E+04  0.10882815927E+04  0.00000000000E+00 0.  1.
         23    2    1    2    0    0 -0.77745066661E+03 -0.25347583399E+03 -0.82216216720E+03  0.11631906235E+04  0.91554682503E+02 0.  0.
         13    1    3    3    0    0 -0.56409371960E+03 -0.19926267947E+03 -0.54533096303E+03  0.80950182159E+03  0.00000000000E+00 0. -1.
        -13    1    3    3    0    0 -0.21335694701E+03 -0.54213154520E+02 -0.27683120417E+03  0.35368880186E+03  0.00000000000E+00 0.  1.
         22    1    1    2    0    0  0.77745066661E+03  0.25347583399E+03  0.16529386992E+04  0.18441490939E+04  0.00000000000E+00 0. -1.
<mgrwt>
<rscale>  0 0.28903118E+04</rscale>
<asrwt>0</asrwt>
<pdfrwt beam="1">  1        1 0.29523971E+00 0.28903118E+04</pdfrwt>
<pdfrwt beam="2">  1       -1 0.16742794E+00 0.28903118E+04</pdfrwt>
<totfact> 0.74682962E-01</totfact>
</mgrwt>
</event>
<event>
 6    1  0.1773638E-005  0.4421160E+04  0.7818608E-02  0.7924587E-01
          2   -1    0    0  501    0  0.00000000000E+00  0.00000000000E+00  0.22222708906E+04  0.22222708906E+04  0.00000000000E+00 0.  1.
         -2   -1    0    0    0  501 -0.00000000000E+00 -0.00000000000E+00 -0.21989505914E+04  0.21989505914E+04  0.00000000000E+00 0. -1.
         23    2    1    2    0    0 -0.10592083558E+04  0.19061199894E+04  0.36832129196E+03  0.22134530521E+04  0.92185058337E+02 0.  0.
         11    1    3    3    0    0 -0.79683326768E+03  0.13920340501E+04  0.23503717015E+03  0.16210936199E+04  0.00000000000E+00 0. -1.
        -11    1    3    3    0    0 -0.26237508808E+03  0.51408593933E+03  0.13328412181E+03  0.59235943226E+03  0.00000000000E+00 0.  1.
         22    1    1    2    0    0  0.10592083558E+04 -0.19061199894E+04 -0.34500099273E+03  0.22077684299E+04  0.00000000000E+00 0. -1.
<mgrwt>
<rscale>  0 0.44211600E+04</rscale>
<asrwt>0</asrwt>
<pdfrwt beam="1">  1        2 0.34188783E+00 0.44211600E+04</pdfrwt>
<pdfrwt beam="2">  1       -2 0.33830009E+00 0.44211600E+04</pdfrwt>
<totfact> 0.70489718E-02</totfact>
</mgrwt>
</event>
<event>
 6    1  0.1773638E-005  0.1253268E+04  0.7818608E-02  0.9067467E-01
          2   -1    0    0  501    0  0.00000000000E+00  0.00000000000E+00  0.14939688543E+04  0.14939688543E+04  0.00000000000E+00 0. -1.
         -2   -1    0    0    0  501 -0.00000000000E+00 -0.00000000000E+00 -0.26283711774E+03  0.26283711774E+03  0.00000000000E+00 0.  1.
         23    2    1    2    0    0  0.49414629458E+03  0.23555808615E+03  0.10368134390E+04  0.11759206364E+04  0.90216758303E+02 0.  0.
         11    1    3    3    0    0  0.86116400114E+02  0.46183510362E+02  0.12047359260E+03  0.15512200847E+03  0.00000000000E+00 0. -1.
        -11    1    3    3    0    0  0.40802989446E+03  0.18937457579E+03  0.91633984638E+03  0.10207986279E+04  0.00000000000E+00 0.  1.
         22    1    1    2    0    0 -0.49414629458E+03 -0.23555808615E+03  0.19431829760E+03  0.58088533565E+03  0.00000000000E+00 0.  1.
<mgrwt>
<rscale>  0 0.12532685E+04</rscale>
<asrwt>0</asrwt>
<pdfrwt beam="1">  1        2 0.22984136E+00 0.12532685E+04</pdfrwt>
<pdfrwt beam="2">  1       -2 0.40436480E-01 0.12532685E+04</pdfrwt>
<totfact> 0.72799677E+01</totfact>
</mgrwt>
</event>
<event>
 6    1  0.1773638E-005  0.6107753E+04  0.7818608E-02  0.7677183E-01
         -2   -1    0    0    0  501 -0.00000000000E+00  0.00000000000E+00  0.22024297393E+04  0.22024297393E+04  0.00000000000E+00 0.  1.
          2   -1    0    0  501    0  0.00000000000E+00 -0.00000000000E+00 -0.42344878983E+04  0.42344878983E+04  0.00000000000E+00 0. -1.
         23    2    1    2    0    0 -0.63835324376E+03  0.29303317756E+04 -0.41293362768E+03  0.30287064607E+04  0.90606102194E+02 0.  0.
         11    1    3    3    0    0 -0.66434882271E+02  0.28311640578E+03 -0.13511690833E+02  0.29112035070E+03  0.00000000000E+00 0.  1.
        -11    1    3    3    0    0 -0.57191836149E+03  0.26472153698E+04 -0.39942193685E+03  0.27375861100E+04  0.00000000000E+00 0. -1.
         22    1    1    2    0    0  0.63835324376E+03 -0.29303317756E+04 -0.16191245313E+04  0.34082111769E+04  0.00000000000E+00 0.  1.
<mgrwt>
<rscale>  0 0.61077531E+04</rscale>
<asrwt>0</asrwt>
<pdfrwt beam="1">  1        2 0.65145968E+00 0.61077531E+04</pdfrwt>
<pdfrwt beam="2">  1       -2 0.33883534E+00 0.61077531E+04</pdfrwt>
<totfact> 0.26269500E-03</totfact>
</mgrwt>
</event>
<event>
 6    1  0.1773638E-005  0.2280060E+04  0.7818608E-02  0.8485825E-01
         -2   -1    0    0    0  501 -0.00000000000E+00  0.00000000000E+00  0.68071522651E+03  0.68071522651E+03  0.00000000000E+00 0.  1.
          2   -1    0    0  501    0  0.00000000000E+00 -0.00000000000E+00 -0.19092695143E+04  0.19092695143E+04  0.00000000000E+00 0. -1.
         23    2    1    2    0    0  0.49310727742E+03  0.59865625708E+03  0.33092084133E+03  0.84828821744E+03  0.92413177879E+02 0.  0.
         13    1    3    3    0    0  0.30408668187E+03  0.42660702762E+03  0.19677009255E+03  0.55962553143E+03  0.00000000000E+00 0. -1.
        -13    1    3    3    0    0  0.18902059555E+03  0.17204922946E+03  0.13415074878E+03  0.28866268601E+03  0.00000000000E+00 0.  1.
         22    1    1    2    0    0 -0.49310727742E+03 -0.59865625708E+03 -0.15594751291E+04  0.17416965234E+04  0.00000000000E+00 0. -1.
<mgrwt>
<rscale>  0 0.22800604E+04</rscale>
<asrwt>0</asrwt>
<pdfrwt beam="1">  1        2 0.29373378E+00 0.22800604E+04</pdfrwt>
<pdfrwt beam="2">  1       -2 0.10472542E+00 0.22800604E+04</pdfrwt>
<totfact> 0.50405774E+00</totfact>
</mgrwt>
</event>
<event>
 6    1  0.1773638E-005  0.1982855E+04  0.7818608E-02  0.8614679E-01
          2   -1    0    0  501    0  0.00000000000E+00  0.00000000000E+00  0.28240813073E+04  0.28240813073E+04  0.00000000000E+00 0. -1.
         -2   -1    0    0    0  501 -0.00000000000E+00 -0.00000000000E+00 -0.34805231270E+03  0.34805231270E+03  0.00000000000E+00 0.  1.
         23    2    1    2    0    0  0.76534480930E+03  0.37435326155E+03  0.20449671241E+04  0.22172999289E+04  0.92926822338E+02 0.  0.
         11    1    3    3    0    0  0.30149700598E+03  0.19113781158E+03  0.91490439838E+03  0.98208154743E+03  0.00000000000E+00 0. -1.
        -11    1    3    3    0    0  0.46384780332E+03  0.18321544996E+03  0.11300627257E+04  0.12352183814E+04  0.00000000000E+00 0.  1.
         22    1    1    2    0    0 -0.76534480930E+03 -0.37435326155E+03  0.43106187053E+03  0.95483369116E+03  0.00000000000E+00 0.  1.
<mgrwt>
<rscale>  0 0.19828545E+04</rscale>
<asrwt>0</asrwt>
<pdfrwt beam="1">  1        2 0.43447403E+00 0.19828545E+04</pdfrwt>
<pdfrwt beam="2">  1       -2 0.53546511E-01 0.19828545E+04</pdfrwt>
<totfact> 0.68485196E+00</totfact>
</mgrwt>
</event>
<event>
 6    1  0.1773638E-005  0.1257520E+04  0.7818608E-02  0.9063947E-01
          1   -1    0    0  501    0  0.00000000000E+00  0.00000000000E+00  0.20762704511E+04  0.20762704511E+04  0.00000000000E+00 0. -1.
         -1   -1    0    0    0  501 -0.00000000000E+00 -0.00000000000E+00 -0.19040842310E+03  0.19040842310E+03  0.00000000000E+00 0.  1.
         23    2    1    2    0    0  0.41882067736E+03  0.40941458499E+03  0.55191457864E+03  0.80981688354E+03  0.90347222232E+02 0.  0.
         13    1    3    3    0    0  0.26217650071E+03  0.19596989800E+03  0.32218462578E+03  0.45928602367E+03  0.00000000000E+00 0. -1.
        -13    1    3    3    0    0  0.15664417665E+03  0.21344468699E+03  0.22972995286E+03  0.35053085988E+03  0.00000000000E+00 0.  1.
         22    1    1    2    0    0 -0.41882067736E+03 -0.40941458499E+03  0.13339474494E+04  0.14568619907E+04  0.00000000000E+00 0. -1.
<mgrwt>
<rscale>  0 0.12575204E+04</rscale>
<asrwt>0</asrwt>
<pdfrwt beam="1">  1        1 0.31942621E+00 0.12575204E+04</pdfrwt>
<pdfrwt beam="2">  1       -1 0.29293605E-01 0.12575204E+04</pdfrwt>
<totfact> 0.27789823E+01</totfact>
</mgrwt>
</event>
<event>
 6    1  0.1773638E-005  0.2727955E+04  0.7818608E-02  0.8325991E-01
         -2   -1    0    0    0  501 -0.00000000000E+00  0.00000000000E+00  0.69958120314E+03  0.69958120314E+03  0.00000000000E+00 0.  1.
          2   -1    0    0  501    0  0.00000000000E+00 -0.00000000000E+00 -0.26593554343E+04  0.26593554343E+04  0.00000000000E+00 0. -1.
         23    2    1    2    0    0 -0.39818651785E+03  0.12881775243E+04 -0.73983982502E+03  0.15406424389E+04  0.90897308636E+02 0.  0.
         11    1    3    3    0    0 -0.27217873059E+03  0.84524187685E+03 -0.53438041328E+03  0.10363771118E+04  0.00000000000E+00 0. -1.
        -11    1    3    3    0    0 -0.12600778725E+03  0.44293564747E+03 -0.20545941174E+03  0.50426532710E+03  0.00000000000E+00 0.  1.
         22    1    1    2    0    0  0.39818651785E+03 -0.12881775243E+04 -0.12199344062E+04  0.18182941986E+04  0.00000000000E+00 0. -1.
<mgrwt>
<rscale>  0 0.27279553E+04</rscale>
<asrwt>0</asrwt>
<pdfrwt beam="1">  1        2 0.40913161E+00 0.27279553E+04</pdfrwt>
<pdfrwt beam="2">  1       -2 0.10762788E+00 0.27279553E+04</pdfrwt>
<totfact> 0.17014126E+00</totfact>
</mgrwt>
</event>
<event>
 6    1  0.1773638E-005  0.2955898E+04  0.7818608E-02  0.8256438E-01
         -2   -1    0    0    0  501 -0.00000000000E+00  0.00000000000E+00  0.76738994348E+03  0.76738994348E+03  0.00000000000E+00 0.  1.
          2   -1    0    0  501    0  0.00000000000E+00 -0.00000000000E+00 -0.28464448936E+04  0.28464448936E+04  0.00000000000E+00 0. -1.
         23    2    1    2    0    0  0.13698558629E+04 -0.54323442063E+03 -0.92769239557E+03  0.17437427396E+04  0.91743338431E+02 0.  0.
         13    1    3    3    0    0  0.39582172763E+03 -0.16621399016E+03 -0.22276053758E+03  0.48365709722E+03  0.00000000000E+00 0.  1.
        -13    1    3    3    0    0  0.97403413531E+03 -0.37702043047E+03 -0.70493185798E+03  0.12600856424E+04  0.00000000000E+00 0. -1.
         22    1    1    2    0    0 -0.13698558629E+04  0.54323442063E+03 -0.11513625545E+04  0.18700920975E+04  0.00000000000E+00 0. -1.
<mgrwt>
<rscale>  0 0.29558980E+04</rscale>
<asrwt>0</asrwt>
<pdfrwt beam="1">  1        2 0.43791459E+00 0.29558980E+04</pdfrwt>
<pdfrwt beam="2">  1       -2 0.11805999E+00 0.29558980E+04</pdfrwt>
<totfact> 0.10287977E+00</totfact>
</mgrwt>
</event>
<event>
 6    1  0.1773638E-005  0.2771993E+04  0.7818608E-02  0.8312016E-01
         -2   -1    0    0    0  501 -0.00000000000E+00  0.00000000000E+00  0.16793175581E+04  0.16793175581E+04  0.00000000000E+00 0.  1.
          2   -1    0    0  501    0  0.00000000000E+00 -0.00000000000E+00 -0.11439092666E+04  0.11439092666E+04  0.00000000000E+00 0. -1.
         23    2    1    2    0    0  0.25538784840E+03 -0.90044314207E+03  0.13070085509E+04  0.16102190895E+04  0.92267865643E+02 0.  0.
         13    1    3    3    0    0  0.10869400711E+03 -0.54271394260E+03  0.74726774353E+03  0.92992574499E+03  0.00000000000E+00 0. -1.
        -13    1    3    3    0    0  0.14669384129E+03 -0.35772919948E+03  0.55974080735E+03  0.68029334455E+03  0.00000000000E+00 0.  1.
         22    1    1    2    0    0 -0.25538784840E+03  0.90044314207E+03 -0.77160025943E+03  0.12130077352E+04  0.00000000000E+00 0. -1.
<mgrwt>
<rscale>  0 0.27719934E+04</rscale>
<asrwt>0</asrwt>
<pdfrwt beam="1">  1        2 0.17598604E+00 0.27719934E+04</pdfrwt>
<pdfrwt beam="2">  1       -2 0.25835655E+00 0.27719934E+04</pdfrwt>
<totfact> 0.10196983E+00</totfact>
</mgrwt>
</event>
<event>
 6    1  0.1773638E-005  0.2590121E+04  0.7818608E-02  0.8371565E-01
          2   -1    0    0  501    0  0.00000000000E+00  0.00000000000E+00  0.25559392142E+04  0.25559392142E+04  0.00000000000E+00 0.  1.
         -2   -1    0    0    0  501 -0.00000000000E+00 -0.00000000000E+00 -0.65618993994E+03  0.65618993994E+03  0.00000000000E+00 0. -1.
         23    2    1    2    0    0 -0.39835305219E+03  0.81869271979E+03 -0.18873920733E+03  0.93381243750E+03  0.86256921011E+02 0.  0.
         11    1    3    3    0    0 -0.27457151152E+03  0.46865698422E+03 -0.10542941013E+03  0.55330303119E+03  0.00000000000E+00 0. -1.
        -11    1    3    3    0    0 -0.12378154067E+03  0.35003573556E+03 -0.83309797203E+02  0.38050940631E+03  0.00000000000E+00 0.  1.
         22    1    1    2    0    0  0.39835305219E+03 -0.81869271979E+03  0.20884884816E+04  0.22783167167E+04  0.00000000000E+00 0.  1.
<mgrwt>
<rscale>  0 0.25901209E+04</rscale>
<asrwt>0</asrwt>
<pdfrwt beam="1">  1        2 0.39322141E+00 0.25901209E+04</pdfrwt>
<pdfrwt beam="2">  1       -2 0.10095230E+00 0.25901209E+04</pdfrwt>
<totfact> 0.23085081E+00</totfact>
</mgrwt>
</event>
<event>
 6    1  0.1773638E-005  0.3760262E+03  0.7818608E-02  0.1052412E+00
          1   -1    0    0  501    0  0.00000000000E+00  0.00000000000E+00  0.93326803829E+03  0.93326803829E+03  0.00000000000E+00 0. -1.
         -1   -1    0    0    0  501 -0.00000000000E+00 -0.00000000000E+00 -0.37876503830E+02  0.37876503830E+02  0.00000000000E+00 0.  1.
         23    2    1    2    0    0  0.23297098023E+02  0.86762895689E+02  0.86721331437E+03  0.87699271297E+03  0.94798370969E+02 0.  0.
         11    1    3    3    0    0  0.20837025960E+02  0.10715854019E+03  0.68818739016E+03  0.69679194768E+03  0.00000000000E+00 0. -1.
        -11    1    3    3    0    0  0.24600720631E+01 -0.20395644504E+02  0.17902592421E+03  0.18020076528E+03  0.00000000000E+00 0.  1.
         22    1    1    2    0    0 -0.23297098023E+02 -0.86762895689E+02  0.28178220090E+02  0.94151829149E+02  0.00000000000E+00 0.  1.
<mgrwt>
<rscale>  0 0.37602622E+03</rscale>
<asrwt>0</asrwt>
<pdfrwt beam="1">  1        1 0.14357968E+00 0.37602622E+03</pdfrwt>
<pdfrwt beam="2">  1       -1 0.58271551E-02 0.37602622E+03</pdfrwt>
<totfact> 0.25179936E+03</totfact>
</mgrwt>
</event>
<event>
 6    1  0.1773638E-005  0.2995337E+04  0.7818608E-02  0.8245064E-01
         -1   -1    0    0    0  501 -0.00000000000E+00  0.00000000000E+00  0.12572436556E+04  0.12572436556E+04  0.00000000000E+00 0.  1.
          1   -1    0    0  501    0  0.00000000000E+00 -0.00000000000E+00 -0.17840707446E+04  0.17840707446E+04  0.00000000000E+00 0. -1.
         23    2    1    2    0    0  0.46006240337E+03 -0.66452030918E+03 -0.15421267291E+04  0.17435940853E+04  0.93385380965E+02 0.  0.
         11    1    3    3    0    0  0.38290254220E+03 -0.48827307602E+03 -0.12074237020E+04  0.13575334065E+04  0.00000000000E+00 0. -1.
        -11    1    3    3    0    0  0.77159861174E+02 -0.17624723315E+03 -0.33470302712E+03  0.38606067883E+03  0.00000000000E+00 0.  1.
         22    1    1    2    0    0 -0.46006240337E+03  0.66452030918E+03  0.10152996402E+04  0.12977203149E+04  0.00000000000E+00 0.  1.
<mgrwt>
<rscale>  0 0.29953375E+04</rscale>
<asrwt>0</asrwt>
<pdfrwt beam="1">  1        1 0.27447242E+00 0.29953375E+04</pdfrwt>
<pdfrwt beam="2">  1       -1 0.19342210E+00 0.29953375E+04</pdfrwt>
<totfact> 0.59465496E-01</totfact>
</mgrwt>
</event>
<event>
 6    1  0.1773638E-005  0.1816648E+04  0.7818608E-02  0.8697496E-01
          2   -1    0    0  501    0  0.00000000000E+00  0.00000000000E+00  0.18033433971E+04  0.18033433971E+04  0.00000000000E+00 0. -1.
         -2   -1    0    0    0  501 -0.00000000000E+00 -0.00000000000E+00 -0.45751261280E+03  0.45751261280E+03  0.00000000000E+00 0.  1.
         23    2    1    2    0    0 -0.82030987274E+03 -0.21912487025E+03  0.10680684811E+04  0.13675050748E+04  0.91519688374E+02 0.  0.
         13    1    3    3    0    0 -0.33923638180E+03 -0.10935382624E+03  0.51503169092E+03  0.62633635110E+03  0.00000000000E+00 0. -1.
        -13    1    3    3    0    0 -0.48107349094E+03 -0.10977104402E+03  0.55303679016E+03  0.74116872374E+03  0.00000000000E+00 0.  1.
         22    1    1    2    0    0  0.82030987274E+03  0.21912487025E+03  0.27776230322E+03  0.89335093506E+03  0.00000000000E+00 0.  1.
<mgrwt>
<rscale>  0 0.18166478E+04</rscale>
<asrwt>0</asrwt>
<pdfrwt beam="1">  1        2 0.27743744E+00 0.18166478E+04</pdfrwt>
<pdfrwt beam="2">  1       -2 0.70386557E-01 0.18166478E+04</pdfrwt>
<totfact> 0.14876548E+01</totfact>
</mgrwt>
</event>
<event>
 6    1  0.2441694E-005  0.2349348E+04  0.7818608E-02  0.8458714E-01
         -2   -1    0    0    0  501 -0.00000000000E+00  0.00000000000E+00  0.63652890745E+03  0.63652890745E+03  0.00000000000E+00 0.  1.
          2   -1    0    0  501    0  0.00000000000E+00 -0.00000000000E+00 -0.21677865822E+04  0.21677865822E+04  0.00000000000E+00 0. -1.
         23    2    1    2    0    0  0.77985988004E+02  0.10653974245E+04 -0.18651926806E+03  0.10869119643E+04  0.73720379740E+02 0.  0.
         13    1    3    3    0    0  0.51123259470E+02  0.86421511682E+03 -0.12418195268E+03  0.87458705294E+03  0.00000000000E+00 0.  1.
        -13    1    3    3    0    0  0.26862728534E+02  0.20118230766E+03 -0.62337315378E+02  0.21232491137E+03  0.00000000000E+00 0. -1.
         22    1    1    2    0    0 -0.77985988004E+02 -0.10653974245E+04 -0.13447384067E+04  0.17174035253E+04  0.00000000000E+00 0. -1.
<mgrwt>
<rscale>  0 0.23493478E+04</rscale>
<asrwt>0</asrwt>
<pdfrwt beam="1">  1        2 0.33350562E+00 0.23493478E+04</pdfrwt>
<pdfrwt beam="2">  1       -2 0.97927527E-01 0.23493478E+04</pdfrwt>
<totfact> 0.42187030E+00</totfact>
</mgrwt>
</event>
<event>
 6    1  0.1773638E-005  0.1868509E+04  0.7818608E-02  0.8670692E-01
         -1   -1    0    0    0  501 -0.00000000000E+00  0.00000000000E+00  0.88773625959E+03  0.88773625959E+03  0.00000000000E+00 0.  1.
          1   -1    0    0  501    0  0.00000000000E+00 -0.00000000000E+00 -0.98320986484E+03  0.98320986484E+03  0.00000000000E+00 0. -1.
         23    2    1    2    0    0  0.55525886223E+03 -0.70588945039E+03 -0.29724235633E+03  0.95045552199E+03  0.91762523076E+02 0.  0.
         13    1    3    3    0    0  0.67023561431E+02 -0.14113316674E+03 -0.51715468884E+02  0.16457587388E+03  0.00000000000E+00 0. -1.
        -13    1    3    3    0    0  0.48823530080E+03 -0.56475628365E+03 -0.24552688745E+03  0.78587964812E+03  0.00000000000E+00 0.  1.
         22    1    1    2    0    0 -0.55525886223E+03  0.70588945039E+03  0.20176875108E+03  0.92049060243E+03  0.00000000000E+00 0.  1.
<mgrwt>
<rscale>  0 0.18685085E+04</rscale>
<asrwt>0</asrwt>
<pdfrwt beam="1">  1        1 0.15126305E+00 0.18685085E+04</pdfrwt>
<pdfrwt beam="2">  1       -1 0.13657481E+00 0.18685085E+04</pdfrwt>
<totfact> 0.65429650E+00</totfact>
</mgrwt>
</event>
<event>
 6    1  0.1773638E-005  0.1702696E+04  0.7818608E-02  0.8759828E-01
          1   -1    0    0  501    0  0.00000000000E+00  0.00000000000E+00  0.86030848722E+03  0.86030848722E+03  0.00000000000E+00 0. -1.
         -1   -1    0    0    0  501 -0.00000000000E+00 -0.00000000000E+00 -0.84248060300E+03  0.84248060300E+03  0.00000000000E+00 0.  1.
         23    2    1    2    0    0 -0.57738802487E+03  0.48660490854E+02  0.62875979797E+03  0.86077805830E+03  0.99273397634E+02 0.  0.
         11    1    3    3    0    0 -0.40516174956E+02  0.20572159262E+02  0.83462920502E+02  0.95030696454E+02  0.00000000000E+00 0.  1.
        -11    1    3    3    0    0 -0.53687184991E+03  0.28088331592E+02  0.54529687747E+03  0.76574736185E+03  0.00000000000E+00 0. -1.
         22    1    1    2    0    0  0.57738802487E+03 -0.48660490854E+02 -0.61093191376E+03  0.84201103192E+03  0.00000000000E+00 0.  1.
<mgrwt>
<rscale>  0 0.17026958E+04</rscale>
<asrwt>0</asrwt>
<pdfrwt beam="1">  1        1 0.13235515E+00 0.17026958E+04</pdfrwt>
<pdfrwt beam="2">  1       -1 0.12961240E+00 0.17026958E+04</pdfrwt>
<totfact> 0.95455915E+00</totfact>
</mgrwt>
</event>
<event>
 6    1  0.1773638E-005  0.2556879E+04  0.7818608E-02  0.8382998E-01
         -1   -1    0    0    0  501 -0.00000000000E+00  0.00000000000E+00  0.48486694287E+03  0.48486694287E+03  0.00000000000E+00 0.  1.
          1   -1    0    0  501    0  0.00000000000E+00 -0.00000000000E+00 -0.33708377012E+04  0.33708377012E+04  0.00000000000E+00 0. -1.
         23    2    1    2    0    0 -0.39100008154E+03 -0.42584778331E+03  0.27175600850E+03  0.64549192023E+03  0.92634187092E+02 0.  0.
         11    1    3    3    0    0 -0.92334630348E+02 -0.51897424321E+02  0.64065003313E+02  0.12378752466E+03  0.00000000000E+00 0. -1.
        -11    1    3    3    0    0 -0.29866545119E+03 -0.37395035899E+03  0.20769100519E+03  0.52170439557E+03  0.00000000000E+00 0.  1.
         22    1    1    2    0    0  0.39100008154E+03  0.42584778331E+03 -0.31577267668E+04  0.32102127238E+04  0.00000000000E+00 0. -1.
<mgrwt>
<rscale>  0 0.25568792E+04</rscale>
<asrwt>0</asrwt>
<pdfrwt beam="1">  1        1 0.51859043E+00 0.25568792E+04</pdfrwt>
<pdfrwt beam="2">  1       -1 0.74594912E-01 0.25568792E+04</pdfrwt>
<totfact> 0.50396793E-01</totfact>
</mgrwt>
</event>
<event>
 6    1  0.1773638E-005  0.3356950E+04  0.7818608E-02  0.8148554E-01
          1   -1    0    0  501    0  0.00000000000E+00  0.00000000000E+00  0.14487191315E+04  0.14487191315E+04  0.00000000000E+00 0. -1.
         -1   -1    0    0    0  501 -0.00000000000E+00 -0.00000000000E+00 -0.19446688893E+04  0.19446688893E+04  0.00000000000E+00 0.  1.
         23    2    1    2    0    0  0.13567290506E+04  0.59319428213E+03 -0.10444648762E+04  0.18143180388E+04  0.90828933696E+02 0.  0.
         11    1    3    3    0    0  0.88635189366E+03  0.42680291909E+03 -0.66419944110E+03  0.11869883355E+04  0.00000000000E+00 0.  1.
        -11    1    3    3    0    0  0.47037715691E+03  0.16639136305E+03 -0.38026543507E+03  0.62732970323E+03  0.00000000000E+00 0. -1.
         22    1    1    2    0    0 -0.13567290506E+04 -0.59319428213E+03  0.54851511844E+03  0.15790699820E+04  0.00000000000E+00 0. -1.
<mgrwt>
<rscale>  0 0.33569504E+04</rscale>
<asrwt>0</asrwt>
<pdfrwt beam="1">  1        1 0.22287987E+00 0.33569504E+04</pdfrwt>
<pdfrwt beam="2">  1       -1 0.29917983E+00 0.33569504E+04</pdfrwt>
<totfact> 0.19601550E-01</totfact>
</mgrwt>
</event>
<event>
 6    1  0.1773638E-005  0.1760257E+04  0.7818608E-02  0.8727724E-01
          2   -1    0    0  501    0  0.00000000000E+00  0.00000000000E+00  0.18302007807E+04  0.18302007807E+04  0.00000000000E+00 0. -1.
         -2   -1    0    0    0  501 -0.00000000000E+00 -0.00000000000E+00 -0.42324679326E+03  0.42324679326E+03  0.00000000000E+00 0.  1.
         23    2    1    2    0    0  0.14475885625E+03 -0.59250649352E+03 -0.10272611380E+03  0.62521138735E+03  0.91200619977E+02 0.  0.
         13    1    3    3    0    0  0.28280353838E+02 -0.24617841940E+03 -0.88566788782E+01  0.24795570845E+03  0.00000000000E+00 0. -1.
        -13    1    3    3    0    0  0.11647850241E+03 -0.34632807412E+03 -0.93869434920E+02  0.37725567890E+03  0.00000000000E+00 0.  1.
         22    1    1    2    0    0 -0.14475885625E+03  0.59250649352E+03  0.15096801012E+04  0.16282361866E+04  0.00000000000E+00 0. -1.
<mgrwt>
<rscale>  0 0.17602575E+04</rscale>
<asrwt>0</asrwt>
<pdfrwt beam="1">  1        2 0.28156935E+00 0.17602575E+04</pdfrwt>
<pdfrwt beam="2">  1       -2 0.65114892E-01 0.17602575E+04</pdfrwt>
<totfact> 0.17098216E+01</totfact>
</mgrwt>
</event>
<event>
 6    1  0.1773638E-005  0.2139761E+04  0.7818608E-02  0.8543928E-01
         -2   -1    0    0    0  501 -0.00000000000E+00  0.00000000000E+00  0.92793427271E+03  0.92793427271E+03  0.00000000000E+00 0.  1.
          2   -1    0    0  501    0  0.00000000000E+00 -0.00000000000E+00 -0.12335399249E+04  0.12335399249E+04  0.00000000000E+00 0. -1.
         23    2    1    2    0    0  0.12200832512E+03  0.57060024682E+03  0.75042743361E+03  0.95495998245E+03  0.91304774816E+02 0.  0.
         13    1    3    3    0    0  0.18187515977E+02  0.29588022589E+03  0.39615143312E+03  0.49478465192E+03  0.00000000000E+00 0.  1.
        -13    1    3    3    0    0  0.10382080914E+03  0.27472002092E+03  0.35427600048E+03  0.46017533053E+03  0.00000000000E+00 0. -1.
         22    1    1    2    0    0 -0.12200832512E+03 -0.57060024682E+03 -0.10560330858E+04  0.12065142151E+04  0.00000000000E+00 0. -1.
<mgrwt>
<rscale>  0 0.21397607E+04</rscale>
<asrwt>0</asrwt>
<pdfrwt beam="1">  1        2 0.18977537E+00 0.21397607E+04</pdfrwt>
<pdfrwt beam="2">  1       -2 0.14275912E+00 0.21397607E+04</pdfrwt>
<totfact> 0.56722614E+00</totfact>
</mgrwt>
</event>
<event>
 6    1  0.1773638E-005  0.2083394E+04  0.7818608E-02  0.8568594E-01
         -2   -1    0    0    0  501 -0.00000000000E+00  0.00000000000E+00  0.58180882522E+03  0.58180882522E+03  0.00000000000E+00 0.  1.
          2   -1    0    0  501    0  0.00000000000E+00 -0.00000000000E+00 -0.18651015683E+04  0.18651015683E+04  0.00000000000E+00 0. -1.
         23    2    1    2    0    0  0.47458416493E+03 -0.13320144768E+03  0.43229947838E+03  0.66190915386E+03  0.90929278553E+02 0.  0.
         11    1    3    3    0    0  0.39001845917E+03 -0.91833731904E+02  0.38840270358E+03  0.55803628284E+03  0.00000000000E+00 0.  1.
        -11    1    3    3    0    0  0.84565705753E+02 -0.41367715774E+02  0.43896774798E+02  0.10387287103E+03  0.00000000000E+00 0. -1.
         22    1    1    2    0    0 -0.47458416493E+03  0.13320144768E+03 -0.17155922214E+04  0.17850012396E+04  0.00000000000E+00 0. -1.
<mgrwt>
<rscale>  0 0.20833939E+04</rscale>
<asrwt>0</asrwt>
<pdfrwt beam="1">  1        2 0.28693870E+00 0.20833939E+04</pdfrwt>
<pdfrwt beam="2">  1       -2 0.89509050E-01 0.20833939E+04</pdfrwt>
<totfact> 0.78410637E+00</totfact>
</mgrwt>
</event>
<event>
 6    1  0.1773638E-005  0.1290920E+04  0.7818608E-02  0.9036797E-01
         -2   -1    0    0    0  501 -0.00000000000E+00  0.00000000000E+00  0.14684845208E+03  0.14684845208E+03  0.00000000000E+00 0. -1.
          2   -1    0    0  501    0  0.00000000000E+00 -0.00000000000E+00 -0.28370660048E+04  0.28370660048E+04  0.00000000000E+00 0.  1.
         23    2    1    2    0    0  0.62106967385E+03 -0.16369714440E+03 -0.13717458301E+04  0.15173224965E+04  0.89758794259E+02 0.  0.
         11    1    3    3    0    0  0.51279071654E+03 -0.16952291810E+03 -0.11434049477E+04  0.12645422940E+04  0.00000000000E+00 0.  1.
        -11    1    3    3    0    0  0.10827895732E+03  0.58257737050E+01 -0.22834088240E+03  0.25278020257E+03  0.00000000000E+00 0. -1.
         22    1    1    2    0    0 -0.62106967385E+03  0.16369714440E+03 -0.13184717226E+04  0.14665919603E+04  0.00000000000E+00 0.  1.
<mgrwt>
<rscale>  0 0.12909202E+04</rscale>
<asrwt>0</asrwt>
<pdfrwt beam="1">  1        2 0.43647172E+00 0.12909202E+04</pdfrwt>
<pdfrwt beam="2">  1       -2 0.22592068E-01 0.12909202E+04</pdfrwt>
<totfact> 0.37420419E+01</totfact>
</mgrwt>
</event>
<event>
 6    1  0.1773638E-005  0.1141530E+04  0.7818608E-02  0.9165634E-01
         -2   -1    0    0    0  501 -0.00000000000E+00  0.00000000000E+00  0.16665307043E+03  0.16665307043E+03  0.00000000000E+00 0.  1.
          2   -1    0    0  501    0  0.00000000000E+00 -0.00000000000E+00 -0.19547941507E+04  0.19547941507E+04  0.00000000000E+00 0. -1.
         23    2    1    2    0    0  0.31467204488E+03  0.27747096101E+03 -0.19014362394E+03  0.46929574488E+03  0.89862497172E+02 0.  0.
         11    1    3    3    0    0  0.14276185312E+03  0.10404058132E+03 -0.35291927292E+02  0.18014135949E+03  0.00000000000E+00 0. -1.
        -11    1    3    3    0    0  0.17191019176E+03  0.17343037970E+03 -0.15485169664E+03  0.28915438538E+03  0.00000000000E+00 0.  1.
         22    1    1    2    0    0 -0.31467204488E+03 -0.27747096101E+03 -0.15979974563E+04  0.16521514763E+04  0.00000000000E+00 0. -1.
<mgrwt>
<rscale>  0 0.11415296E+04</rscale>
<asrwt>0</asrwt>
<pdfrwt beam="1">  1        2 0.30073755E+00 0.11415296E+04</pdfrwt>
<pdfrwt beam="2">  1       -2 0.25638935E-01 0.11415296E+04</pdfrwt>
<totfact> 0.96209597E+01</totfact>
</mgrwt>
</event>
<event>
 6    1  0.1773638E-005  0.3045637E+04  0.7818608E-02  0.8230818E-01
          1   -1    0    0  501    0  0.00000000000E+00  0.00000000000E+00  0.17372370500E+04  0.17372370500E+04  0.00000000000E+00 0. -1.
         -1   -1    0    0    0  501 -0.00000000000E+00 -0.00000000000E+00 -0.13348643488E+04  0.13348643488E+04  0.00000000000E+00 0.  1.
         23    2    1    2    0    0  0.87272227988E+03 -0.19178339607E+03  0.14429253141E+04  0.17005421443E+04  0.10670086047E+03 0.  0.
         13    1    3    3    0    0  0.38175098661E+03 -0.11006278941E+03  0.55361433452E+03  0.68142238353E+03  0.00000000000E+00 0. -1.
        -13    1    3    3    0    0  0.49097129326E+03 -0.81720606661E+02  0.88931097954E+03  0.10191197607E+04  0.00000000000E+00 0.  1.
         22    1    1    2    0    0 -0.87272227988E+03  0.19178339607E+03 -0.10405526129E+04  0.13715592546E+04  0.00000000000E+00 0.  1.
<mgrwt>
<rscale>  0 0.30456368E+04</rscale>
<asrwt>0</asrwt>
<pdfrwt beam="1">  1        1 0.26726724E+00 0.30456368E+04</pdfrwt>
<pdfrwt beam="2">  1       -1 0.20536375E+00 0.30456368E+04</pdfrwt>
<totfact> 0.52690910E-01</totfact>
</mgrwt>
</event>
<event>
 6    1  0.1773638E-005  0.3670671E+04  0.7818608E-02  0.8074493E-01
         -2   -1    0    0    0  501 -0.00000000000E+00  0.00000000000E+00  0.11997386598E+04  0.11997386598E+04  0.00000000000E+00 0.  1.
          2   -1    0    0  501    0  0.00000000000E+00 -0.00000000000E+00 -0.28076585000E+04  0.28076585000E+04  0.00000000000E+00 0. -1.
         23    2    1    2    0    0 -0.65451663498E+03  0.17113274349E+04 -0.70380418852E+03  0.19642479420E+04  0.76785591450E+02 0.  0.
         11    1    3    3    0    0 -0.22919182884E+03  0.53264251702E+03 -0.25129846449E+03  0.63197141043E+03  0.00000000000E+00 0. -1.
        -11    1    3    3    0    0 -0.42532480614E+03  0.11786849178E+04 -0.45250572402E+03  0.13322765316E+04  0.00000000000E+00 0.  1.
         22    1    1    2    0    0  0.65451663498E+03 -0.17113274349E+04 -0.90411565168E+03  0.20431492178E+04  0.00000000000E+00 0. -1.
<mgrwt>
<rscale>  0 0.36706710E+04</rscale>
<asrwt>0</asrwt>
<pdfrwt beam="1">  1        2 0.43194746E+00 0.36706710E+04</pdfrwt>
<pdfrwt beam="2">  1       -2 0.18457518E+00 0.36706710E+04</pdfrwt>
<totfact> 0.31258613E-01</totfact>
</mgrwt>
</event>
<event>
 6    1  0.1773638E-005  0.3521814E+04  0.7818608E-02  0.8108640E-01
          2   -1    0    0  501    0  0.00000000000E+00  0.00000000000E+00  0.32352346932E+04  0.32352346932E+04  0.00000000000E+00 0. -1.
         -2   -1    0    0    0  501 -0.00000000000E+00 -0.00000000000E+00 -0.95844455936E+03  0.95844455936E+03  0.00000000000E+00 0.  1.
         23    2    1    2    0    0  0.14534554010E+04  0.72849817847E+03  0.19401059412E+04  0.25333785436E+04  0.10369948601E+03 0.  0.
         11    1    3    3    0    0  0.13088002110E+04  0.65590242577E+03  0.17922753980E+04  0.23141774103E+04  0.00000000000E+00 0. -1.
        -11    1    3    3    0    0  0.14465519004E+03  0.72595752700E+02  0.14783054323E+03  0.21920113327E+03  0.00000000000E+00 0.  1.
         22    1    1    2    0    0 -0.14534554010E+04 -0.72849817847E+03  0.33668419270E+03  0.16603007090E+04  0.00000000000E+00 0. -1.
<mgrwt>
<rscale>  0 0.35218138E+04</rscale>
<asrwt>0</asrwt>
<pdfrwt beam="1">  1        2 0.49772841E+00 0.35218138E+04</pdfrwt>
<pdfrwt beam="2">  1       -2 0.14745301E+00 0.35218138E+04</pdfrwt>
<totfact> 0.31584994E-01</totfact>
</mgrwt>
</event>
<event>
 6    1  0.1794614E-005  0.3502306E+04  0.7818608E-02  0.8113244E-01
          2   -1    0    0  501    0  0.00000000000E+00  0.00000000000E+00  0.16160650001E+04  0.16160650001E+04  0.00000000000E+00 0.  1.
         -2   -1    0    0    0  501 -0.00000000000E+00 -0.00000000000E+00 -0.18975335151E+04  0.18975335151E+04  0.00000000000E+00 0. -1.
         23    2    1    2    0    0 -0.14914776278E+04 -0.69562341155E+03  0.45561076080E+03  0.17103560734E+04  0.96639989365E+02 0.  0.
         11    1    3    3    0    0 -0.71783454846E+03 -0.38618285966E+03  0.23866248874E+03  0.84934293639E+03  0.00000000000E+00 0. -1.
        -11    1    3    3    0    0 -0.77364307933E+03 -0.30944055189E+03  0.21694827206E+03  0.86101313701E+03  0.00000000000E+00 0.  1.
         22    1    1    2    0    0  0.14914776278E+04  0.69562341155E+03 -0.73707927584E+03  0.18032424418E+04  0.00000000000E+00 0. -1.
<mgrwt>
<rscale>  0 0.35023064E+04</rscale>
<asrwt>0</asrwt>
<pdfrwt beam="1">  1        2 0.24862539E+00 0.35023064E+04</pdfrwt>
<pdfrwt beam="2">  1       -2 0.29192823E+00 0.35023064E+04</pdfrwt>
<totfact> 0.31955638E-01</totfact>
</mgrwt>
</event>
<event>
 6    1  0.1773638E-005  0.1847938E+04  0.7818608E-02  0.8681214E-01
         -1   -1    0    0    0  501 -0.00000000000E+00  0.00000000000E+00  0.81213816836E+03  0.81213816836E+03  0.00000000000E+00 0.  1.
          1   -1    0    0  501    0  0.00000000000E+00 -0.00000000000E+00 -0.10511992706E+04  0.10511992706E+04  0.00000000000E+00 0. -1.
         23    2    1    2    0    0 -0.48112007711E+03 -0.35545274986E+03 -0.82706348874E+03  0.10245466471E+04  0.88536047680E+02 0.  0.
         11    1    3    3    0    0 -0.16470114155E+03 -0.14375735601E+03 -0.36935829566E+03  0.42920647014E+03  0.00000000000E+00 0.  1.
        -11    1    3    3    0    0 -0.31641893556E+03 -0.21169539384E+03 -0.45770519307E+03  0.59534017698E+03  0.00000000000E+00 0. -1.
         22    1    1    2    0    0  0.48112007711E+03  0.35545274986E+03  0.58800238648E+03  0.83879079185E+03  0.00000000000E+00 0.  1.
<mgrwt>
<rscale>  0 0.18479384E+04</rscale>
<asrwt>0</asrwt>
<pdfrwt beam="1">  1        1 0.16172296E+00 0.18479384E+04</pdfrwt>
<pdfrwt beam="2">  1       -1 0.12494433E+00 0.18479384E+04</pdfrwt>
<totfact> 0.72719871E+00</totfact>
</mgrwt>
</event>
<event>
 6    1  0.1773638E-005  0.7473997E+03  0.7818608E-02  0.9639439E-01
          2   -1    0    0  501    0  0.00000000000E+00  0.00000000000E+00  0.10329382495E+04  0.10329382495E+04  0.00000000000E+00 0. -1.
         -2   -1    0    0    0  501 -0.00000000000E+00 -0.00000000000E+00 -0.13519838630E+03  0.13519838630E+03  0.00000000000E+00 0.  1.
         23    2    1    2    0    0 -0.34544156562E+03 -0.61000286311E+02  0.28070268557E+03  0.45835794582E+03  0.90813537660E+02 0.  0.
         11    1    3    3    0    0 -0.23870304696E+03 -0.53794792820E+02  0.14103211264E+03  0.28242358464E+03  0.00000000000E+00 0.  1.
        -11    1    3    3    0    0 -0.10673851865E+03 -0.72054934907E+01  0.13967057293E+03  0.17593436118E+03  0.00000000000E+00 0. -1.
         22    1    1    2    0    0  0.34544156562E+03  0.61000286311E+02  0.61703717762E+03  0.70977868998E+03  0.00000000000E+00 0.  1.
<mgrwt>
<rscale>  0 0.74739972E+03</rscale>
<asrwt>0</asrwt>
<pdfrwt beam="1">  1        2 0.15891357E+00 0.74739972E+03</pdfrwt>
<pdfrwt beam="2">  1       -2 0.20799752E-01 0.74739972E+03</pdfrwt>
<totfact> 0.48093277E+02</totfact>
</mgrwt>
</event>
<event>
 6    1  0.1773638E-005  0.2175266E+04  0.7818608E-02  0.8528794E-01
         -1   -1    0    0    0  501 -0.00000000000E+00  0.00000000000E+00  0.90053774485E+03  0.90053774485E+03  0.00000000000E+00 0.  1.
          1   -1    0    0  501    0  0.00000000000E+00 -0.00000000000E+00 -0.13135987571E+04  0.13135987571E+04  0.00000000000E+00 0. -1.
         23    2    1    2    0    0 -0.81034469550E+03 -0.21781895863E+03  0.49438604140E+03  0.97818999039E+03  0.91293346431E+02 0.  0.
         11    1    3    3    0    0 -0.19929398794E+02  0.85626602994E+01  0.15955468302E+02  0.26927254900E+02  0.00000000000E+00 0. -1.
        -11    1    3    3    0    0 -0.79041529671E+03 -0.22638161893E+03  0.47843057310E+03  0.95126273549E+03  0.00000000000E+00 0.  1.
         22    1    1    2    0    0  0.81034469550E+03  0.21781895863E+03 -0.90744705365E+03  0.12359465116E+04  0.00000000000E+00 0.  1.
<mgrwt>
<rscale>  0 0.21752657E+04</rscale>
<asrwt>0</asrwt>
<pdfrwt beam="1">  1        1 0.20209211E+00 0.21752657E+04</pdfrwt>
<pdfrwt beam="2">  1       -1 0.13854427E+00 0.21752657E+04</pdfrwt>
<totfact> 0.34816974E+00</totfact>
</mgrwt>
</event>
<event>
 6    1  0.1773638E-005  0.1814983E+04  0.7818608E-02  0.8698372E-01
         -1   -1    0    0    0  501 -0.00000000000E+00  0.00000000000E+00  0.96119408166E+03  0.96119408166E+03  0.00000000000E+00 0.  1.
          1   -1    0    0  501    0  0.00000000000E+00 -0.00000000000E+00 -0.85678954444E+03  0.85678954444E+03  0.00000000000E+00 0. -1.
         23    2    1    2    0    0 -0.35591436896E+03 -0.47186660690E+03  0.73891845370E+03  0.95083828480E+03  0.93593962804E+02 0.  0.
         11    1    3    3    0    0 -0.31356058171E+03 -0.43101249714E+03  0.61617065655E+03  0.81471362397E+03  0.00000000000E+00 0.  1.
        -11    1    3    3    0    0 -0.42353787251E+02 -0.40854109760E+02  0.12274779715E+03  0.13612466082E+03  0.00000000000E+00 0. -1.
         22    1    1    2    0    0  0.35591436896E+03  0.47186660690E+03 -0.63451391648E+03  0.86714534131E+03  0.00000000000E+00 0. -1.
<mgrwt>
<rscale>  0 0.18149832E+04</rscale>
<asrwt>0</asrwt>
<pdfrwt beam="1">  1        1 0.13181378E+00 0.18149832E+04</pdfrwt>
<pdfrwt beam="2">  1       -1 0.14787601E+00 0.18149832E+04</pdfrwt>
<totfact> 0.67539181E+00</totfact>
</mgrwt>
</event>
<event>
 6    1  0.1773638E-005  0.2695794E+04  0.7818608E-02  0.8336371E-01
          1   -1    0    0  501    0  0.00000000000E+00  0.00000000000E+00  0.18539726634E+04  0.18539726634E+04  0.00000000000E+00 0. -1.
         -1   -1    0    0    0  501 -0.00000000000E+00 -0.00000000000E+00 -0.97996389876E+03  0.97996389876E+03  0.00000000000E+00 0.  1.
         23    2    1    2    0    0  0.33098464898E+03 -0.12780001901E+04  0.71548346431E+03  0.15042878887E+04  0.90167292757E+02 0.  0.
         13    1    3    3    0    0  0.21173046106E+03 -0.64280744045E+03  0.35393022989E+03  0.76373935427E+03  0.00000000000E+00 0.  1.
        -13    1    3    3    0    0  0.11925418792E+03 -0.63519274968E+03  0.36155323442E+03  0.74054853447E+03  0.00000000000E+00 0. -1.
         22    1    1    2    0    0 -0.33098464898E+03  0.12780001901E+04  0.15852530031E+03  0.13296486734E+04  0.00000000000E+00 0.  1.
<mgrwt>
<rscale>  0 0.26957940E+04</rscale>
<asrwt>0</asrwt>
<pdfrwt beam="1">  1        1 0.28522656E+00 0.26957940E+04</pdfrwt>
<pdfrwt beam="2">  1       -1 0.15076368E+00 0.26957940E+04</pdfrwt>
<totfact> 0.11254067E+00</totfact>
</mgrwt>
</event>
<event>
 6    1  0.1773638E-005  0.2851295E+04  0.7818608E-02  0.8287518E-01
         -2   -1    0    0    0  501 -0.00000000000E+00  0.00000000000E+00  0.18773952656E+04  0.18773952656E+04  0.00000000000E+00 0.  1.
          2   -1    0    0  501    0  0.00000000000E+00 -0.00000000000E+00 -0.10826014781E+04  0.10826014781E+04  0.00000000000E+00 0. -1.
         23    2    1    2    0    0 -0.32579407103E+03 -0.10695511763E+04  0.13138375449E+04  0.17273216375E+04  0.85961907057E+02 0.  0.
         13    1    3    3    0    0 -0.68272961312E+02 -0.13054400672E+03  0.15795481000E+03  0.21599226129E+03  0.00000000000E+00 0.  1.
        -13    1    3    3    0    0 -0.25752110972E+03 -0.93900716960E+03  0.11558827349E+04  0.15113293762E+04  0.00000000000E+00 0. -1.
         22    1    1    2    0    0  0.32579407103E+03  0.10695511763E+04 -0.51904375734E+03  0.12326751062E+04  0.00000000000E+00 0. -1.
<mgrwt>
<rscale>  0 0.28512951E+04</rscale>
<asrwt>0</asrwt>
<pdfrwt beam="1">  1        2 0.16655407E+00 0.28512951E+04</pdfrwt>
<pdfrwt beam="2">  1       -2 0.28883004E+00 0.28512951E+04</pdfrwt>
<totfact> 0.71984075E-01</totfact>
</mgrwt>
</event>
<event>
 6    1  0.1773638E-005  0.7394984E+03  0.7818608E-02  0.9651971E-01
         -1   -1    0    0    0  501 -0.00000000000E+00  0.00000000000E+00  0.36893778604E+03  0.36893778604E+03  0.00000000000E+00 0.  1.
          1   -1    0    0  501    0  0.00000000000E+00 -0.00000000000E+00 -0.37056236884E+03  0.37056236884E+03  0.00000000000E+00 0. -1.
         23    2    1    2    0    0  0.66030151621E+02 -0.24073943112E+02  0.35286009317E+03  0.37811542754E+03  0.11628196562E+03 0.  0.
         13    1    3    3    0    0  0.75347886069E+02 -0.60855472676E+02  0.23094305498E+03  0.25043040377E+03  0.00000000000E+00 0. -1.
        -13    1    3    3    0    0 -0.93177344480E+01  0.36781529565E+02  0.12191703819E+03  0.12768502377E+03  0.00000000000E+00 0.  1.
         22    1    1    2    0    0 -0.66030151621E+02  0.24073943112E+02 -0.35448467598E+03  0.36138472735E+03  0.00000000000E+00 0. -1.
<mgrwt>
<rscale>  0 0.73949837E+03</rscale>
<asrwt>0</asrwt>
<pdfrwt beam="1">  1        1 0.57009595E-01 0.73949837E+03</pdfrwt>
<pdfrwt beam="2">  1       -1 0.56759659E-01 0.73949837E+03</pdfrwt>
<totfact> 0.21149857E+02</totfact>
</mgrwt>
</event>
<event>
 6    1  0.1773638E-005  0.1344135E+04  0.7818608E-02  0.8995280E-01
         -2   -1    0    0    0  501 -0.00000000000E+00  0.00000000000E+00  0.26812639027E+03  0.26812639027E+03  0.00000000000E+00 0.  1.
          2   -1    0    0  501    0  0.00000000000E+00 -0.00000000000E+00 -0.16845582314E+04  0.16845582314E+04  0.00000000000E+00 0. -1.
         23    2    1    2    0    0  0.65784753621E+03 -0.96332989345E+02 -0.60454639121E+03  0.90330318029E+03  0.91852439596E+02 0.  0.
         11    1    3    3    0    0  0.59454190575E+03 -0.58755164501E+02 -0.53276299349E+03  0.80048026477E+03  0.00000000000E+00 0. -1.
        -11    1    3    3    0    0  0.63305630454E+02 -0.37577824844E+02 -0.71783397722E+02  0.10282291552E+03  0.00000000000E+00 0.  1.
         22    1    1    2    0    0 -0.65784753621E+03  0.96332989345E+02 -0.81188544994E+03  0.10493814414E+04  0.00000000000E+00 0.  1.
<mgrwt>
<rscale>  0 0.13441347E+04</rscale>
<asrwt>0</asrwt>
<pdfrwt beam="1">  1        2 0.25916281E+00 0.13441347E+04</pdfrwt>
<pdfrwt beam="2">  1       -2 0.41250213E-01 0.13441347E+04</pdfrwt>
<totfact> 0.54407313E+01</totfact>
</mgrwt>
</event>
<event>
 6    1  0.1773638E-005  0.1099783E+04  0.7818608E-02  0.9205403E-01
         -2   -1    0    0    0  501 -0.00000000000E+00  0.00000000000E+00  0.16416059052E+03  0.16416059052E+03  0.00000000000E+00 0.  1.
          2   -1    0    0  501    0  0.00000000000E+00 -0.00000000000E+00 -0.18419815985E+04  0.18419815985E+04  0.00000000000E+00 0. -1.
         23    2    1    2    0    0  0.35089652199E+03 -0.35370645127E+03 -0.12535427467E+04  0.13517350788E+04  0.87072859228E+02 0.  0.
         11    1    3    3    0    0  0.17746285687E+03 -0.14765526881E+03 -0.47960858101E+03  0.53227768594E+03  0.00000000000E+00 0. -1.
        -11    1    3    3    0    0  0.17343366512E+03 -0.20605118246E+03 -0.77393416564E+03  0.81945739288E+03  0.00000000000E+00 0.  1.
         22    1    1    2    0    0 -0.35089652199E+03  0.35370645127E+03 -0.42427826129E+03  0.65440711015E+03  0.00000000000E+00 0.  1.
<mgrwt>
<rscale>  0 0.10997832E+04</rscale>
<asrwt>0</asrwt>
<pdfrwt beam="1">  1        2 0.28338178E+00 0.10997832E+04</pdfrwt>
<pdfrwt beam="2">  1       -2 0.25255476E-01 0.10997832E+04</pdfrwt>
<totfact> 0.11445149E+02</totfact>
</mgrwt>
</event>
<event>
 6    1  0.1773638E-005  0.1717195E+04  0.7818608E-02  0.8751618E-01
          1   -1    0    0  501    0  0.00000000000E+00  0.00000000000E+00  0.17898546262E+04  0.17898546262E+04  0.00000000000E+00 0. -1.
         -1   -1    0    0    0  501 -0.00000000000E+00 -0.00000000000E+00 -0.41187130339E+03  0.41187130339E+03  0.00000000000E+00 0.  1.
         23    2    1    2    0    0  0.41421603143E+03 -0.72473863437E+03  0.93519022208E+03  0.12567990865E+04  0.90234048151E+02 0.  0.
         11    1    3    3    0    0  0.21708632889E+03 -0.46196626144E+03  0.54388390008E+03  0.74588805974E+03  0.00000000000E+00 0.  1.
        -11    1    3    3    0    0  0.19712970255E+03 -0.26277237293E+03  0.39130632200E+03  0.51091102673E+03  0.00000000000E+00 0. -1.
         22    1    1    2    0    0 -0.41421603143E+03  0.72473863437E+03  0.44279310077E+03  0.94492684316E+03  0.00000000000E+00 0.  1.
<mgrwt>
<rscale>  0 0.17171951E+04</rscale>
<asrwt>0</asrwt>
<pdfrwt beam="1">  1        1 0.27536225E+00 0.17171951E+04</pdfrwt>
<pdfrwt beam="2">  1       -1 0.63364817E-01 0.17171951E+04</pdfrwt>
<totfact> 0.99357952E+00</totfact>
</mgrwt>
</event>
<event>
 6    1  0.1773638E-005  0.1961974E+04  0.7818608E-02  0.8624608E-01
          1   -1    0    0  501    0  0.00000000000E+00  0.00000000000E+00  0.59015798287E+03  0.59015798287E+03  0.00000000000E+00 0. -1.
         -1   -1    0    0    0  501 -0.00000000000E+00 -0.00000000000E+00 -0.16306410696E+04  0.16306410696E+04  0.00000000000E+00 0.  1.
         23    2    1    2    0    0 -0.81676750563E+03 -0.11199303603E+03 -0.11187740630E+04  0.13926800542E+04  0.90833533854E+02 0.  0.
         13    1    3    3    0    0 -0.22985999686E+03 -0.71606797831E+02 -0.30677380324E+03  0.38996579082E+03  0.00000000000E+00 0.  1.
        -13    1    3    3    0    0 -0.58690750876E+03 -0.40386238201E+02 -0.81200025977E+03  0.10027142634E+04  0.00000000000E+00 0. -1.
         22    1    1    2    0    0  0.81676750563E+03  0.11199303603E+03  0.78290976285E+02  0.82811899829E+03  0.00000000000E+00 0. -1.
<mgrwt>
<rscale>  0 0.19619744E+04</rscale>
<asrwt>0</asrwt>
<pdfrwt beam="1">  1        1 0.90793537E-01 0.19619744E+04</pdfrwt>
<pdfrwt beam="2">  1       -1 0.25086785E+00 0.19619744E+04</pdfrwt>
<totfact> 0.22465131E+00</totfact>
</mgrwt>
</event>
<event>
 6    1  0.1773638E-005  0.3190157E+04  0.7818608E-02  0.8191422E-01
          2   -1    0    0  501    0  0.00000000000E+00  0.00000000000E+00  0.25433810714E+04  0.25433810714E+04  0.00000000000E+00 0. -1.
         -2   -1    0    0    0  501 -0.00000000000E+00 -0.00000000000E+00 -0.10003515918E+04  0.10003515918E+04  0.00000000000E+00 0.  1.
         23    2    1    2    0    0  0.91816834587E+03 -0.12529523882E+03 -0.66824374595E+03  0.11461377669E+04  0.91378709668E+02 0.  0.
         13    1    3    3    0    0  0.71591169197E+03 -0.12561340690E+03 -0.49040439923E+03  0.87681511933E+03  0.00000000000E+00 0. -1.
        -13    1    3    3    0    0  0.20225665390E+03  0.31816807700E+00 -0.17783934672E+03  0.26932264761E+03  0.00000000000E+00 0.  1.
         22    1    1    2    0    0 -0.91816834587E+03  0.12529523882E+03  0.22112732256E+04  0.23975948962E+04  0.00000000000E+00 0. -1.
<mgrwt>
<rscale>  0 0.31901569E+04</rscale>
<asrwt>0</asrwt>
<pdfrwt beam="1">  1        2 0.39128939E+00 0.31901569E+04</pdfrwt>
<pdfrwt beam="2">  1       -2 0.15390025E+00 0.31901569E+04</pdfrwt>
<totfact> 0.77436258E-01</totfact>
</mgrwt>
</event>
<event>
 6    1  0.1773638E-005  0.2786139E+04  0.7818608E-02  0.8307584E-01
         -3   -1    0    0    0  501 -0.00000000000E+00  0.00000000000E+00  0.15131084515E+04  0.15131084515E+04  0.00000000000E+00 0.  1.
          3   -1    0    0  501    0  0.00000000000E+00 -0.00000000000E+00 -0.12825538722E+04  0.12825538722E+04  0.00000000000E+00 0. -1.
         23    2    1    2    0    0  0.27428030555E+03 -0.12422516778E+04  0.68130227394E+03  0.14459985133E+04  0.91214005513E+02 0.  0.
         11    1    3    3    0    0  0.23123575608E+03 -0.11064882972E+04  0.63327948298E+03  0.12956964268E+04  0.00000000000E+00 0. -1.
        -11    1    3    3    0    0  0.43044549472E+02 -0.13576338059E+03  0.48022790959E+02  0.15030208648E+03  0.00000000000E+00 0.  1.
         22    1    1    2    0    0 -0.27428030555E+03  0.12422516778E+04 -0.45074769465E+03  0.13496638105E+04  0.00000000000E+00 0. -1.
<mgrwt>
<rscale>  0 0.27861393E+04</rscale>
<asrwt>0</asrwt>
<pdfrwt beam="1">  1        3 0.19731598E+00 0.27861393E+04</pdfrwt>
<pdfrwt beam="2">  1       -3 0.23278592E+00 0.27861393E+04</pdfrwt>
<totfact> 0.31986853E-02</totfact>
</mgrwt>
</event>
<event>
 6    1  0.1773638E-005  0.4463787E+04  0.7818608E-02  0.7917007E-01
          2   -1    0    0  501    0  0.00000000000E+00  0.00000000000E+00  0.19342257752E+04  0.19342257752E+04  0.00000000000E+00 0. -1.
         -2   -1    0    0    0  501 -0.00000000000E+00 -0.00000000000E+00 -0.25753713205E+04  0.25753713205E+04  0.00000000000E+00 0.  1.
         23    2    1    2    0    0 -0.17806760582E+04 -0.97244262643E+03  0.61659916480E+03  0.21224704460E+04  0.90743474052E+02 0.  0.
         11    1    3    3    0    0 -0.81046985742E+03 -0.43706807132E+03  0.32683453684E+03  0.97709298597E+03  0.00000000000E+00 0. -1.
        -11    1    3    3    0    0 -0.97020620076E+03 -0.53537455510E+03  0.28976462796E+03  0.11453774600E+04  0.00000000000E+00 0.  1.
         22    1    1    2    0    0  0.17806760582E+04  0.97244262643E+03 -0.12577447101E+04  0.23871266497E+04  0.00000000000E+00 0. -1.
<mgrwt>
<rscale>  0 0.44637874E+04</rscale>
<asrwt>0</asrwt>
<pdfrwt beam="1">  1        2 0.29757320E+00 0.44637874E+04</pdfrwt>
<pdfrwt beam="2">  1       -2 0.39621097E+00 0.44637874E+04</pdfrwt>
<totfact> 0.43403775E-02</totfact>
</mgrwt>
</event>
<event>
 6    1  0.1773638E-005  0.1183621E+04  0.7818608E-02  0.9127315E-01
          1   -1    0    0  501    0  0.00000000000E+00  0.00000000000E+00  0.11503045513E+04  0.11503045513E+04  0.00000000000E+00 0. -1.
         -1   -1    0    0    0  501 -0.00000000000E+00 -0.00000000000E+00 -0.30447563982E+03  0.30447563982E+03  0.00000000000E+00 0.  1.
         23    2    1    2    0    0  0.30795960135E+03  0.45122695358E+03  0.15689482002E+03  0.57553331903E+03  0.90430841304E+02 0.  0.
         13    1    3    3    0    0  0.22836982647E+03  0.25706551611E+03  0.10080582327E+03  0.35832564968E+03  0.00000000000E+00 0.  1.
        -13    1    3    3    0    0  0.79589774884E+02  0.19416143747E+03  0.56088996755E+02  0.21720766934E+03  0.00000000000E+00 0. -1.
         22    1    1    2    0    0 -0.30795960135E+03 -0.45122695358E+03  0.68893409145E+03  0.87924687208E+03  0.00000000000E+00 0.  1.
<mgrwt>
<rscale>  0 0.11836211E+04</rscale>
<asrwt>0</asrwt>
<pdfrwt beam="1">  1        1 0.17696993E+00 0.11836211E+04</pdfrwt>
<pdfrwt beam="2">  1       -1 0.46842407E-01 0.11836211E+04</pdfrwt>
<totfact> 0.52304789E+01</totfact>
</mgrwt>
</event>
<event>
 6    1  0.1773638E-005  0.2015205E+04  0.7818608E-02  0.8599545E-01
          2   -1    0    0  501    0  0.00000000000E+00  0.00000000000E+00  0.19760062486E+04  0.19760062486E+04  0.00000000000E+00 0. -1.
         -2   -1    0    0    0  501 -0.00000000000E+00 -0.00000000000E+00 -0.51379513982E+03  0.51379513982E+03  0.00000000000E+00 0.  1.
         23    2    1    2    0    0  0.10649642263E+03  0.15510470595E+03  0.19529808978E+04  0.19642027357E+04  0.92515090791E+02 0.  0.
         13    1    3    3    0    0  0.86745358335E+02  0.77373094401E+02  0.79561439277E+03  0.80406070350E+03  0.00000000000E+00 0.  1.
        -13    1    3    3    0    0  0.19751064299E+02  0.77731611550E+02  0.11573665050E+04  0.11601420322E+04  0.00000000000E+00 0. -1.
         22    1    1    2    0    0 -0.10649642263E+03 -0.15510470595E+03 -0.49076978905E+03  0.52559865267E+03  0.00000000000E+00 0.  1.
<mgrwt>
<rscale>  0 0.20152046E+04</rscale>
<asrwt>0</asrwt>
<pdfrwt beam="1">  1        2 0.30400096E+00 0.20152046E+04</pdfrwt>
<pdfrwt beam="2">  1       -2 0.79045407E-01 0.20152046E+04</pdfrwt>
<totfact> 0.90781989E+00</totfact>
</mgrwt>
</event>
<event>
 6    1  0.1773638E-005  0.3068080E+04  0.7818608E-02  0.8224553E-01
          2   -1    0    0  501    0  0.00000000000E+00  0.00000000000E+00  0.16598852839E+04  0.16598852839E+04  0.00000000000E+00 0. -1.
         -2   -1    0    0    0  501 -0.00000000000E+00 -0.00000000000E+00 -0.14177354716E+04  0.14177354716E+04  0.00000000000E+00 0.  1.
         23    2    1    2    0    0  0.84031355733E+03 -0.12695426943E+04  0.29840070595E+03  0.15541281594E+04  0.91683298190E+02 0.  0.
         13    1    3    3    0    0  0.64352239673E+03 -0.93862488908E+03  0.25870920914E+03  0.11670767808E+04  0.00000000000E+00 0. -1.
        -13    1    3    3    0    0  0.19679116060E+03 -0.33091780523E+03  0.39691496805E+02  0.38705137854E+03  0.00000000000E+00 0.  1.
         22    1    1    2    0    0 -0.84031355733E+03  0.12695426943E+04 -0.56250893673E+02  0.15234925961E+04  0.00000000000E+00 0.  1.
<mgrwt>
<rscale>  0 0.30680797E+04</rscale>
<asrwt>0</asrwt>
<pdfrwt beam="1">  1        2 0.25536697E+00 0.30680797E+04</pdfrwt>
<pdfrwt beam="2">  1       -2 0.21811315E+00 0.30680797E+04</pdfrwt>
<totfact> 0.89303906E-01</totfact>
</mgrwt>
</event>
<event>
 6    1  0.1773638E-005  0.3915156E+04  0.7818608E-02  0.8021884E-01
          2   -1    0    0  501    0  0.00000000000E+00  0.00000000000E+00  0.18031944240E+04  0.18031944240E+04  0.00000000000E+00 0.  1.
         -2   -1    0    0    0  501 -0.00000000000E+00 -0.00000000000E+00 -0.21251796907E+04  0.21251796907E+04  0.00000000000E+00 0. -1.
         23    2    1    2    0    0 -0.15139416038E+04  0.35142214358E+02  0.10817349568E+04  0.18635049612E+04  0.96156480347E+02 0.  0.
         13    1    3    3    0    0 -0.13455455263E+04  0.41082184116E+02  0.92468499752E+03  0.16331634498E+04  0.00000000000E+00 0. -1.
        -13    1    3    3    0    0 -0.16839607755E+03 -0.59399697582E+01  0.15704995925E+03  0.23034151140E+03  0.00000000000E+00 0.  1.
         22    1    1    2    0    0  0.15139416038E+04 -0.35142214358E+02 -0.14037202235E+04  0.20648691535E+04  0.00000000000E+00 0. -1.
<mgrwt>
<rscale>  0 0.39151563E+04</rscale>
<asrwt>0</asrwt>
<pdfrwt beam="1">  1        2 0.27741453E+00 0.39151563E+04</pdfrwt>
<pdfrwt beam="2">  1       -2 0.32695072E+00 0.39151563E+04</pdfrwt>
<totfact> 0.14799408E-01</totfact>
</mgrwt>
</event>
<event>
 6    1  0.1773638E-005  0.4473424E+04  0.7818608E-02  0.7915306E-01
         -2   -1    0    0    0  501 -0.00000000000E+00  0.00000000000E+00  0.18140262814E+04  0.18140262814E+04  0.00000000000E+00 0.  1.
          2   -1    0    0  501    0  0.00000000000E+00 -0.00000000000E+00 -0.27578875251E+04  0.27578875251E+04  0.00000000000E+00 0. -1.
         23    2    1    2    0    0 -0.73764430256E+03  0.53204085631E+03  0.16155176394E+04  0.18557387649E+04  0.81746744648E+02 0.  0.
         11    1    3    3    0    0 -0.19606856274E+03  0.12041105690E+03  0.47419876409E+03  0.52707321292E+03  0.00000000000E+00 0. -1.
        -11    1    3    3    0    0 -0.54157573983E+03  0.41162979942E+03  0.11413188753E+04  0.13286655519E+04  0.00000000000E+00 0.  1.
         22    1    1    2    0    0  0.73764430256E+03 -0.53204085631E+03 -0.25593788831E+04  0.27161750417E+04  0.00000000000E+00 0. -1.
<mgrwt>
<rscale>  0 0.44734239E+04</rscale>
<asrwt>0</asrwt>
<pdfrwt beam="1">  1        2 0.42429039E+00 0.44734239E+04</pdfrwt>
<pdfrwt beam="2">  1       -2 0.27908097E+00 0.44734239E+04</pdfrwt>
<totfact> 0.79406966E-02</totfact>
</mgrwt>
</event>
<event>
 6    1  0.1773638E-005  0.7743203E+03  0.7818608E-02  0.9597950E-01
         -4   -1    0    0    0  501 -0.00000000000E+00  0.00000000000E+00  0.98634007802E+03  0.98634007802E+03  0.00000000000E+00 0.  1.
          4   -1    0    0  501    0  0.00000000000E+00 -0.00000000000E+00 -0.15196885037E+03  0.15196885037E+03  0.00000000000E+00 0. -1.
         23    2    1    2    0    0 -0.23917591133E+03  0.29203220268E+03  0.33920129519E+03  0.51566843343E+03  0.91479454567E+02 0.  0.
         11    1    3    3    0    0 -0.18864735455E+03  0.23725579516E+03  0.31538957477E+03  0.43743424716E+03  0.00000000000E+00 0. -1.
        -11    1    3    3    0    0 -0.50528556781E+02  0.54776407517E+02  0.23811720424E+02  0.78234186263E+02  0.00000000000E+00 0.  1.
         22    1    1    2    0    0  0.23917591133E+03 -0.29203220268E+03  0.49516993246E+03  0.62264049497E+03  0.00000000000E+00 0.  1.
<mgrwt>
<rscale>  0 0.77432026E+03</rscale>
<asrwt>0</asrwt>
<pdfrwt beam="1">  1        4 0.23379824E-01 0.77432026E+03</pdfrwt>
<pdfrwt beam="2">  1       -4 0.15174462E+00 0.77432026E+03</pdfrwt>
<totfact> 0.99642709E+00</totfact>
</mgrwt>
</event>
<event>
 6    1  0.1773638E-005  0.3539215E+04  0.7818608E-02  0.8104559E-01
          2   -1    0    0  501    0  0.00000000000E+00  0.00000000000E+00  0.15671219738E+04  0.15671219738E+04  0.00000000000E+00 0. -1.
         -2   -1    0    0    0  501 -0.00000000000E+00 -0.00000000000E+00 -0.19982559486E+04  0.19982559486E+04  0.00000000000E+00 0.  1.
         23    2    1    2    0    0 -0.15106464674E+04  0.90903546833E+03 -0.35270643746E+03  0.18005694027E+04  0.96177496154E+02 0.  0.
         13    1    3    3    0    0 -0.48044884715E+03  0.25364542758E+03 -0.75707229807E+02  0.54854232499E+03  0.00000000000E+00 0.  1.
        -13    1    3    3    0    0 -0.10301976203E+04  0.65539004075E+03 -0.27699920765E+03  0.12520270777E+04  0.00000000000E+00 0. -1.
         22    1    1    2    0    0  0.15106464674E+04 -0.90903546833E+03 -0.78427537348E+02  0.17648085196E+04  0.00000000000E+00 0.  1.
<mgrwt>
<rscale>  0 0.35392151E+04</rscale>
<asrwt>0</asrwt>
<pdfrwt beam="1">  1        2 0.24109569E+00 0.35392151E+04</pdfrwt>
<pdfrwt beam="2">  1       -2 0.30742399E+00 0.35392151E+04</pdfrwt>
<totfact> 0.27272558E-01</totfact>
</mgrwt>
</event>
<event>
 6    1  0.1773638E-005  0.1475534E+04  0.7818608E-02  0.8900888E-01
         -1   -1    0    0    0  501 -0.00000000000E+00  0.00000000000E+00  0.35821724746E+03  0.35821724746E+03  0.00000000000E+00 0. -1.
          1   -1    0    0  501    0  0.00000000000E+00 -0.00000000000E+00 -0.15194690831E+04  0.15194690831E+04  0.00000000000E+00 0.  1.
         23    2    1    2    0    0 -0.16370611954E+03  0.33469725716E+03  0.22348245407E+03  0.44370202080E+03  0.90028486915E+02 0.  0.
         11    1    3    3    0    0 -0.59450733701E+02  0.22177992925E+03  0.13199256713E+03  0.26484479329E+03  0.00000000000E+00 0. -1.
        -11    1    3    3    0    0 -0.10425538584E+03  0.11291732791E+03  0.91489886946E+02  0.17885722751E+03  0.00000000000E+00 0.  1.
         22    1    1    2    0    0  0.16370611954E+03 -0.33469725716E+03 -0.13847342897E+04  0.14339843098E+04  0.00000000000E+00 0.  1.
<mgrwt>
<rscale>  0 0.14755338E+04</rscale>
<asrwt>0</asrwt>
<pdfrwt beam="1">  1        1 0.23376447E+00 0.14755338E+04</pdfrwt>
<pdfrwt beam="2">  1       -1 0.55110346E-01 0.14755338E+04</pdfrwt>
<totfact> 0.20455103E+01</totfact>
</mgrwt>
</event>
<event>
 6    1  0.1773638E-005  0.3764603E+04  0.7818608E-02  0.8053794E-01
         -2   -1    0    0    0  501 -0.00000000000E+00  0.00000000000E+00  0.85111389958E+03  0.85111389958E+03  0.00000000000E+00 0.  1.
          2   -1    0    0  501    0  0.00000000000E+00 -0.00000000000E+00 -0.41628487056E+04  0.41628487056E+04  0.00000000000E+00 0. -1.
         23    2    1    2    0    0 -0.15933533791E+04  0.28207935713E+03 -0.37905700016E+03  0.16644935626E+04  0.92254300543E+02 0.  0.
         11    1    3    3    0    0 -0.65127301266E+03  0.16130509318E+03 -0.16051125935E+03  0.68988385579E+03  0.00000000000E+00 0. -1.
        -11    1    3    3    0    0 -0.94208036647E+03  0.12077426394E+03 -0.21854574080E+03  0.97460970678E+03  0.00000000000E+00 0.  1.
         22    1    1    2    0    0  0.15933533791E+04 -0.28207935713E+03 -0.29326778059E+04  0.33494690426E+04  0.00000000000E+00 0.  1.
<mgrwt>
<rscale>  0 0.37646027E+04</rscale>
<asrwt>0</asrwt>
<pdfrwt beam="1">  1        2 0.64043826E+00 0.37646027E+04</pdfrwt>
<pdfrwt beam="2">  1       -2 0.13094060E+00 0.37646027E+04</pdfrwt>
<totfact> 0.85496663E-02</totfact>
</mgrwt>
</event>
<event>
 6    1  0.1773638E-005  0.1686773E+04  0.7818608E-02  0.8768944E-01
         -2   -1    0    0    0  501 -0.00000000000E+00  0.00000000000E+00  0.37196137068E+03  0.37196137068E+03  0.00000000000E+00 0. -1.
          2   -1    0    0  501    0  0.00000000000E+00 -0.00000000000E+00 -0.19122977847E+04  0.19122977847E+04  0.00000000000E+00 0.  1.
         23    2    1    2    0    0  0.30475767277E+03 -0.16312875248E+03 -0.18106082898E+04  0.18454709196E+04  0.89287775187E+02 0.  0.
         11    1    3    3    0    0  0.35473888474E+02 -0.65911353439E+01 -0.35973775795E+03  0.36154265907E+03  0.00000000000E+00 0. -1.
        -11    1    3    3    0    0  0.26928378429E+03 -0.15653761714E+03 -0.14508705319E+04  0.14839282605E+04  0.00000000000E+00 0.  1.
         22    1    1    2    0    0 -0.30475767277E+03  0.16312875248E+03  0.27027187583E+03  0.43878823578E+03  0.00000000000E+00 0. -1.
<mgrwt>
<rscale>  0 0.16867731E+04</rscale>
<asrwt>0</asrwt>
<pdfrwt beam="1">  1        2 0.29419966E+00 0.16867731E+04</pdfrwt>
<pdfrwt beam="2">  1       -2 0.57224827E-01 0.16867731E+04</pdfrwt>
<totfact> 0.20375946E+01</totfact>
</mgrwt>
</event>
<event>
 6    1  0.1773638E-005  0.2561332E+04  0.7818608E-02  0.8381456E-01
         -1   -1    0    0    0  501 -0.00000000000E+00  0.00000000000E+00  0.18711239928E+04  0.18711239928E+04  0.00000000000E+00 0.  1.
          1   -1    0    0  501    0  0.00000000000E+00 -0.00000000000E+00 -0.87653493343E+03  0.87653493343E+03  0.00000000000E+00 0. -1.
         23    2    1    2    0    0 -0.59667879357E+03  0.81273635072E+03 -0.34641214536E+03  0.10699073983E+04  0.90191506905E+02 0.  0.
         11    1    3    3    0    0 -0.25892537903E+03  0.29816368268E+03 -0.10389467609E+03  0.40833569191E+03  0.00000000000E+00 0.  1.
        -11    1    3    3    0    0 -0.33775341455E+03  0.51457266804E+03 -0.24251746928E+03  0.66157170635E+03  0.00000000000E+00 0. -1.
         22    1    1    2    0    0  0.59667879357E+03 -0.81273635072E+03  0.13410012047E+04  0.16777515279E+04  0.00000000000E+00 0.  1.
<mgrwt>
<rscale>  0 0.25613321E+04</rscale>
<asrwt>0</asrwt>
<pdfrwt beam="1">  1        1 0.13485153E+00 0.25613321E+04</pdfrwt>
<pdfrwt beam="2">  1       -1 0.28786523E+00 0.25613321E+04</pdfrwt>
<totfact> 0.66555603E-01</totfact>
</mgrwt>
</event>
<event>
 6    1  0.1773638E-005  0.5073317E+04  0.7818608E-02  0.7817296E-01
          2   -1    0    0  501    0  0.00000000000E+00  0.00000000000E+00  0.27456838815E+04  0.27456838815E+04  0.00000000000E+00 0. -1.
         -2   -1    0    0    0  501 -0.00000000000E+00 -0.00000000000E+00 -0.23435455698E+04  0.23435455698E+04  0.00000000000E+00 0.  1.
         23    2    1    2    0    0 -0.15571183380E+04 -0.60248194092E+03  0.21155728301E+04  0.26968540927E+04  0.98851353645E+02 0.  0.
         13    1    3    3    0    0 -0.25436925089E+03 -0.13839450723E+03  0.36252926005E+03  0.46398730567E+03  0.00000000000E+00 0. -1.
        -13    1    3    3    0    0 -0.13027490871E+04 -0.46408743369E+03  0.17530435701E+04  0.22328667870E+04  0.00000000000E+00 0.  1.
         22    1    1    2    0    0  0.15571183380E+04  0.60248194092E+03 -0.17134345184E+04  0.23923753586E+04  0.00000000000E+00 0.  1.
<mgrwt>
<rscale>  0 0.50733166E+04</rscale>
<asrwt>0</asrwt>
<pdfrwt beam="1">  1        2 0.42241290E+00 0.50733166E+04</pdfrwt>
<pdfrwt beam="2">  1       -2 0.36054547E+00 0.50733166E+04</pdfrwt>
<totfact> 0.24078690E-02</totfact>
</mgrwt>
</event>
<event>
 6    1  0.1773638E-005  0.1866086E+04  0.7818608E-02  0.8671924E-01
         -1   -1    0    0    0  501 -0.00000000000E+00  0.00000000000E+00  0.10589709028E+04  0.10589709028E+04  0.00000000000E+00 0.  1.
          1   -1    0    0  501    0  0.00000000000E+00 -0.00000000000E+00 -0.82208950316E+03  0.82208950316E+03  0.00000000000E+00 0. -1.
         23    2    1    2    0    0 -0.68560862375E+03  0.16920522429E+03 -0.49276053804E+03  0.86564573690E+03  0.88543780560E+02 0.  0.
         13    1    3    3    0    0 -0.52846264460E+03  0.16811480692E+03 -0.38436384701E+03  0.67473766897E+03  0.00000000000E+00 0.  1.
        -13    1    3    3    0    0 -0.15714597916E+03  0.10904173704E+01 -0.10839669103E+03  0.19090806793E+03  0.00000000000E+00 0. -1.
         22    1    1    2    0    0  0.68560862375E+03 -0.16920522429E+03  0.72964193768E+03  0.10154146690E+04  0.00000000000E+00 0.  1.
<mgrwt>
<rscale>  0 0.18660856E+04</rscale>
<asrwt>0</asrwt>
<pdfrwt beam="1">  1        1 0.12647531E+00 0.18660856E+04</pdfrwt>
<pdfrwt beam="2">  1       -1 0.16291860E+00 0.18660856E+04</pdfrwt>
<totfact> 0.55143267E+00</totfact>
</mgrwt>
</event>
<event>
 6    1  0.1773638E-005  0.1796686E+04  0.7818608E-02  0.8708064E-01
          1   -1    0    0  501    0  0.00000000000E+00  0.00000000000E+00  0.36731924813E+03  0.36731924813E+03  0.00000000000E+00 0. -1.
         -1   -1    0    0    0  501 -0.00000000000E+00 -0.00000000000E+00 -0.21970539635E+04  0.21970539635E+04  0.00000000000E+00 0.  1.
         23    2    1    2    0    0 -0.13206728387E+03 -0.64299612954E+03 -0.17879016685E+04  0.19066226557E+04  0.87930568436E+02 0.  0.
         13    1    3    3    0    0 -0.19972797403E+02 -0.22859736028E+03 -0.53205337435E+03  0.57942769947E+03  0.00000000000E+00 0.  1.
        -13    1    3    3    0    0 -0.11209448647E+03 -0.41439876926E+03 -0.12558482942E+04  0.13271949562E+04  0.00000000000E+00 0. -1.
         22    1    1    2    0    0  0.13206728387E+03  0.64299612954E+03 -0.41833046884E+02  0.65775055597E+03  0.00000000000E+00 0. -1.
<mgrwt>
<rscale>  0 0.17966861E+04</rscale>
<asrwt>0</asrwt>
<pdfrwt beam="1">  1        1 0.56510654E-01 0.17966861E+04</pdfrwt>
<pdfrwt beam="2">  1       -1 0.33800830E+00 0.17966861E+04</pdfrwt>
<totfact> 0.11853663E+00</totfact>
</mgrwt>
</event>
<event>
 6    1  0.1773638E-005  0.5681295E+03  0.7818608E-02  0.9973826E-01
          2   -1    0    0  501    0  0.00000000000E+00  0.00000000000E+00  0.25219393153E+04  0.25219393153E+04  0.00000000000E+00 0. -1.
         -2   -1    0    0    0  501 -0.00000000000E+00 -0.00000000000E+00 -0.31996322291E+02  0.31996322291E+02  0.00000000000E+00 0.  1.
         23    2    1    2    0    0  0.14587974331E+03 -0.85448289158E+02  0.22623398953E+04  0.22704123057E+04  0.89487018643E+02 0.  0.
         11    1    3    3    0    0 -0.87705931556E+01 -0.15387622046E+02  0.38623031924E+03  0.38663621367E+03  0.00000000000E+00 0. -1.
        -11    1    3    3    0    0  0.15465033646E+03 -0.70060667112E+02  0.18761095760E+04  0.18837760920E+04  0.00000000000E+00 0.  1.
         22    1    1    2    0    0 -0.14587974331E+03  0.85448289158E+02  0.22760309775E+03  0.28352333190E+03  0.00000000000E+00 0.  1.
<mgrwt>
<rscale>  0 0.56812950E+03</rscale>
<asrwt>0</asrwt>
<pdfrwt beam="1">  1        2 0.38799051E+00 0.56812950E+03</pdfrwt>
<pdfrwt beam="2">  1       -2 0.49225131E-02 0.56812950E+03</pdfrwt>
<totfact> 0.75405153E+02</totfact>
</mgrwt>
</event>
<event>
 6    1  0.1773638E-005  0.1340528E+04  0.7818608E-02  0.8998030E-01
          2   -1    0    0  501    0  0.00000000000E+00  0.00000000000E+00  0.23686008063E+04  0.23686008063E+04  0.00000000000E+00 0. -1.
         -2   -1    0    0    0  501 -0.00000000000E+00 -0.00000000000E+00 -0.18967048020E+03  0.18967048020E+03  0.00000000000E+00 0.  1.
         23    2    1    2    0    0 -0.22417576609E+03 -0.46894380770E+03  0.18927732942E+04  0.19649341852E+04  0.90623066668E+02 0.  0.
         13    1    3    3    0    0 -0.12163075385E+03 -0.15717720852E+03  0.66640996853E+03  0.69541423721E+03  0.00000000000E+00 0.  1.
        -13    1    3    3    0    0 -0.10254501224E+03 -0.31176659917E+03  0.12263633256E+04  0.12695199480E+04  0.00000000000E+00 0. -1.
         22    1    1    2    0    0  0.22417576609E+03  0.46894380770E+03  0.28615703198E+03  0.59333710134E+03  0.00000000000E+00 0.  1.
<mgrwt>
<rscale>  0 0.13405277E+04</rscale>
<asrwt>0</asrwt>
<pdfrwt beam="1">  1        2 0.36440010E+00 0.13405277E+04</pdfrwt>
<pdfrwt beam="2">  1       -2 0.29180076E-01 0.13405277E+04</pdfrwt>
<totfact> 0.43868471E+01</totfact>
</mgrwt>
</event>
<event>
 6    1  0.1773638E-005  0.2299807E+04  0.7818608E-02  0.8477997E-01
         -2   -1    0    0    0  501 -0.00000000000E+00  0.00000000000E+00  0.10158766469E+04  0.10158766469E+04  0.00000000000E+00 0.  1.
          2   -1    0    0  501    0  0.00000000000E+00 -0.00000000000E+00 -0.13016123295E+04  0.13016123295E+04  0.00000000000E+00 0. -1.
         23    2    1    2    0    0 -0.35718487539E+03  0.34775767462E+03 -0.11852531576E+04  0.12890687689E+04  0.91415576873E+02 0.  0.
         13    1    3    3    0    0 -0.21270171483E+03  0.21891106991E+03 -0.83243050144E+03  0.88662540892E+03  0.00000000000E+00 0. -1.
        -13    1    3    3    0    0 -0.14448316056E+03  0.12884660471E+03 -0.35282265620E+03  0.40244335994E+03  0.00000000000E+00 0.  1.
         22    1    1    2    0    0  0.35718487539E+03 -0.34775767462E+03  0.89951747505E+03  0.10284202076E+04  0.00000000000E+00 0.  1.
<mgrwt>
<rscale>  0 0.22998066E+04</rscale>
<asrwt>0</asrwt>
<pdfrwt beam="1">  1        2 0.20024805E+00 0.22998066E+04</pdfrwt>
<pdfrwt beam="2">  1       -2 0.15628872E+00 0.22998066E+04</pdfrwt>
<totfact> 0.40154012E+00</totfact>
</mgrwt>
</event>
<event>
 6    1  0.1773638E-005  0.2640159E+04  0.7818608E-02  0.8354687E-01
          2   -1    0    0  501    0  0.00000000000E+00  0.00000000000E+00  0.30396219446E+04  0.30396219446E+04  0.00000000000E+00 0. -1.
         -2   -1    0    0    0  501 -0.00000000000E+00 -0.00000000000E+00 -0.57329813296E+03  0.57329813296E+03  0.00000000000E+00 0.  1.
         23    2    1    2    0    0  0.17875416496E+03  0.68765867734E+03  0.27545536241E+04  0.28461711403E+04  0.91087782130E+02 0.  0.
         11    1    3    3    0    0  0.89105052021E+02  0.27784881039E+03  0.96764929862E+03  0.10106853303E+04  0.00000000000E+00 0.  1.
        -11    1    3    3    0    0  0.89649112934E+02  0.40980986694E+03  0.17869043255E+04  0.18354858100E+04  0.00000000000E+00 0. -1.
         22    1    1    2    0    0 -0.17875416496E+03 -0.68765867734E+03 -0.28822981243E+03  0.76674893725E+03  0.00000000000E+00 0.  1.
<mgrwt>
<rscale>  0 0.26401588E+04</rscale>
<asrwt>0</asrwt>
<pdfrwt beam="1">  1        2 0.46763413E+00 0.26401588E+04</pdfrwt>
<pdfrwt beam="2">  1       -2 0.88199715E-01 0.26401588E+04</pdfrwt>
<totfact> 0.16044555E+00</totfact>
</mgrwt>
</event>
<event>
 6    1  0.1773638E-005  0.1613915E+04  0.7818608E-02  0.8812045E-01
          1   -1    0    0  501    0  0.00000000000E+00  0.00000000000E+00  0.16450215167E+04  0.16450215167E+04  0.00000000000E+00 0. -1.
         -1   -1    0    0    0  501 -0.00000000000E+00 -0.00000000000E+00 -0.39584916994E+03  0.39584916994E+03  0.00000000000E+00 0.  1.
         23    2    1    2    0    0  0.76152099745E+03 -0.31942702970E+02  0.95119334814E+03  0.12225027685E+04  0.93859829208E+02 0.  0.
         11    1    3    3    0    0  0.65227405759E+03 -0.32766800880E+01  0.77183526455E+03  0.10105453273E+04  0.00000000000E+00 0. -1.
        -11    1    3    3    0    0  0.10924693986E+03 -0.28666022882E+02  0.17935808359E+03  0.21195744121E+03  0.00000000000E+00 0.  1.
         22    1    1    2    0    0 -0.76152099745E+03  0.31942702970E+02  0.29797899858E+03  0.81836791814E+03  0.00000000000E+00 0. -1.
<mgrwt>
<rscale>  0 0.16139150E+04</rscale>
<asrwt>0</asrwt>
<pdfrwt beam="1">  1        1 0.25308023E+00 0.16139150E+04</pdfrwt>
<pdfrwt beam="2">  1       -1 0.60899873E-01 0.16139150E+04</pdfrwt>
<totfact> 0.13620162E+01</totfact>
</mgrwt>
</event>
<event>
 6    1  0.1773638E-005  0.3328543E+04  0.7818608E-02  0.8155670E-01
         -1   -1    0    0    0  501 -0.00000000000E+00  0.00000000000E+00  0.88864975962E+03  0.88864975962E+03  0.00000000000E+00 0.  1.
          1   -1    0    0  501    0  0.00000000000E+00 -0.00000000000E+00 -0.31168624461E+04  0.31168624461E+04  0.00000000000E+00 0. -1.
         23    2    1    2    0    0 -0.89770751555E+03 -0.72768892742E+03  0.32390881003E+03  0.12039529807E+04  0.95790938249E+02 0.  0.
         13    1    3    3    0    0 -0.45006961965E+03 -0.32681111475E+03  0.11662365751E+03  0.56830383137E+03  0.00000000000E+00 0.  1.
        -13    1    3    3    0    0 -0.44763789591E+03 -0.40087781267E+03  0.20728515252E+03  0.63564914929E+03  0.00000000000E+00 0. -1.
         22    1    1    2    0    0  0.89770751555E+03  0.72768892742E+03 -0.25521214965E+04  0.28015592251E+04  0.00000000000E+00 0. -1.
<mgrwt>
<rscale>  0 0.33285427E+04</rscale>
<asrwt>0</asrwt>
<pdfrwt beam="1">  1        1 0.47951729E+00 0.33285427E+04</pdfrwt>
<pdfrwt beam="2">  1       -1 0.13671535E+00 0.33285427E+04</pdfrwt>
<totfact> 0.18079159E-01</totfact>
</mgrwt>
</event>
<event>
 6    1  0.1773638E-005  0.1554729E+04  0.7818608E-02  0.8848853E-01
          1   -1    0    0  501    0  0.00000000000E+00  0.00000000000E+00  0.11427418397E+04  0.11427418397E+04  0.00000000000E+00 0. -1.
         -1   -1    0    0    0  501 -0.00000000000E+00 -0.00000000000E+00 -0.52881210895E+03  0.52881210895E+03  0.00000000000E+00 0.  1.
         23    2    1    2    0    0  0.80281229490E+02 -0.52052385970E+03  0.91881796374E+03  0.10629925311E+04  0.91304470700E+02 0.  0.
         11    1    3    3    0    0 -0.11896742420E+01 -0.21198809695E+03  0.30902662056E+03  0.37475034461E+03  0.00000000000E+00 0. -1.
        -11    1    3    3    0    0  0.81470903732E+02 -0.30853576275E+03  0.60979134318E+03  0.68824218649E+03  0.00000000000E+00 0.  1.
         22    1    1    2    0    0 -0.80281229490E+02  0.52052385970E+03 -0.30488823299E+03  0.60856141755E+03  0.00000000000E+00 0.  1.
<mgrwt>
<rscale>  0 0.15547292E+04</rscale>
<asrwt>0</asrwt>
<pdfrwt beam="1">  1        1 0.17580644E+00 0.15547292E+04</pdfrwt>
<pdfrwt beam="2">  1       -1 0.81355709E-01 0.15547292E+04</pdfrwt>
<totfact> 0.17071477E+01</totfact>
</mgrwt>
</event>
<event>
 6    1  0.1773638E-005  0.1902944E+04  0.7818608E-02  0.8653393E-01
         -1   -1    0    0    0  501 -0.00000000000E+00  0.00000000000E+00  0.17430440462E+04  0.17430440462E+04  0.00000000000E+00 0.  1.
          1   -1    0    0  501    0  0.00000000000E+00 -0.00000000000E+00 -0.51937788518E+03  0.51937788518E+03  0.00000000000E+00 0. -1.
         23    2    1    2    0    0 -0.80429607688E+03  0.16115547939E+03  0.11811175738E+04  0.14410367293E+04  0.93192619182E+02 0.  0.
         13    1    3    3    0    0 -0.35517456895E+03  0.24107115519E+02  0.50801499861E+03  0.62033004624E+03  0.00000000000E+00 0.  1.
        -13    1    3    3    0    0 -0.44912150792E+03  0.13704836387E+03  0.67310257522E+03  0.82070668310E+03  0.00000000000E+00 0. -1.
         22    1    1    2    0    0  0.80429607688E+03 -0.16115547939E+03  0.42548587153E+02  0.82138520201E+03  0.00000000000E+00 0. -1.
<mgrwt>
<rscale>  0 0.19029435E+04</rscale>
<asrwt>0</asrwt>
<pdfrwt beam="1">  1        1 0.79904291E-01 0.19029435E+04</pdfrwt>
<pdfrwt beam="2">  1       -1 0.26816062E+00 0.19029435E+04</pdfrwt>
<totfact> 0.20890827E+00</totfact>
</mgrwt>
</event>
<event>
 6    1  0.1773638E-005  0.4024063E+03  0.7818608E-02  0.1042950E+00
          1   -1    0    0  501    0  0.00000000000E+00  0.00000000000E+00  0.40046477518E+03  0.40046477518E+03  0.00000000000E+00 0.  1.
         -1   -1    0    0    0  501 -0.00000000000E+00 -0.00000000000E+00 -0.10108932741E+03  0.10108932741E+03  0.00000000000E+00 0. -1.
         23    2    1    2    0    0  0.15920496889E+03  0.10455704934E+03  0.12977388584E+03  0.24651863743E+03  0.87474444669E+02 0.  0.
         13    1    3    3    0    0  0.75824542906E+02  0.10009209306E+03  0.69332853163E+02  0.14343930050E+03  0.00000000000E+00 0. -1.
        -13    1    3    3    0    0  0.83380425980E+02  0.44649562784E+01  0.60441032680E+02  0.10307933693E+03  0.00000000000E+00 0.  1.
         22    1    1    2    0    0 -0.15920496889E+03 -0.10455704934E+03  0.16960156192E+03  0.25503546516E+03  0.00000000000E+00 0. -1.
<mgrwt>
<rscale>  0 0.40240634E+03</rscale>
<asrwt>0</asrwt>
<pdfrwt beam="1">  1        1 0.61609965E-01 0.40240634E+03</pdfrwt>
<pdfrwt beam="2">  1       -1 0.15552204E-01 0.40240634E+03</pdfrwt>
<totfact> 0.18432501E+03</totfact>
</mgrwt>
</event>
<event>
 6    1  0.1773638E-005  0.2309212E+04  0.7818608E-02  0.8474298E-01
         -1   -1    0    0    0  501 -0.00000000000E+00  0.00000000000E+00  0.73852372357E+03  0.73852372357E+03  0.00000000000E+00 0.  1.
          1   -1    0    0  501    0  0.00000000000E+00 -0.00000000000E+00 -0.18051077603E+04  0.18051077603E+04  0.00000000000E+00 0. -1.
         23    2    1    2    0    0  0.57024127625E+03 -0.71578470798E+03 -0.13064282719E+04  0.15975616564E+04  0.89025587016E+02 0.  0.
         13    1    3    3    0    0  0.25180737500E+03 -0.34925714575E+03 -0.68264251486E+03  0.80708630954E+03  0.00000000000E+00 0.  1.
        -13    1    3    3    0    0  0.31843390125E+03 -0.36652756223E+03 -0.62378575707E+03  0.79047534690E+03  0.00000000000E+00 0. -1.
         22    1    1    2    0    0 -0.57024127625E+03  0.71578470798E+03  0.23984423515E+03  0.94606982747E+03  0.00000000000E+00 0.  1.
<mgrwt>
<rscale>  0 0.23092119E+04</rscale>
<asrwt>0</asrwt>
<pdfrwt beam="1">  1        1 0.27770888E+00 0.23092119E+04</pdfrwt>
<pdfrwt beam="2">  1       -1 0.11361904E+00 0.23092119E+04</pdfrwt>
<totfact> 0.25788622E+00</totfact>
</mgrwt>
</event>
<event>
 6    1  0.1773638E-005  0.9523083E+03  0.7818608E-02  0.9362457E-01
         -2   -1    0    0    0  501 -0.00000000000E+00  0.00000000000E+00  0.14100867184E+03  0.14100867184E+03  0.00000000000E+00 0.  1.
          2   -1    0    0  501    0  0.00000000000E+00 -0.00000000000E+00 -0.16078639034E+04  0.16078639034E+04  0.00000000000E+00 0. -1.
         23    2    1    2    0    0  0.40003335626E+03  0.97738534005E+02 -0.11627421465E+04  0.12369504369E+04  0.92182303442E+02 0.  0.
         11    1    3    3    0    0  0.28318802527E+03  0.92373953845E+02 -0.92880180505E+03  0.97539796907E+03  0.00000000000E+00 0. -1.
        -11    1    3    3    0    0  0.11684533099E+03  0.53645801593E+01 -0.23394034145E+03  0.26155246787E+03  0.00000000000E+00 0.  1.
         22    1    1    2    0    0 -0.40003335626E+03 -0.97738534005E+02 -0.30411308501E+03  0.51192213825E+03  0.00000000000E+00 0.  1.
<mgrwt>
<rscale>  0 0.95230826E+03</rscale>
<asrwt>0</asrwt>
<pdfrwt beam="1">  1        2 0.24736367E+00 0.95230826E+03</pdfrwt>
<pdfrwt beam="2">  1       -2 0.21693643E-01 0.95230826E+03</pdfrwt>
<totfact> 0.20452564E+02</totfact>
</mgrwt>
</event>
<event>
 6    1  0.1773638E-005  0.7569332E+03  0.7818608E-02  0.9624536E-01
          1   -1    0    0  501    0  0.00000000000E+00  0.00000000000E+00  0.69569532556E+03  0.69569532556E+03  0.00000000000E+00 0. -1.
         -1   -1    0    0    0  501 -0.00000000000E+00 -0.00000000000E+00 -0.20589036291E+03  0.20589036291E+03  0.00000000000E+00 0.  1.
         23    2    1    2    0    0 -0.20151757911E+03 -0.22679864138E+03 -0.13088482783E+02  0.31426228874E+03  0.80885841270E+02 0.  0.
         13    1    3    3    0    0 -0.14545389385E+03 -0.10447704105E+03 -0.14758483498E+02  0.17969446340E+03  0.00000000000E+00 0. -1.
        -13    1    3    3    0    0 -0.56063685259E+02 -0.12232160033E+03  0.16700007151E+01  0.13456782533E+03  0.00000000000E+00 0.  1.
         22    1    1    2    0    0  0.20151757911E+03  0.22679864138E+03  0.50289344543E+03  0.58732339974E+03  0.00000000000E+00 0. -1.
<mgrwt>
<rscale>  0 0.75693319E+03</rscale>
<asrwt>0</asrwt>
<pdfrwt beam="1">  1        1 0.10703005E+00 0.75693319E+03</pdfrwt>
<pdfrwt beam="2">  1       -1 0.31675441E-01 0.75693319E+03</pdfrwt>
<totfact> 0.25772222E+02</totfact>
</mgrwt>
</event>
<event>
 6    1  0.1773638E-005  0.4532630E+04  0.7818608E-02  0.7904949E-01
         -1   -1    0    0    0  501 -0.00000000000E+00  0.00000000000E+00  0.22706667200E+04  0.22706667200E+04  0.00000000000E+00 0.  1.
          1   -1    0    0  501    0  0.00000000000E+00 -0.00000000000E+00 -0.22619715579E+04  0.22619715579E+04  0.00000000000E+00 0. -1.
         23    2    1    2    0    0 -0.59046589666E+03 -0.14146004594E+04  0.16724664867E+04  0.22703652053E+04  0.87576145522E+02 0.  0.
         13    1    3    3    0    0 -0.13124979632E+03 -0.24882269689E+03  0.34078676075E+03  0.44189915119E+03  0.00000000000E+00 0.  1.
        -13    1    3    3    0    0 -0.45921610033E+03 -0.11657777625E+04  0.13316797260E+04  0.18284660541E+04  0.00000000000E+00 0. -1.
         22    1    1    2    0    0  0.59046589666E+03  0.14146004594E+04 -0.16637713246E+04  0.22622730727E+04  0.00000000000E+00 0. -1.
<mgrwt>
<rscale>  0 0.45326299E+04</rscale>
<asrwt>0</asrwt>
<pdfrwt beam="1">  1        1 0.34799562E+00 0.45326299E+04</pdfrwt>
<pdfrwt beam="2">  1       -1 0.34933334E+00 0.45326299E+04</pdfrwt>
<totfact> 0.23246220E-02</totfact>
</mgrwt>
</event>
<event>
 6    1  0.1773638E-005  0.1331333E+04  0.7818608E-02  0.9005080E-01
          2   -1    0    0  501    0  0.00000000000E+00  0.00000000000E+00  0.21113010899E+04  0.21113010899E+04  0.00000000000E+00 0. -1.
         -2   -1    0    0    0  501 -0.00000000000E+00 -0.00000000000E+00 -0.20987630973E+03  0.20987630973E+03  0.00000000000E+00 0.  1.
         23    2    1    2    0    0  0.19522444132E+03  0.62818502749E+03  0.81490707372E+03  0.10510397151E+04  0.88780249266E+02 0.  0.
         13    1    3    3    0    0  0.10541961009E+03  0.39713355397E+03  0.44429510085E+03  0.60516649818E+03  0.00000000000E+00 0.  1.
        -13    1    3    3    0    0  0.89804831224E+02  0.23105147352E+03  0.37061197288E+03  0.44587321692E+03  0.00000000000E+00 0. -1.
         22    1    1    2    0    0 -0.19522444132E+03 -0.62818502749E+03  0.10865177064E+04  0.12701376845E+04  0.00000000000E+00 0.  1.
<mgrwt>
<rscale>  0 0.13313333E+04</rscale>
<asrwt>0</asrwt>
<pdfrwt beam="1">  1        2 0.32481554E+00 0.13313333E+04</pdfrwt>
<pdfrwt beam="2">  1       -2 0.32288665E-01 0.13313333E+04</pdfrwt>
<totfact> 0.50654635E+01</totfact>
</mgrwt>
</event>
<event>
 6    1  0.1773638E-005  0.2411270E+04  0.7818608E-02  0.8435296E-01
          2   -1    0    0  501    0  0.00000000000E+00  0.00000000000E+00  0.28067873558E+04  0.28067873558E+04  0.00000000000E+00 0. -1.
         -2   -1    0    0    0  501 -0.00000000000E+00 -0.00000000000E+00 -0.51787164653E+03  0.51787164653E+03  0.00000000000E+00 0.  1.
         23    2    1    2    0    0  0.82527365769E+03  0.82404421133E+02 -0.57086867462E+02  0.83636738182E+03  0.91566305077E+02 0.  0.
         11    1    3    3    0    0  0.16038807744E+03  0.32343984345E+02 -0.44173022688E+02  0.16947484958E+03  0.00000000000E+00 0. -1.
        -11    1    3    3    0    0  0.66488558026E+03  0.50060436788E+02 -0.12913844774E+02  0.66689253224E+03  0.00000000000E+00 0.  1.
         22    1    1    2    0    0 -0.82527365769E+03 -0.82404421133E+02  0.23460025768E+04  0.24882916205E+04  0.00000000000E+00 0. -1.
<mgrwt>
<rscale>  0 0.24112699E+04</rscale>
<asrwt>0</asrwt>
<pdfrwt beam="1">  1        2 0.43181343E+00 0.24112699E+04</pdfrwt>
<pdfrwt beam="2">  1       -2 0.79672563E-01 0.24112699E+04</pdfrwt>
<totfact> 0.28713496E+00</totfact>
</mgrwt>
</event>
<event>
 6    1  0.1773638E-005  0.8018464E+03  0.7818608E-02  0.9557348E-01
         -1   -1    0    0    0  501 -0.00000000000E+00  0.00000000000E+00  0.35647162537E+03  0.35647162537E+03  0.00000000000E+00 0.  1.
          1   -1    0    0  501    0  0.00000000000E+00 -0.00000000000E+00 -0.45091786944E+03  0.45091786944E+03  0.00000000000E+00 0. -1.
         23    2    1    2    0    0 -0.14650127721E+03 -0.31505922983E+03 -0.23816546707E+03  0.43138396615E+03  0.92975233413E+02 0.  0.
         13    1    3    3    0    0 -0.77812888613E+02 -0.25888159452E+03 -0.16816454203E+03  0.31836117667E+03  0.00000000000E+00 0. -1.
        -13    1    3    3    0    0 -0.68688388593E+02 -0.56177635310E+02 -0.70000925041E+02  0.11302278949E+03  0.00000000000E+00 0.  1.
         22    1    1    2    0    0  0.14650127721E+03  0.31505922983E+03  0.14371922299E+03  0.37600552866E+03  0.00000000000E+00 0.  1.
<mgrwt>
<rscale>  0 0.80184643E+03</rscale>
<asrwt>0</asrwt>
<pdfrwt beam="1">  1        1 0.69371980E-01 0.80184643E+03</pdfrwt>
<pdfrwt beam="2">  1       -1 0.54841789E-01 0.80184643E+03</pdfrwt>
<totfact> 0.17358337E+02</totfact>
</mgrwt>
</event>
<event>
 6    1  0.1773638E-005  0.1992346E+04  0.7818608E-02  0.8610208E-01
         -2   -1    0    0    0  501 -0.00000000000E+00  0.00000000000E+00  0.34110908630E+03  0.34110908630E+03  0.00000000000E+00 0. -1.
          2   -1    0    0  501    0  0.00000000000E+00 -0.00000000000E+00 -0.29092178237E+04  0.29092178237E+04  0.00000000000E+00 0.  1.
         23    2    1    2    0    0  0.28831284481E+03  0.24374528419E+03 -0.27870475541E+04  0.28138979174E+04  0.88607902874E+02 0.  0.
         11    1    3    3    0    0  0.36251262674E+02 -0.33821875133E+00 -0.31333824333E+03  0.31542847552E+03  0.00000000000E+00 0. -1.
        -11    1    3    3    0    0  0.25206158213E+03  0.24408350294E+03 -0.24737093108E+04  0.24984694419E+04  0.00000000000E+00 0.  1.
         22    1    1    2    0    0 -0.28831284481E+03 -0.24374528419E+03  0.21893881679E+03  0.43642899255E+03  0.00000000000E+00 0. -1.
<mgrwt>
<rscale>  0 0.19923460E+04</rscale>
<asrwt>0</asrwt>
<pdfrwt beam="1">  1        2 0.44757198E+00 0.19923460E+04</pdfrwt>
<pdfrwt beam="2">  1       -2 0.52478320E-01 0.19923460E+04</pdfrwt>
<totfact> 0.63291741E+00</totfact>
</mgrwt>
</event>
<event>
 6    1  0.1773638E-005  0.3900342E+04  0.7818608E-02  0.8024958E-01
          2   -1    0    0  501    0  0.00000000000E+00  0.00000000000E+00  0.31904392854E+04  0.31904392854E+04  0.00000000000E+00 0. -1.
         -2   -1    0    0    0  501 -0.00000000000E+00 -0.00000000000E+00 -0.11920510479E+04  0.11920510479E+04  0.00000000000E+00 0.  1.
         23    2    1    2    0    0 -0.17473864358E+04 -0.39659677348E+03  0.18614942136E+04  0.25854404368E+04  0.93237268437E+02 0.  0.
         11    1    3    3    0    0 -0.34692317420E+03 -0.64282558373E+02  0.31833674571E+03  0.47521176309E+03  0.00000000000E+00 0.  1.
        -11    1    3    3    0    0 -0.14004632616E+04 -0.33231421510E+03  0.15431574679E+04  0.21102286737E+04  0.00000000000E+00 0. -1.
         22    1    1    2    0    0  0.17473864358E+04  0.39659677348E+03  0.13689402389E+03  0.17970498965E+04  0.00000000000E+00 0.  1.
<mgrwt>
<rscale>  0 0.39003418E+04</rscale>
<asrwt>0</asrwt>
<pdfrwt beam="1">  1        2 0.49083681E+00 0.39003418E+04</pdfrwt>
<pdfrwt beam="2">  1       -2 0.18339247E+00 0.39003418E+04</pdfrwt>
<totfact> 0.17959368E-01</totfact>
</mgrwt>
</event>
<event>
 6    1  0.1773638E-005  0.3272156E+04  0.7818608E-02  0.8170017E-01
          2   -1    0    0  501    0  0.00000000000E+00  0.00000000000E+00  0.21185836999E+04  0.21185836999E+04  0.00000000000E+00 0. -1.
         -2   -1    0    0    0  501 -0.00000000000E+00 -0.00000000000E+00 -0.12634627022E+04  0.12634627022E+04  0.00000000000E+00 0.  1.
         23    2    1    2    0    0 -0.13560469061E+04  0.79150401286E+03 -0.42625152313E+02  0.15733756295E+04  0.91390119311E+02 0.  0.
         11    1    3    3    0    0 -0.54429120674E+03  0.32216164965E+03  0.27492578619E+02  0.63308521395E+03  0.00000000000E+00 0. -1.
        -11    1    3    3    0    0 -0.81175569940E+03  0.46934236320E+03 -0.70117730932E+02  0.94029041556E+03  0.00000000000E+00 0.  1.
         22    1    1    2    0    0  0.13560469061E+04 -0.79150401286E+03  0.89774615000E+03  0.18086707727E+04  0.00000000000E+00 0. -1.
<mgrwt>
<rscale>  0 0.32721562E+04</rscale>
<asrwt>0</asrwt>
<pdfrwt beam="1">  1        2 0.32593596E+00 0.32721562E+04</pdfrwt>
<pdfrwt beam="2">  1       -2 0.19437888E+00 0.32721562E+04</pdfrwt>
<totfact> 0.69584425E-01</totfact>
</mgrwt>
</event>
<event>
 6    1  0.1773638E-005  0.2354143E+04  0.7818608E-02  0.8456874E-01
         -2   -1    0    0    0  501 -0.00000000000E+00  0.00000000000E+00  0.49685426757E+03  0.49685426757E+03  0.00000000000E+00 0.  1.
          2   -1    0    0  501    0  0.00000000000E+00 -0.00000000000E+00 -0.27885380305E+04  0.27885380305E+04  0.00000000000E+00 0. -1.
         23    2    1    2    0    0 -0.10426304848E+04 -0.50275254798E+03 -0.14313196557E+04  0.18431493056E+04  0.93193098684E+02 0.  0.
         11    1    3    3    0    0 -0.59648073522E+03 -0.23892439361E+03 -0.76853440522E+03  0.10017580872E+04  0.00000000000E+00 0. -1.
        -11    1    3    3    0    0 -0.44614974955E+03 -0.26382815437E+03 -0.66278525049E+03  0.84139121836E+03  0.00000000000E+00 0.  1.
         22    1    1    2    0    0  0.10426304848E+04  0.50275254798E+03 -0.86036410719E+03  0.14422429924E+04  0.00000000000E+00 0. -1.
<mgrwt>
<rscale>  0 0.23541427E+04</rscale>
<asrwt>0</asrwt>
<pdfrwt beam="1">  1        2 0.42900584E+00 0.23541427E+04</pdfrwt>
<pdfrwt beam="2">  1       -2 0.76439120E-01 0.23541427E+04</pdfrwt>
<totfact> 0.32470677E+00</totfact>
</mgrwt>
</event>
<event>
 6    1  0.1773638E-005  0.2541521E+04  0.7818608E-02  0.8388341E-01
          1   -1    0    0  501    0  0.00000000000E+00  0.00000000000E+00  0.19425400462E+04  0.19425400462E+04  0.00000000000E+00 0. -1.
         -1   -1    0    0    0  501 -0.00000000000E+00 -0.00000000000E+00 -0.83129924840E+03  0.83129924840E+03  0.00000000000E+00 0.  1.
         23    2    1    2    0    0  0.42679686480E+03  0.29879390260E+03 -0.70659243339E+03  0.88282078162E+03  0.93092993832E+02 0.  0.
         13    1    3    3    0    0  0.14917415159E+03  0.72667142444E+02 -0.16851722296E+03  0.23649840491E+03  0.00000000000E+00 0. -1.
        -13    1    3    3    0    0  0.27762271322E+03  0.22612676016E+03 -0.53807521043E+03  0.64632237671E+03  0.00000000000E+00 0.  1.
         22    1    1    2    0    0 -0.42679686480E+03 -0.29879390260E+03  0.18178332312E+04  0.18910185130E+04  0.00000000000E+00 0. -1.
<mgrwt>
<rscale>  0 0.25415209E+04</rscale>
<asrwt>0</asrwt>
<pdfrwt beam="1">  1        1 0.29885231E+00 0.25415209E+04</pdfrwt>
<pdfrwt beam="2">  1       -1 0.12789219E+00 0.25415209E+04</pdfrwt>
<totfact> 0.15248947E+00</totfact>
</mgrwt>
</event>
<event>
 6    1  0.1773638E-005  0.3886085E+04  0.7818608E-02  0.8027929E-01
         -2   -1    0    0    0  501 -0.00000000000E+00  0.00000000000E+00  0.16409401831E+04  0.16409401831E+04  0.00000000000E+00 0.  1.
          2   -1    0    0  501    0  0.00000000000E+00 -0.00000000000E+00 -0.23007630818E+04  0.23007630818E+04  0.00000000000E+00 0. -1.
         23    2    1    2    0    0  0.19363678526E+04  0.14240141908E+03 -0.29151258203E+03  0.19654818416E+04  0.91327211310E+02 0.  0.
         11    1    3    3    0    0  0.17956741737E+04  0.11223672543E+03 -0.25627137867E+03  0.18173381194E+04  0.00000000000E+00 0. -1.
        -11    1    3    3    0    0  0.14069367891E+03  0.30164693650E+02 -0.35241203361E+02  0.14814372225E+03  0.00000000000E+00 0.  1.
         22    1    1    2    0    0 -0.19363678526E+04 -0.14240141908E+03 -0.36831031661E+03  0.19762214233E+04  0.00000000000E+00 0. -1.
<mgrwt>
<rscale>  0 0.38860852E+04</rscale>
<asrwt>0</asrwt>
<pdfrwt beam="1">  1        2 0.35396355E+00 0.38860852E+04</pdfrwt>
<pdfrwt beam="2">  1       -2 0.25245234E+00 0.38860852E+04</pdfrwt>
<totfact> 0.22383012E-01</totfact>
</mgrwt>
</event>
<event>
 6    1  0.1773638E-005  0.7774517E+03  0.7818608E-02  0.9593241E-01
         -1   -1    0    0    0  501 -0.00000000000E+00  0.00000000000E+00  0.21078903021E+03  0.21078903021E+03  0.00000000000E+00 0.  1.
          1   -1    0    0  501    0  0.00000000000E+00 -0.00000000000E+00 -0.71686737822E+03  0.71686737822E+03  0.00000000000E+00 0. -1.
         23    2    1    2    0    0 -0.34799196463E+03  0.80143741822E+02 -0.42291296429E+03  0.56099865541E+03  0.91338322777E+02 0.  0.
         11    1    3    3    0    0 -0.80342031539E+01  0.17102830679E+02 -0.70277578702E+01  0.20160471677E+02  0.00000000000E+00 0.  1.
        -11    1    3    3    0    0 -0.33995776148E+03  0.63040911143E+02 -0.41588520642E+03  0.54083818373E+03  0.00000000000E+00 0. -1.
         22    1    1    2    0    0  0.34799196463E+03 -0.80143741822E+02 -0.83165383722E+02  0.36665775302E+03  0.00000000000E+00 0.  1.
<mgrwt>
<rscale>  0 0.77745168E+03</rscale>
<asrwt>0</asrwt>
<pdfrwt beam="1">  1        1 0.11028729E+00 0.77745168E+03</pdfrwt>
<pdfrwt beam="2">  1       -1 0.32429082E-01 0.77745168E+03</pdfrwt>
<totfact> 0.23603653E+02</totfact>
</mgrwt>
</event>
<event>
 6    1  0.1773638E-005  0.3100965E+04  0.7818608E-02  0.8215473E-01
          1   -1    0    0  501    0  0.00000000000E+00  0.00000000000E+00  0.16814328644E+04  0.16814328644E+04  0.00000000000E+00 0. -1.
         -1   -1    0    0    0  501 -0.00000000000E+00 -0.00000000000E+00 -0.14297306342E+04  0.14297306342E+04  0.00000000000E+00 0.  1.
         23    2    1    2    0    0 -0.97380344618E+03  0.12464991048E+03 -0.10762747325E+04  0.14596933762E+04  0.92231778227E+02 0.  0.
         11    1    3    3    0    0 -0.85449715388E+03  0.11166259225E+03 -0.89632097623E+03  0.12433926222E+04  0.00000000000E+00 0.  1.
        -11    1    3    3    0    0 -0.11930629230E+03  0.12987318230E+02 -0.17995375623E+03  0.21630075404E+03  0.00000000000E+00 0. -1.
         22    1    1    2    0    0  0.97380344618E+03 -0.12464991048E+03  0.13279769626E+04  0.16514701224E+04  0.00000000000E+00 0. -1.
<mgrwt>
<rscale>  0 0.31009651E+04</rscale>
<asrwt>0</asrwt>
<pdfrwt beam="1">  1        1 0.25868198E+00 0.31009651E+04</pdfrwt>
<pdfrwt beam="2">  1       -1 0.21995856E+00 0.31009651E+04</pdfrwt>
<totfact> 0.45598172E-01</totfact>
</mgrwt>
</event>
<event>
 6    1  0.1773638E-005  0.1013311E+04  0.7818608E-02  0.9294065E-01
          1   -1    0    0  501    0  0.00000000000E+00  0.00000000000E+00  0.17373944814E+04  0.17373944814E+04  0.00000000000E+00 0. -1.
         -1   -1    0    0    0  501 -0.00000000000E+00 -0.00000000000E+00 -0.14774988030E+03  0.14774988030E+03  0.00000000000E+00 0.  1.
         23    2    1    2    0    0 -0.40901885405E+03  0.96301009646E+02  0.13136388448E+04  0.13824023951E+04  0.93909850757E+02 0.  0.
         11    1    3    3    0    0 -0.30879314260E+03  0.10798812474E+03  0.10635876497E+04  0.11127593309E+04  0.00000000000E+00 0.  1.
        -11    1    3    3    0    0 -0.10022571145E+03 -0.11687115093E+02  0.25005119509E+03  0.26964306418E+03  0.00000000000E+00 0. -1.
         22    1    1    2    0    0  0.40901885405E+03 -0.96301009646E+02  0.27600575627E+03  0.50274196654E+03  0.00000000000E+00 0.  1.
<mgrwt>
<rscale>  0 0.10133111E+04</rscale>
<asrwt>0</asrwt>
<pdfrwt beam="1">  1        1 0.26729144E+00 0.10133111E+04</pdfrwt>
<pdfrwt beam="2">  1       -1 0.22730752E-01 0.10133111E+04</pdfrwt>
<totfact> 0.74324269E+01</totfact>
</mgrwt>
</event>
<event>
 6    1  0.1773638E-005  0.1952924E+04  0.7818608E-02  0.8628952E-01
         -1   -1    0    0    0  501 -0.00000000000E+00  0.00000000000E+00  0.51896222147E+03  0.51896222147E+03  0.00000000000E+00 0.  1.
          1   -1    0    0  501    0  0.00000000000E+00 -0.00000000000E+00 -0.18372786981E+04  0.18372786981E+04  0.00000000000E+00 0. -1.
         23    2    1    2    0    0 -0.47913451303E+03 -0.12691940128E+03 -0.16727442064E+04  0.17468991176E+04  0.88909678052E+02 0.  0.
         13    1    3    3    0    0 -0.27991642594E+03 -0.89577881542E+02 -0.84321074671E+03  0.89296235405E+03  0.00000000000E+00 0.  1.
        -13    1    3    3    0    0 -0.19921808709E+03 -0.37341519743E+02 -0.82953345970E+03  0.85393676351E+03  0.00000000000E+00 0. -1.
         22    1    1    2    0    0  0.47913451303E+03  0.12691940128E+03  0.35442772980E+03  0.60934180199E+03  0.00000000000E+00 0.  1.
<mgrwt>
<rscale>  0 0.19529242E+04</rscale>
<asrwt>0</asrwt>
<pdfrwt beam="1">  1        1 0.28265826E+00 0.19529242E+04</pdfrwt>
<pdfrwt beam="2">  1       -1 0.79840341E-01 0.19529242E+04</pdfrwt>
<totfact> 0.56069366E+00</totfact>
</mgrwt>
</event>
<event>
 6    1  0.1773638E-005  0.2482658E+04  0.7818608E-02  0.8409190E-01
         -2   -1    0    0    0  501 -0.00000000000E+00  0.00000000000E+00  0.88145318335E+03  0.88145318335E+03  0.00000000000E+00 0.  1.
          2   -1    0    0  501    0  0.00000000000E+00 -0.00000000000E+00 -0.17481332578E+04  0.17481332578E+04  0.00000000000E+00 0. -1.
         23    2    1    2    0    0 -0.11910424377E+04  0.30416615781E+03 -0.26211376263E+03  0.12596960932E+04  0.83853937198E+02 0.  0.
         13    1    3    3    0    0 -0.62616601107E+03  0.20293945723E+03 -0.13658582548E+03  0.67225291702E+03  0.00000000000E+00 0. -1.
        -13    1    3    3    0    0 -0.56487642661E+03  0.10122670058E+03 -0.12552793715E+03  0.58744317619E+03  0.00000000000E+00 0.  1.
         22    1    1    2    0    0  0.11910424377E+04 -0.30416615781E+03 -0.60456631177E+03  0.13698903479E+04  0.00000000000E+00 0. -1.
<mgrwt>
<rscale>  0 0.24826580E+04</rscale>
<asrwt>0</asrwt>
<pdfrwt beam="1">  1        2 0.26894357E+00 0.24826580E+04</pdfrwt>
<pdfrwt beam="2">  1       -2 0.13560818E+00 0.24826580E+04</pdfrwt>
<totfact> 0.32122536E+00</totfact>
</mgrwt>
</event>
<event>
 6    1  0.1773638E-005  0.3730220E+04  0.7818608E-02  0.8061298E-01
          2   -1    0    0  501    0  0.00000000000E+00  0.00000000000E+00  0.43487910500E+04  0.43487910500E+04  0.00000000000E+00 0. -1.
         -2   -1    0    0    0  501 -0.00000000000E+00 -0.00000000000E+00 -0.79990848246E+03  0.79990848246E+03  0.00000000000E+00 0.  1.
         23    2    1    2    0    0  0.75972411922E+03 -0.15893441737E+04  0.26165910396E+04  0.31556207250E+04  0.90541987245E+02 0.  0.
         11    1    3    3    0    0  0.56243759600E+03 -0.12479594208E+04  0.19917657072E+04  0.24167890677E+04  0.00000000000E+00 0. -1.
        -11    1    3    3    0    0  0.19728652322E+03 -0.34138475289E+03  0.62482533247E+03  0.73883165731E+03  0.00000000000E+00 0.  1.
         22    1    1    2    0    0 -0.75972411922E+03  0.15893441737E+04  0.93229152794E+03  0.19930788075E+04  0.00000000000E+00 0.  1.
<mgrwt>
<rscale>  0 0.37302198E+04</rscale>
<asrwt>0</asrwt>
<pdfrwt beam="1">  1        2 0.66904476E+00 0.37302198E+04</pdfrwt>
<pdfrwt beam="2">  1       -2 0.12306285E+00 0.37302198E+04</pdfrwt>
<totfact> 0.68511270E-02</totfact>
</mgrwt>
</event>
<event>
 6    1  0.1773638E-005  0.3216639E+04  0.7818608E-02  0.8184437E-01
         -1   -1    0    0    0  501 -0.00000000000E+00  0.00000000000E+00  0.12263577435E+04  0.12263577435E+04  0.00000000000E+00 0.  1.
          1   -1    0    0  501    0  0.00000000000E+00 -0.00000000000E+00 -0.21092474281E+04  0.21092474281E+04  0.00000000000E+00 0. -1.
         23    2    1    2    0    0 -0.33163973048E+03 -0.12041181176E+04  0.60691158177E+03  0.13915390294E+04  0.90298673006E+02 0.  0.
         11    1    3    3    0    0 -0.15340596031E+03 -0.47038342564E+03  0.19859748928E+03  0.53313686660E+03  0.00000000000E+00 0. -1.
        -11    1    3    3    0    0 -0.17823377017E+03 -0.73373469194E+03  0.40831409249E+03  0.85840216281E+03  0.00000000000E+00 0.  1.
         22    1    1    2    0    0  0.33163973048E+03  0.12041181176E+04 -0.14898012664E+04  0.19440661422E+04  0.00000000000E+00 0. -1.
<mgrwt>
<rscale>  0 0.32166392E+04</rscale>
<asrwt>0</asrwt>
<pdfrwt beam="1">  1        1 0.32449960E+00 0.32166392E+04</pdfrwt>
<pdfrwt beam="2">  1       -1 0.18867042E+00 0.32166392E+04</pdfrwt>
<totfact> 0.37888077E-01</totfact>
</mgrwt>
</event>
<event>
 6    1  0.1773638E-005  0.2433343E+04  0.7818608E-02  0.8427125E-01
         -1   -1    0    0    0  501 -0.00000000000E+00  0.00000000000E+00  0.66801555888E+03  0.66801555888E+03  0.00000000000E+00 0.  1.
          1   -1    0    0  501    0  0.00000000000E+00 -0.00000000000E+00 -0.22159502636E+04  0.22159502636E+04  0.00000000000E+00 0. -1.
         23    2    1    2    0    0 -0.64528489396E+03 -0.65755763703E+02 -0.19926405253E+04  0.20975310307E+04  0.91124896383E+02 0.  0.
         11    1    3    3    0    0 -0.44386339887E+03 -0.14364217463E+02 -0.12600560919E+04  0.13360248509E+04  0.00000000000E+00 0.  1.
        -11    1    3    3    0    0 -0.20142149509E+03 -0.51391546240E+02 -0.73258443347E+03  0.76150617980E+03  0.00000000000E+00 0. -1.
         22    1    1    2    0    0  0.64528489396E+03  0.65755763703E+02  0.44470582061E+03  0.78643479178E+03  0.00000000000E+00 0.  1.
<mgrwt>
<rscale>  0 0.24333428E+04</rscale>
<asrwt>0</asrwt>
<pdfrwt beam="1">  1        1 0.34091543E+00 0.24333428E+04</pdfrwt>
<pdfrwt beam="2">  1       -1 0.10277162E+00 0.24333428E+04</pdfrwt>
<totfact> 0.16984456E+00</totfact>
</mgrwt>
</event>
<event>
 6    1  0.1773638E-005  0.3016794E+03  0.7818608E-02  0.1084404E+00
          1   -1    0    0  501    0  0.00000000000E+00  0.00000000000E+00  0.11711064678E+04  0.11711064678E+04  0.00000000000E+00 0. -1.
         -1   -1    0    0    0  501 -0.00000000000E+00 -0.00000000000E+00 -0.19428303017E+02  0.19428303017E+02  0.00000000000E+00 0.  1.
         23    2    1    2    0    0 -0.12130023804E+03  0.36887401351E+02  0.41653207277E+03  0.44453597408E+03  0.89659558773E+02 0.  0.
         13    1    3    3    0    0  0.98058583658E+01  0.20560532096E+02  0.73114396487E+02  0.76580711097E+02  0.00000000000E+00 0.  1.
        -13    1    3    3    0    0 -0.13110609641E+03  0.16326869255E+02  0.34341767628E+03  0.36795526298E+03  0.00000000000E+00 0. -1.
         22    1    1    2    0    0  0.12130023804E+03 -0.36887401351E+02  0.73514609204E+03  0.74599879676E+03  0.00000000000E+00 0. -1.
<mgrwt>
<rscale>  0 0.30167937E+03</rscale>
<asrwt>0</asrwt>
<pdfrwt beam="1">  1        1 0.18017017E+00 0.30167937E+03</pdfrwt>
<pdfrwt beam="2">  1       -1 0.29889706E-02 0.30167937E+03</pdfrwt>
<totfact> 0.45590066E+03</totfact>
</mgrwt>
</event>
<event>
 6    1  0.1773638E-005  0.1962523E+04  0.7818608E-02  0.8624345E-01
          2   -1    0    0  501    0  0.00000000000E+00  0.00000000000E+00  0.87265093841E+03  0.87265093841E+03  0.00000000000E+00 0. -1.
         -2   -1    0    0    0  501 -0.00000000000E+00 -0.00000000000E+00 -0.11033903384E+04  0.11033903384E+04  0.00000000000E+00 0.  1.
         23    2    1    2    0    0 -0.86577050736E+02  0.85235288412E+03  0.36183674212E+03  0.93433713983E+03  0.89772145670E+02 0.  0.
         13    1    3    3    0    0 -0.97333813406E+02  0.67153024242E+03  0.26094776803E+03  0.72699413708E+03  0.00000000000E+00 0.  1.
        -13    1    3    3    0    0  0.10756762670E+02  0.18082264170E+03  0.10088897410E+03  0.20734300275E+03  0.00000000000E+00 0. -1.
         22    1    1    2    0    0  0.86577050736E+02 -0.85235288412E+03 -0.59257614209E+03  0.10417041370E+04  0.00000000000E+00 0.  1.
<mgrwt>
<rscale>  0 0.19625235E+04</rscale>
<asrwt>0</asrwt>
<pdfrwt beam="1">  1        2 0.13425399E+00 0.19625235E+04</pdfrwt>
<pdfrwt beam="2">  1       -2 0.16975236E+00 0.19625235E+04</pdfrwt>
<totfact> 0.61021687E+00</totfact>
</mgrwt>
</event>
<event>
 6    1  0.1773638E-005  0.1629063E+04  0.7818608E-02  0.8802890E-01
          2   -1    0    0  501    0  0.00000000000E+00  0.00000000000E+00  0.62529267260E+03  0.62529267260E+03  0.00000000000E+00 0. -1.
         -2   -1    0    0    0  501 -0.00000000000E+00 -0.00000000000E+00 -0.10610419122E+04  0.10610419122E+04  0.00000000000E+00 0.  1.
         23    2    1    2    0    0 -0.42484164751E+03  0.15421374832E+03 -0.91677259236E+03  0.10262923351E+04  0.92367013969E+02 0.  0.
         13    1    3    3    0    0 -0.19881565216E+03  0.58987941085E+02 -0.52006716380E+03  0.55989025318E+03  0.00000000000E+00 0.  1.
        -13    1    3    3    0    0 -0.22602599534E+03  0.95225807240E+02 -0.39670542856E+03  0.46640208188E+03  0.00000000000E+00 0. -1.
         22    1    1    2    0    0  0.42484164751E+03 -0.15421374832E+03  0.48102335272E+03  0.66004224978E+03  0.00000000000E+00 0. -1.
<mgrwt>
<rscale>  0 0.16290632E+04</rscale>
<asrwt>0</asrwt>
<pdfrwt beam="1">  1        2 0.96198873E-01 0.16290632E+04</pdfrwt>
<pdfrwt beam="2">  1       -2 0.16323722E+00 0.16290632E+04</pdfrwt>
<totfact> 0.10751757E+01</totfact>
</mgrwt>
</event>
<event>
 6    1  0.1773638E-005  0.8410414E+03  0.7818608E-02  0.9502440E-01
          2   -1    0    0  501    0  0.00000000000E+00  0.00000000000E+00  0.11289065354E+04  0.11289065354E+04  0.00000000000E+00 0. -1.
         -2   -1    0    0    0  501 -0.00000000000E+00 -0.00000000000E+00 -0.15664507644E+03  0.15664507644E+03  0.00000000000E+00 0.  1.
         23    2    1    2    0    0 -0.29420888632E+02 -0.23510122462E+03 -0.30165593970E+02  0.25550395713E+03  0.90742132131E+02 0.  0.
         13    1    3    3    0    0  0.30902821369E+01 -0.21583357364E+03 -0.27795421753E+02  0.21763792598E+03  0.00000000000E+00 0.  1.
        -13    1    3    3    0    0 -0.32511170769E+02 -0.19267650988E+02 -0.23701722165E+01  0.37866031159E+02  0.00000000000E+00 0. -1.
         22    1    1    2    0    0  0.29420888632E+02  0.23510122462E+03  0.10024270529E+04  0.10300476547E+04  0.00000000000E+00 0. -1.
<mgrwt>
<rscale>  0 0.84104138E+03</rscale>
<asrwt>0</asrwt>
<pdfrwt beam="1">  1        2 0.17367792E+00 0.84104138E+03</pdfrwt>
<pdfrwt beam="2">  1       -2 0.24099243E-01 0.84104138E+03</pdfrwt>
<totfact> 0.32155906E+02</totfact>
</mgrwt>
</event>
<event>
 6    1  0.1773638E-005  0.1929652E+04  0.7818608E-02  0.8640236E-01
         -1   -1    0    0    0  501 -0.00000000000E+00  0.00000000000E+00  0.16095915532E+04  0.16095915532E+04  0.00000000000E+00 0.  1.
          1   -1    0    0  501    0  0.00000000000E+00 -0.00000000000E+00 -0.57833883995E+03  0.57833883995E+03  0.00000000000E+00 0. -1.
         23    2    1    2    0    0  0.40961937984E+03  0.27972855728E+03 -0.41872176414E+03  0.65546111543E+03  0.90913453253E+02 0.  0.
         13    1    3    3    0    0  0.19254312841E+03  0.13734343536E+03 -0.14124006140E+03  0.27547201397E+03  0.00000000000E+00 0.  1.
        -13    1    3    3    0    0  0.21707625143E+03  0.14238512192E+03 -0.27748170274E+03  0.37998910147E+03  0.00000000000E+00 0. -1.
         22    1    1    2    0    0 -0.40961937984E+03 -0.27972855728E+03  0.14499744774E+04  0.15324692778E+04  0.00000000000E+00 0.  1.
<mgrwt>
<rscale>  0 0.19296521E+04</rscale>
<asrwt>0</asrwt>
<pdfrwt beam="1">  1        1 0.88975207E-01 0.19296521E+04</pdfrwt>
<pdfrwt beam="2">  1       -1 0.24762947E+00 0.19296521E+04</pdfrwt>
<totfact> 0.24350790E+00</totfact>
</mgrwt>
</event>
<event>
 6    1  0.1773638E-005  0.1717399E+04  0.7818608E-02  0.8751503E-01
          1   -1    0    0  501    0  0.00000000000E+00  0.00000000000E+00  0.50224530519E+03  0.50224530519E+03  0.00000000000E+00 0. -1.
         -1   -1    0    0    0  501 -0.00000000000E+00 -0.00000000000E+00 -0.14681368443E+04  0.14681368443E+04  0.00000000000E+00 0.  1.
         23    2    1    2    0    0 -0.41757194633E+03 -0.14762744035E+03 -0.13251129418E+04  0.14001188703E+04  0.90820432848E+02 0.  0.
         13    1    3    3    0    0 -0.76899667369E+02 -0.54911291292E+02 -0.20609957051E+03  0.22672856397E+03  0.00000000000E+00 0.  1.
        -13    1    3    3    0    0 -0.34067227896E+03 -0.92716149062E+02 -0.11190133713E+04  0.11733903064E+04  0.00000000000E+00 0. -1.
         22    1    1    2    0    0  0.41757194633E+03  0.14762744035E+03  0.35922140264E+03  0.57026327922E+03  0.00000000000E+00 0. -1.
<mgrwt>
<rscale>  0 0.17173990E+04</rscale>
<asrwt>0</asrwt>
<pdfrwt beam="1">  1        1 0.77268509E-01 0.17173990E+04</pdfrwt>
<pdfrwt beam="2">  1       -1 0.22586720E+00 0.17173990E+04</pdfrwt>
<totfact> 0.42083682E+00</totfact>
</mgrwt>
</event>
<event>
 6    1  0.1773638E-005  0.1479905E+04  0.7818608E-02  0.8897927E-01
          2   -1    0    0  501    0  0.00000000000E+00  0.00000000000E+00  0.75103016980E+03  0.75103016980E+03  0.00000000000E+00 0. -1.
         -2   -1    0    0    0  501 -0.00000000000E+00 -0.00000000000E+00 -0.72903834422E+03  0.72903834422E+03  0.00000000000E+00 0.  1.
         23    2    1    2    0    0  0.63764925378E+03  0.27249432634E+03  0.26042185241E+03  0.74678916313E+03  0.94998864310E+02 0.  0.
         11    1    3    3    0    0  0.33319241161E+03  0.19012714897E+03  0.12418393892E+03  0.40322098980E+03  0.00000000000E+00 0.  1.
        -11    1    3    3    0    0  0.30445684217E+03  0.82367177370E+02  0.13623791349E+03  0.34356817333E+03  0.00000000000E+00 0. -1.
         22    1    1    2    0    0 -0.63764925378E+03 -0.27249432634E+03 -0.23843002683E+03  0.73327935088E+03  0.00000000000E+00 0. -1.
<mgrwt>
<rscale>  0 0.14799051E+04</rscale>
<asrwt>0</asrwt>
<pdfrwt beam="1">  1        2 0.11554310E+00 0.14799051E+04</pdfrwt>
<pdfrwt beam="2">  1       -2 0.11215975E+00 0.14799051E+04</pdfrwt>
<totfact> 0.22701853E+01</totfact>
</mgrwt>
</event>
<event>
 6    1  0.1773638E-005  0.2210285E+04  0.7818608E-02  0.8514159E-01
         -1   -1    0    0    0  501 -0.00000000000E+00  0.00000000000E+00  0.13577001010E+04  0.13577001010E+04  0.00000000000E+00 0.  1.
          1   -1    0    0  501    0  0.00000000000E+00 -0.00000000000E+00 -0.89956532245E+03  0.89956532245E+03  0.00000000000E+00 0. -1.
         23    2    1    2    0    0 -0.45855356957E+03 -0.13579945900E+03 -0.78584869264E+03  0.92452098214E+03  0.92021788034E+02 0.  0.
         13    1    3    3    0    0 -0.24277572251E+03 -0.11589753214E+03 -0.46855524493E+03  0.54029279743E+03  0.00000000000E+00 0. -1.
        -13    1    3    3    0    0 -0.21577784706E+03 -0.19901926856E+02 -0.31729344770E+03  0.38422818471E+03  0.00000000000E+00 0.  1.
         22    1    1    2    0    0  0.45855356957E+03  0.13579945900E+03  0.12439834712E+04  0.13327444413E+04  0.00000000000E+00 0.  1.
<mgrwt>
<rscale>  0 0.22102850E+04</rscale>
<asrwt>0</asrwt>
<pdfrwt beam="1">  1        1 0.13839466E+00 0.22102850E+04</pdfrwt>
<pdfrwt beam="2">  1       -1 0.20887694E+00 0.22102850E+04</pdfrwt>
<totfact> 0.21703326E+00</totfact>
</mgrwt>
</event>
<event>
 6    1  0.1773638E-005  0.2486973E+04  0.7818608E-02  0.8407641E-01
         -1   -1    0    0    0  501 -0.00000000000E+00  0.00000000000E+00  0.73530971221E+03  0.73530971221E+03  0.00000000000E+00 0. -1.
          1   -1    0    0  501    0  0.00000000000E+00 -0.00000000000E+00 -0.21028679280E+04  0.21028679280E+04  0.00000000000E+00 0.  1.
         23    2    1    2    0    0 -0.17373380125E+03  0.11113843981E+04 -0.83529791028E+02  0.11311077209E+04  0.84075776852E+02 0.  0.
         13    1    3    3    0    0 -0.70449169278E+02  0.68370383560E+03 -0.70629237431E+02  0.69094320277E+03  0.00000000000E+00 0. -1.
        -13    1    3    3    0    0 -0.10328463197E+03  0.42768056246E+03 -0.12900553597E+02  0.44016451810E+03  0.00000000000E+00 0.  1.
         22    1    1    2    0    0  0.17373380125E+03 -0.11113843981E+04 -0.12840284248E+04  0.17070699194E+04  0.00000000000E+00 0.  1.
<mgrwt>
<rscale>  0 0.24869734E+04</rscale>
<asrwt>0</asrwt>
<pdfrwt beam="1">  1        1 0.32351814E+00 0.24869734E+04</pdfrwt>
<pdfrwt beam="2">  1       -1 0.11312457E+00 0.24869734E+04</pdfrwt>
<totfact> 0.16107113E+00</totfact>
</mgrwt>
</event>
<event>
 6    1  0.1773638E-005  0.1008559E+04  0.7818608E-02  0.9299207E-01
         -2   -1    0    0    0  501 -0.00000000000E+00  0.00000000000E+00  0.52461586834E+03  0.52461586834E+03  0.00000000000E+00 0.  1.
          2   -1    0    0  501    0  0.00000000000E+00 -0.00000000000E+00 -0.48473127661E+03  0.48473127661E+03  0.00000000000E+00 0. -1.
         23    2    1    2    0    0 -0.20069699320E+03 -0.31859007151E+03 -0.30875179661E+03  0.49619390466E+03  0.95403366657E+02 0.  0.
         11    1    3    3    0    0 -0.16266199877E+03 -0.21667694888E+03 -0.16988834734E+03  0.31979661753E+03  0.00000000000E+00 0.  1.
        -11    1    3    3    0    0 -0.38034994428E+02 -0.10191312263E+03 -0.13886344927E+03  0.17639728713E+03  0.00000000000E+00 0. -1.
         22    1    1    2    0    0  0.20069699320E+03  0.31859007151E+03  0.34863638834E+03  0.51315324029E+03  0.00000000000E+00 0.  1.
<mgrwt>
<rscale>  0 0.10085588E+04</rscale>
<asrwt>0</asrwt>
<pdfrwt beam="1">  1        2 0.74574042E-01 0.10085588E+04</pdfrwt>
<pdfrwt beam="2">  1       -2 0.80710134E-01 0.10085588E+04</pdfrwt>
<totfact> 0.86389292E+01</totfact>
</mgrwt>
</event>
<event>
 6    1  0.1773638E-005  0.1820062E+04  0.7818608E-02  0.8695703E-01
          3   -1    0    0  501    0  0.00000000000E+00  0.00000000000E+00  0.99968068680E+03  0.99968068680E+03  0.00000000000E+00 0. -1.
         -3   -1    0    0    0  501 -0.00000000000E+00 -0.00000000000E+00 -0.82842101937E+03  0.82842101937E+03  0.00000000000E+00 0.  1.
         23    2    1    2    0    0 -0.47113021558E+03  0.62701880114E+03  0.54484893842E+03  0.95937551202E+03  0.91786438850E+02 0.  0.
         11    1    3    3    0    0 -0.26850998891E+03  0.40959024058E+03  0.30029474424E+03  0.57448995878E+03  0.00000000000E+00 0. -1.
        -11    1    3    3    0    0 -0.20262022667E+03  0.21742856056E+03  0.24455419418E+03  0.38488555324E+03  0.00000000000E+00 0.  1.
         22    1    1    2    0    0  0.47113021558E+03 -0.62701880114E+03 -0.37358927099E+03  0.86872619415E+03  0.00000000000E+00 0.  1.
<mgrwt>
<rscale>  0 0.18200621E+04</rscale>
<asrwt>0</asrwt>
<pdfrwt beam="1">  1        3 0.15379703E+00 0.18200621E+04</pdfrwt>
<pdfrwt beam="2">  1       -3 0.12744939E+00 0.18200621E+04</pdfrwt>
<totfact> 0.36437311E-01</totfact>
</mgrwt>
</event>
<event>
 6    1  0.1773638E-005  0.3030519E+04  0.7818608E-02  0.8235069E-01
          2   -1    0    0  501    0  0.00000000000E+00  0.00000000000E+00  0.12540740319E+04  0.12540740319E+04  0.00000000000E+00 0. -1.
         -2   -1    0    0    0  501 -0.00000000000E+00 -0.00000000000E+00 -0.18308423061E+04  0.18308423061E+04  0.00000000000E+00 0.  1.
         23    2    1    2    0    0 -0.11360820769E+04  0.99100097484E+03 -0.14741441952E+03  0.15173991451E+04  0.89463605681E+02 0.  0.
         11    1    3    3    0    0 -0.10011024365E+04  0.87508449287E+03 -0.15885849243E+03  0.13391097710E+04  0.00000000000E+00 0. -1.
        -11    1    3    3    0    0 -0.13497964039E+03  0.11591648197E+03  0.11444072911E+02  0.17828937410E+03  0.00000000000E+00 0.  1.
         22    1    1    2    0    0  0.11360820769E+04 -0.99100097484E+03 -0.42935385473E+03  0.15675171929E+04  0.00000000000E+00 0.  1.
<mgrwt>
<rscale>  0 0.30305193E+04</rscale>
<asrwt>0</asrwt>
<pdfrwt beam="1">  1        2 0.19293447E+00 0.30305193E+04</pdfrwt>
<pdfrwt beam="2">  1       -2 0.28166805E+00 0.30305193E+04</pdfrwt>
<totfact> 0.61784394E-01</totfact>
</mgrwt>
</event>
<event>
 6    1  0.1773638E-005  0.7211262E+03  0.7818608E-02  0.9681770E-01
         -2   -1    0    0    0  501 -0.00000000000E+00  0.00000000000E+00  0.25102528965E+03  0.25102528965E+03  0.00000000000E+00 0. -1.
          2   -1    0    0  501    0  0.00000000000E+00 -0.00000000000E+00 -0.51789896750E+03  0.51789896750E+03  0.00000000000E+00 0.  1.
         23    2    1    2    0    0  0.25746174392E+03  0.39877354219E+02  0.12117556082E+03  0.30152831730E+03  0.91427876650E+02 0.  0.
         13    1    3    3    0    0  0.67627433113E+02  0.13214532850E+02  0.79769329330E+02  0.10540986429E+03  0.00000000000E+00 0. -1.
        -13    1    3    3    0    0  0.18983431081E+03  0.26662821368E+02  0.41406231494E+02  0.19611845301E+03  0.00000000000E+00 0.  1.
         22    1    1    2    0    0 -0.25746174392E+03 -0.39877354219E+02 -0.38804923868E+03  0.46739593986E+03  0.00000000000E+00 0.  1.
<mgrwt>
<rscale>  0 0.72112617E+03</rscale>
<asrwt>0</asrwt>
<pdfrwt beam="1">  1        2 0.79676764E-01 0.72112617E+03</pdfrwt>
<pdfrwt beam="2">  1       -2 0.38619275E-01 0.72112617E+03</pdfrwt>
<totfact> 0.37717168E+02</totfact>
</mgrwt>
</event>
<event>
 6    1  0.1773638E-005  0.1831077E+04  0.7818608E-02  0.8689946E-01
         -2   -1    0    0    0  501 -0.00000000000E+00  0.00000000000E+00  0.63719956817E+03  0.63719956817E+03  0.00000000000E+00 0.  1.
          2   -1    0    0  501    0  0.00000000000E+00 -0.00000000000E+00 -0.13154597482E+04  0.13154597482E+04  0.00000000000E+00 0. -1.
         23    2    1    2    0    0  0.33663972938E+03  0.83206008373E+03 -0.52041764117E+03  0.10413061700E+04  0.88508349935E+02 0.  0.
         13    1    3    3    0    0  0.12262598200E+03  0.25619194437E+03 -0.12230576957E+03  0.30924124093E+03  0.00000000000E+00 0. -1.
        -13    1    3    3    0    0  0.21401374738E+03  0.57586813936E+03 -0.39811187160E+03  0.73206492902E+03  0.00000000000E+00 0.  1.
         22    1    1    2    0    0 -0.33663972938E+03 -0.83206008373E+03 -0.15784253883E+03  0.91135314638E+03  0.00000000000E+00 0.  1.
<mgrwt>
<rscale>  0 0.18310766E+04</rscale>
<asrwt>0</asrwt>
<pdfrwt beam="1">  1        2 0.20237842E+00 0.18310766E+04</pdfrwt>
<pdfrwt beam="2">  1       -2 0.98030704E-01 0.18310766E+04</pdfrwt>
<totfact> 0.13203364E+01</totfact>
</mgrwt>
</event>
<event>
 6    1  0.1773638E-005  0.1963106E+04  0.7818608E-02  0.8624067E-01
         -2   -1    0    0    0  501 -0.00000000000E+00  0.00000000000E+00  0.53970894468E+03  0.53970894468E+03  0.00000000000E+00 0.  1.
          2   -1    0    0  501    0  0.00000000000E+00 -0.00000000000E+00 -0.17851224048E+04  0.17851224048E+04  0.00000000000E+00 0. -1.
         23    2    1    2    0    0  0.40502571264E+03 -0.29688751674E+03 -0.16198580320E+04  0.16984155428E+04  0.92126470738E+02 0.  0.
         11    1    3    3    0    0  0.28399584898E+03 -0.15363149379E+03 -0.10436368546E+04  0.10924441232E+04  0.00000000000E+00 0.  1.
        -11    1    3    3    0    0  0.12102986366E+03 -0.14325602295E+03 -0.57622117738E+03  0.60597141952E+03  0.00000000000E+00 0. -1.
         22    1    1    2    0    0 -0.40502571264E+03  0.29688751674E+03  0.37444457187E+03  0.62641580671E+03  0.00000000000E+00 0.  1.
<mgrwt>
<rscale>  0 0.19631062E+04</rscale>
<asrwt>0</asrwt>
<pdfrwt beam="1">  1        2 0.27463421E+00 0.19631062E+04</pdfrwt>
<pdfrwt beam="2">  1       -2 0.83032147E-01 0.19631062E+04</pdfrwt>
<totfact> 0.10413655E+01</totfact>
</mgrwt>
</event>
<event>
 6    1  0.1773638E-005  0.4519297E+04  0.7818608E-02  0.7907267E-01
          2   -1    0    0  501    0  0.00000000000E+00  0.00000000000E+00  0.24113540467E+04  0.24113540467E+04  0.00000000000E+00 0. -1.
         -2   -1    0    0    0  501 -0.00000000000E+00 -0.00000000000E+00 -0.21174871244E+04  0.21174871244E+04  0.00000000000E+00 0.  1.
         23    2    1    2    0    0 -0.14239449934E+04 -0.27932859063E+03 -0.15875434254E+04  0.21528469156E+04  0.93871767914E+02 0.  0.
         11    1    3    3    0    0 -0.28682187578E+03 -0.44489493098E+02 -0.26633328157E+03  0.39392831872E+03  0.00000000000E+00 0. -1.
        -11    1    3    3    0    0 -0.11371231176E+04 -0.23483909753E+03 -0.13212101439E+04  0.17589185969E+04  0.00000000000E+00 0.  1.
         22    1    1    2    0    0  0.14239449934E+04  0.27932859063E+03  0.18814103477E+04  0.23759942555E+04  0.00000000000E+00 0. -1.
<mgrwt>
<rscale>  0 0.45192969E+04</rscale>
<asrwt>0</asrwt>
<pdfrwt beam="1">  1        2 0.37097754E+00 0.45192969E+04</pdfrwt>
<pdfrwt beam="2">  1       -2 0.32576725E+00 0.45192969E+04</pdfrwt>
<totfact> 0.65342044E-02</totfact>
</mgrwt>
</event>
<event>
 6    1  0.1773638E-005  0.1094106E+04  0.7818608E-02  0.9210956E-01
         -2   -1    0    0    0  501 -0.00000000000E+00  0.00000000000E+00  0.37424024427E+03  0.37424024427E+03  0.00000000000E+00 0.  1.
          2   -1    0    0  501    0  0.00000000000E+00 -0.00000000000E+00 -0.79966555803E+03  0.79966555803E+03  0.00000000000E+00 0. -1.
         23    2    1    2    0    0  0.19482681779E+03 -0.36352060643E+03 -0.59380521355E+03  0.72842122245E+03  0.88815119475E+02 0.  0.
         11    1    3    3    0    0  0.19215164856E+03 -0.30278542369E+03 -0.47727859148E+03  0.59698921491E+03  0.00000000000E+00 0. -1.
        -11    1    3    3    0    0  0.26751692311E+01 -0.60735182740E+02 -0.11652662207E+03  0.13143200754E+03  0.00000000000E+00 0.  1.
         22    1    1    2    0    0 -0.19482681779E+03  0.36352060643E+03  0.16837989980E+03  0.44548457985E+03  0.00000000000E+00 0.  1.
<mgrwt>
<rscale>  0 0.10941061E+04</rscale>
<asrwt>0</asrwt>
<pdfrwt beam="1">  1        2 0.12302547E+00 0.10941061E+04</pdfrwt>
<pdfrwt beam="2">  1       -2 0.57575422E-01 0.10941061E+04</pdfrwt>
<totfact> 0.96739991E+01</totfact>
</mgrwt>
</event>
<event>
 6    1  0.1773638E-005  0.1288443E+04  0.7818608E-02  0.9038780E-01
          2   -1    0    0  501    0  0.00000000000E+00  0.00000000000E+00  0.12261903869E+04  0.12261903869E+04  0.00000000000E+00 0.  1.
         -2   -1    0    0    0  501 -0.00000000000E+00 -0.00000000000E+00 -0.33846427344E+03  0.33846427344E+03  0.00000000000E+00 0. -1.
         23    2    1    2    0    0 -0.35795758744E+03  0.47779273548E+03  0.16309677226E+03  0.62576850397E+03  0.92553395196E+02 0.  0.
         11    1    3    3    0    0 -0.27027703982E+03  0.41835398029E+03  0.13969896167E+03  0.51728670094E+03  0.00000000000E+00 0. -1.
        -11    1    3    3    0    0 -0.87680547615E+02  0.59438755190E+02  0.23397810585E+02  0.10848180303E+03  0.00000000000E+00 0.  1.
         22    1    1    2    0    0  0.35795758744E+03 -0.47779273548E+03  0.72462934115E+03  0.93888615633E+03  0.00000000000E+00 0.  1.
<mgrwt>
<rscale>  0 0.12884435E+04</rscale>
<asrwt>0</asrwt>
<pdfrwt beam="1">  1        2 0.18864467E+00 0.12884435E+04</pdfrwt>
<pdfrwt beam="2">  1       -2 0.52071427E-01 0.12884435E+04</pdfrwt>
<totfact> 0.62395960E+01</totfact>
</mgrwt>
</event>
<event>
 6    1  0.1773638E-005  0.3009694E+04  0.7818608E-02  0.8240968E-01
          2   -1    0    0  501    0  0.00000000000E+00  0.00000000000E+00  0.87163434715E+03  0.87163434715E+03  0.00000000000E+00 0. -1.
         -2   -1    0    0    0  501 -0.00000000000E+00 -0.00000000000E+00 -0.25980678595E+04  0.25980678595E+04  0.00000000000E+00 0.  1.
         23    2    1    2    0    0  0.13879225138E+04  0.48708537138E+03 -0.12227104654E+04  0.19149295637E+04  0.91396325873E+02 0.  0.
         11    1    3    3    0    0  0.63500980645E+03  0.25764999721E+03 -0.52806589350E+03  0.86514424417E+03  0.00000000000E+00 0.  1.
        -11    1    3    3    0    0  0.75291270735E+03  0.22943537417E+03 -0.69464457187E+03  0.10497853195E+04  0.00000000000E+00 0. -1.
         22    1    1    2    0    0 -0.13879225138E+04 -0.48708537138E+03 -0.50372304698E+03  0.15547726430E+04  0.00000000000E+00 0. -1.
<mgrwt>
<rscale>  0 0.30096945E+04</rscale>
<asrwt>0</asrwt>
<pdfrwt beam="1">  1        2 0.13409760E+00 0.30096945E+04</pdfrwt>
<pdfrwt beam="2">  1       -2 0.39970274E+00 0.30096945E+04</pdfrwt>
<totfact> 0.19538294E-01</totfact>
</mgrwt>
</event>
<event>
 6    1  0.1773638E-005  0.2726108E+04  0.7818608E-02  0.8326583E-01
         -2   -1    0    0    0  501 -0.00000000000E+00  0.00000000000E+00  0.20804715033E+04  0.20804715033E+04  0.00000000000E+00 0.  1.
          2   -1    0    0  501    0  0.00000000000E+00 -0.00000000000E+00 -0.89302675992E+03  0.89302675992E+03  0.00000000000E+00 0. -1.
         23    2    1    2    0    0 -0.42470551977E+02  0.67497527865E+03  0.18833010567E+04  0.20031316401E+04  0.91203743913E+02 0.  0.
         13    1    3    3    0    0 -0.44039518181E+02  0.43596893040E+03  0.13327803205E+04  0.14029653488E+04  0.00000000000E+00 0.  1.
        -13    1    3    3    0    0  0.15689662047E+01  0.23900634825E+03  0.55052073623E+03  0.60016629127E+03  0.00000000000E+00 0. -1.
         22    1    1    2    0    0  0.42470551977E+02 -0.67497527865E+03 -0.69585631328E+03  0.97036662314E+03  0.00000000000E+00 0. -1.
<mgrwt>
<rscale>  0 0.27261084E+04</rscale>
<asrwt>0</asrwt>
<pdfrwt beam="1">  1        2 0.13738873E+00 0.27261084E+04</pdfrwt>
<pdfrwt beam="2">  1       -2 0.32007254E+00 0.27261084E+04</pdfrwt>
<totfact> 0.62075305E-01</totfact>
</mgrwt>
</event>
<event>
 6    1  0.1773638E-005  0.3575976E+04  0.7818608E-02  0.8096017E-01
          2   -1    0    0  501    0  0.00000000000E+00  0.00000000000E+00  0.17938188594E+04  0.17938188594E+04  0.00000000000E+00 0. -1.
         -2   -1    0    0    0  501 -0.00000000000E+00 -0.00000000000E+00 -0.17821762743E+04  0.17821762743E+04  0.00000000000E+00 0.  1.
         23    2    1    2    0    0 -0.11419772721E+03  0.15448590304E+04 -0.88469283881E+03  0.17862890860E+04  0.92286157342E+02 0.  0.
         13    1    3    3    0    0 -0.95682085885E+02  0.10896351796E+04 -0.66918026230E+03  0.12822878420E+04  0.00000000000E+00 0.  1.
        -13    1    3    3    0    0 -0.18515641327E+02  0.45522385084E+03 -0.21551257651E+03  0.50400124403E+03  0.00000000000E+00 0. -1.
         22    1    1    2    0    0  0.11419772721E+03 -0.15448590304E+04  0.89633542391E+03  0.17897060477E+04  0.00000000000E+00 0. -1.
<mgrwt>
<rscale>  0 0.35759762E+04</rscale>
<asrwt>0</asrwt>
<pdfrwt beam="1">  1        2 0.27597213E+00 0.35759762E+04</pdfrwt>
<pdfrwt beam="2">  1       -2 0.27418096E+00 0.35759762E+04</pdfrwt>
<totfact> 0.32458880E-01</totfact>
</mgrwt>
</event>
<event>
 6    1  0.1773638E-005  0.2174930E+04  0.7818608E-02  0.8528936E-01
          1   -1    0    0  501    0  0.00000000000E+00  0.00000000000E+00  0.26083759757E+04  0.26083759757E+04  0.00000000000E+00 0. -1.
         -1   -1    0    0    0  501 -0.00000000000E+00 -0.00000000000E+00 -0.45337811486E+03  0.45337811486E+03  0.00000000000E+00 0.  1.
         23    2    1    2    0    0  0.93028304389E+03 -0.34820361252E+03  0.46352118947E+03  0.11001818570E+04  0.94212143172E+02 0.  0.
         13    1    3    3    0    0  0.52388700350E+03 -0.18038031402E+03  0.20924163706E+03  0.59226405665E+03  0.00000000000E+00 0.  1.
        -13    1    3    3    0    0  0.40639604039E+03 -0.16782329850E+03  0.25427955241E+03  0.50791780038E+03  0.00000000000E+00 0. -1.
         22    1    1    2    0    0 -0.93028304389E+03  0.34820361252E+03  0.16914766713E+04  0.19615722335E+04  0.00000000000E+00 0. -1.
<mgrwt>
<rscale>  0 0.21749304E+04</rscale>
<asrwt>0</asrwt>
<pdfrwt beam="1">  1        1 0.40128860E+00 0.21749304E+04</pdfrwt>
<pdfrwt beam="2">  1       -1 0.69750481E-01 0.21749304E+04</pdfrwt>
<totfact> 0.21623489E+00</totfact>
</mgrwt>
</event>
<event>
 6    1  0.1773638E-005  0.1369650E+04  0.7818608E-02  0.8976085E-01
         -2   -1    0    0    0  501 -0.00000000000E+00  0.00000000000E+00  0.21118940146E+04  0.21118940146E+04  0.00000000000E+00 0.  1.
          2   -1    0    0  501    0  0.00000000000E+00 -0.00000000000E+00 -0.22206844580E+03  0.22206844580E+03  0.00000000000E+00 0. -1.
         23    2    1    2    0    0  0.52505770350E+03  0.30351855306E+03  0.14793987845E+04  0.16016652193E+04  0.94348328796E+02 0.  0.
         11    1    3    3    0    0  0.30293224687E+03  0.19837914690E+03  0.76974483639E+03  0.85066406135E+03  0.00000000000E+00 0. -1.
        -11    1    3    3    0    0  0.22212545663E+03  0.10513940616E+03  0.70965394808E+03  0.75100115794E+03  0.00000000000E+00 0.  1.
         22    1    1    2    0    0 -0.52505770350E+03 -0.30351855306E+03  0.41042678438E+03  0.73229724115E+03  0.00000000000E+00 0. -1.
<mgrwt>
<rscale>  0 0.13696496E+04</rscale>
<asrwt>0</asrwt>
<pdfrwt beam="1">  1        2 0.34164378E-01 0.13696496E+04</pdfrwt>
<pdfrwt beam="2">  1       -2 0.32490676E+00 0.13696496E+04</pdfrwt>
<totfact> 0.33735018E+00</totfact>
</mgrwt>
</event>
<event>
 6    1  0.1773638E-005  0.3682636E+04  0.7818608E-02  0.8071821E-01
          1   -1    0    0  501    0  0.00000000000E+00  0.00000000000E+00  0.23495968988E+04  0.23495968988E+04  0.00000000000E+00 0. -1.
         -1   -1    0    0    0  501 -0.00000000000E+00 -0.00000000000E+00 -0.14429926891E+04  0.14429926891E+04  0.00000000000E+00 0.  1.
         23    2    1    2    0    0  0.11932511373E+04  0.36255996636E+03 -0.93999477338E+03  0.15643109226E+04  0.90446020203E+02 0.  0.
         11    1    3    3    0    0  0.82929010342E+03  0.28855072464E+03 -0.63279315467E+03  0.10823173162E+04  0.00000000000E+00 0. -1.
        -11    1    3    3    0    0  0.36396103392E+03  0.74009241720E+02 -0.30720161871E+03  0.48199360639E+03  0.00000000000E+00 0.  1.
         22    1    1    2    0    0 -0.11932511373E+04 -0.36255996636E+03  0.18465989831E+04  0.22282786653E+04  0.00000000000E+00 0. -1.
<mgrwt>
<rscale>  0 0.36826355E+04</rscale>
<asrwt>0</asrwt>
<pdfrwt beam="1">  1        1 0.36147645E+00 0.36826355E+04</pdfrwt>
<pdfrwt beam="2">  1       -1 0.22199887E+00 0.36826355E+04</pdfrwt>
<totfact> 0.14754872E-01</totfact>
</mgrwt>
</event>
<event>
 6    1  0.1773638E-005  0.2932981E+04  0.7818608E-02  0.8263132E-01
         -2   -1    0    0    0  501 -0.00000000000E+00  0.00000000000E+00  0.10489219589E+04  0.10489219589E+04  0.00000000000E+00 0.  1.
          2   -1    0    0  501    0  0.00000000000E+00 -0.00000000000E+00 -0.20502896751E+04  0.20502896751E+04  0.00000000000E+00 0. -1.
         23    2    1    2    0    0  0.71738139157E+02  0.14507288329E+04 -0.70368801771E+03  0.16165202600E+04  0.90556156764E+02 0.  0.
         13    1    3    3    0    0  0.37706011854E+02  0.11433053165E+04 -0.58883597181E+03  0.12865833015E+04  0.00000000000E+00 0. -1.
        -13    1    3    3    0    0  0.34032127303E+02  0.30742351640E+03 -0.11485204590E+03  0.32993695848E+03  0.00000000000E+00 0.  1.
         22    1    1    2    0    0 -0.71738139157E+02 -0.14507288329E+04 -0.29767969849E+03  0.14826913739E+04  0.00000000000E+00 0. -1.
<mgrwt>
<rscale>  0 0.29329806E+04</rscale>
<asrwt>0</asrwt>
<pdfrwt beam="1">  1        2 0.31542918E+00 0.29329806E+04</pdfrwt>
<pdfrwt beam="2">  1       -2 0.16137261E+00 0.29329806E+04</pdfrwt>
<totfact> 0.13268314E+00</totfact>
</mgrwt>
</event>
<event>
 6    1  0.1773638E-005  0.5597799E+03  0.7818608E-02  0.9992553E-01
          2   -1    0    0  501    0  0.00000000000E+00  0.00000000000E+00  0.34415674760E+03  0.34415674760E+03  0.00000000000E+00 0. -1.
         -2   -1    0    0    0  501 -0.00000000000E+00 -0.00000000000E+00 -0.22762417669E+03  0.22762417669E+03  0.00000000000E+00 0.  1.
         23    2    1    2    0    0 -0.45395620000E+02  0.12524705629E+02  0.33387351086E+03  0.34939676402E+03  0.91591194393E+02 0.  0.
         13    1    3    3    0    0 -0.63031588276E+02 -0.19882378536E+02  0.21452480598E+03  0.22447534938E+03  0.00000000000E+00 0. -1.
        -13    1    3    3    0    0  0.17635968276E+02  0.32407084165E+02  0.11934870487E+03  0.12492141464E+03  0.00000000000E+00 0.  1.
         22    1    1    2    0    0  0.45395620000E+02 -0.12524705629E+02 -0.21734093994E+03  0.22238416028E+03  0.00000000000E+00 0.  1.
<mgrwt>
<rscale>  0 0.55977994E+03</rscale>
<asrwt>0</asrwt>
<pdfrwt beam="1">  1        2 0.52947192E-01 0.55977994E+03</pdfrwt>
<pdfrwt beam="2">  1       -2 0.35019104E-01 0.55977994E+03</pdfrwt>
<totfact> 0.72451482E+02</totfact>
</mgrwt>
</event>
<event>
 6    1  0.1773638E-005  0.2749765E+04  0.7818608E-02  0.8319036E-01
          1   -1    0    0  501    0  0.00000000000E+00  0.00000000000E+00  0.23921616677E+04  0.23921616677E+04  0.00000000000E+00 0. -1.
         -1   -1    0    0    0  501 -0.00000000000E+00 -0.00000000000E+00 -0.79020684881E+03  0.79020684881E+03  0.00000000000E+00 0.  1.
         23    2    1    2    0    0 -0.41842966866E+03  0.58963484346E+03 -0.54956078178E+03  0.91261698469E+03  0.90000397950E+02 0.  0.
         13    1    3    3    0    0 -0.31467547583E+03  0.48003613223E+03 -0.47088831727E+03  0.74242248799E+03  0.00000000000E+00 0. -1.
        -13    1    3    3    0    0 -0.10375419283E+03  0.10959871124E+03 -0.78672464515E+02  0.17019449670E+03  0.00000000000E+00 0.  1.
         22    1    1    2    0    0  0.41842966866E+03 -0.58963484346E+03  0.21515156006E+04  0.22697515318E+04  0.00000000000E+00 0. -1.
<mgrwt>
<rscale>  0 0.27497655E+04</rscale>
<asrwt>0</asrwt>
<pdfrwt beam="1">  1        1 0.36802487E+00 0.27497655E+04</pdfrwt>
<pdfrwt beam="2">  1       -1 0.12157029E+00 0.27497655E+04</pdfrwt>
<totfact> 0.83827032E-01</totfact>
</mgrwt>
</event>
<event>
 6    1  0.1773638E-005  0.4040458E+04  0.7818608E-02  0.7996434E-01
         -2   -1    0    0    0  501 -0.00000000000E+00  0.00000000000E+00  0.14024613600E+04  0.14024613600E+04  0.00000000000E+00 0.  1.
          2   -1    0    0  501    0  0.00000000000E+00 -0.00000000000E+00 -0.29101162919E+04  0.29101162919E+04  0.00000000000E+00 0. -1.
         23    2    1    2    0    0  0.18290218529E+04 -0.56475739048E+02 -0.16650984305E+04  0.24759233833E+04  0.95568664110E+02 0.  0.
         13    1    3    3    0    0  0.92121942101E+03 -0.69810795008E+02 -0.80743521031E+03  0.12269761153E+04  0.00000000000E+00 0. -1.
        -13    1    3    3    0    0  0.90780243184E+03  0.13335055960E+02 -0.85766322020E+03  0.12489472680E+04  0.00000000000E+00 0.  1.
         22    1    1    2    0    0 -0.18290218529E+04  0.56475739048E+02  0.15744349861E+03  0.18366542687E+04  0.00000000000E+00 0.  1.
<mgrwt>
<rscale>  0 0.40404582E+04</rscale>
<asrwt>0</asrwt>
<pdfrwt beam="1">  1        2 0.44771020E+00 0.40404582E+04</pdfrwt>
<pdfrwt beam="2">  1       -2 0.21576328E+00 0.40404582E+04</pdfrwt>
<totfact> 0.16369204E-01</totfact>
</mgrwt>
</event>
<event>
 6    1  0.1773638E-005  0.3107931E+04  0.7818608E-02  0.8213565E-01
         -2   -1    0    0    0  501 -0.00000000000E+00  0.00000000000E+00  0.13996313809E+04  0.13996313809E+04  0.00000000000E+00 0.  1.
          2   -1    0    0  501    0  0.00000000000E+00 -0.00000000000E+00 -0.17253178105E+04  0.17253178105E+04  0.00000000000E+00 0. -1.
         23    2    1    2    0    0  0.94731741947E+03 -0.31097329480E+03 -0.13597275992E+04  0.16885106010E+04  0.89967896651E+02 0.  0.
         13    1    3    3    0    0  0.31239956279E+03 -0.71668720483E+02 -0.38656239161E+03  0.50215572777E+03  0.00000000000E+00 0. -1.
        -13    1    3    3    0    0  0.63491785668E+03 -0.23930457431E+03 -0.97316520762E+03  0.11863548733E+04  0.00000000000E+00 0.  1.
         22    1    1    2    0    0 -0.94731741947E+03  0.31097329480E+03  0.10340411696E+04  0.14364385903E+04  0.00000000000E+00 0.  1.
<mgrwt>
<rscale>  0 0.31079311E+04</rscale>
<asrwt>0</asrwt>
<pdfrwt beam="1">  1        2 0.26543351E+00 0.31079311E+04</pdfrwt>
<pdfrwt beam="2">  1       -2 0.21532791E+00 0.31079311E+04</pdfrwt>
<totfact> 0.85263381E-01</totfact>
</mgrwt>
</event>
<event>
 6    1  0.1773638E-005  0.3417394E+04  0.7818608E-02  0.8133650E-01
         -1   -1    0    0    0  501 -0.00000000000E+00  0.00000000000E+00  0.11424811516E+04  0.11424811516E+04  0.00000000000E+00 0.  1.
          1   -1    0    0  501    0  0.00000000000E+00 -0.00000000000E+00 -0.25555305295E+04  0.25555305295E+04  0.00000000000E+00 0. -1.
         23    2    1    2    0    0  0.16847688577E+04  0.59570123561E+02 -0.10003354673E+04  0.19624058861E+04  0.91493777797E+02 0.  0.
         11    1    3    3    0    0  0.89323592120E+03 -0.40610658672E+00 -0.49169792840E+03  0.10196261220E+04  0.00000000000E+00 0.  1.
        -11    1    3    3    0    0  0.79153293649E+03  0.59976230148E+02 -0.50863753885E+03  0.94277976413E+03  0.00000000000E+00 0. -1.
         22    1    1    2    0    0 -0.16847688577E+04 -0.59570123561E+02 -0.41271391065E+03  0.17356057950E+04  0.00000000000E+00 0.  1.
<mgrwt>
<rscale>  0 0.34173940E+04</rscale>
<asrwt>0</asrwt>
<pdfrwt beam="1">  1        1 0.39315855E+00 0.34173940E+04</pdfrwt>
<pdfrwt beam="2">  1       -1 0.17576633E+00 0.34173940E+04</pdfrwt>
<totfact> 0.22730351E-01</totfact>
</mgrwt>
</event>
<event>
 6    1  0.1773638E-005  0.3836960E+04  0.7818608E-02  0.8038270E-01
          1   -1    0    0  501    0  0.00000000000E+00  0.00000000000E+00  0.17133321011E+04  0.17133321011E+04  0.00000000000E+00 0. -1.
         -1   -1    0    0    0  501 -0.00000000000E+00 -0.00000000000E+00 -0.21481915120E+04  0.21481915120E+04  0.00000000000E+00 0.  1.
         23    2    1    2    0    0 -0.91583862178E+02  0.17355102282E+04 -0.10324444032E+04  0.20237284180E+04  0.95665606039E+02 0.  0.
         13    1    3    3    0    0  0.72391993166E+01  0.60461278960E+03 -0.33174235294E+03  0.68968255023E+03  0.00000000000E+00 0.  1.
        -13    1    3    3    0    0 -0.98823061494E+02  0.11308974386E+04 -0.70070205030E+03  0.13340458678E+04  0.00000000000E+00 0. -1.
         22    1    1    2    0    0  0.91583862178E+02 -0.17355102282E+04  0.59758499232E+03  0.18377951950E+04  0.00000000000E+00 0. -1.
<mgrwt>
<rscale>  0 0.38369600E+04</rscale>
<asrwt>0</asrwt>
<pdfrwt beam="1">  1        1 0.26358955E+00 0.38369600E+04</pdfrwt>
<pdfrwt beam="2">  1       -1 0.33049100E+00 0.38369600E+04</pdfrwt>
<totfact> 0.77338627E-02</totfact>
</mgrwt>
</event>
<event>
 6    1  0.1773638E-005  0.4314541E+04  0.7818608E-02  0.7943935E-01
          1   -1    0    0  501    0  0.00000000000E+00  0.00000000000E+00  0.16652976333E+04  0.16652976333E+04  0.00000000000E+00 0. -1.
         -1   -1    0    0    0  501 -0.00000000000E+00 -0.00000000000E+00 -0.27945850912E+04  0.27945850912E+04  0.00000000000E+00 0.  1.
         23    2    1    2    0    0  0.36817447167E+03  0.16563000734E+04 -0.19402216028E+04  0.25793252108E+04  0.97858572911E+02 0.  0.
         13    1    3    3    0    0  0.11513756154E+03  0.57145308295E+03 -0.59916308484E+03  0.83594957164E+03  0.00000000000E+00 0. -1.
        -13    1    3    3    0    0  0.25303691013E+03  0.10848469905E+04 -0.13410585180E+04  0.17433756392E+04  0.00000000000E+00 0.  1.
         22    1    1    2    0    0 -0.36817447167E+03 -0.16563000734E+04  0.81093414490E+03  0.18805575137E+04  0.00000000000E+00 0. -1.
<mgrwt>
<rscale>  0 0.43145410E+04</rscale>
<asrwt>0</asrwt>
<pdfrwt beam="1">  1        1 0.25619963E+00 0.43145410E+04</pdfrwt>
<pdfrwt beam="2">  1       -1 0.42993617E+00 0.43145410E+04</pdfrwt>
<totfact> 0.17095413E-02</totfact>
</mgrwt>
</event>
<event>
 6    1  0.1773638E-005  0.2844035E+04  0.7818608E-02  0.8289726E-01
          1   -1    0    0  501    0  0.00000000000E+00  0.00000000000E+00  0.16039579949E+04  0.16039579949E+04  0.00000000000E+00 0. -1.
         -1   -1    0    0    0  501 -0.00000000000E+00 -0.00000000000E+00 -0.12607147373E+04  0.12607147373E+04  0.00000000000E+00 0.  1.
         23    2    1    2    0    0 -0.74938977768E+03 -0.96357305510E+03 -0.56021119864E+03  0.13460259577E+04  0.88832540160E+02 0.  0.
         13    1    3    3    0    0 -0.69536294156E+03 -0.91914847602E+03 -0.54267554723E+03  0.12739153390E+04  0.00000000000E+00 0. -1.
        -13    1    3    3    0    0 -0.54026836118E+02 -0.44424579088E+02 -0.17535651410E+02  0.72110618624E+02  0.00000000000E+00 0.  1.
         22    1    1    2    0    0  0.74938977768E+03  0.96357305510E+03  0.90345445621E+03  0.15186467746E+04  0.00000000000E+00 0.  1.
<mgrwt>
<rscale>  0 0.28440348E+04</rscale>
<asrwt>0</asrwt>
<pdfrwt beam="1">  1        1 0.24676277E+00 0.28440348E+04</pdfrwt>
<pdfrwt beam="2">  1       -1 0.19395611E+00 0.28440348E+04</pdfrwt>
<totfact> 0.79288854E-01</totfact>
</mgrwt>
</event>
<event>
 6    1  0.1773638E-005  0.1840735E+04  0.7818608E-02  0.8684932E-01
          2   -1    0    0  501    0  0.00000000000E+00  0.00000000000E+00  0.91846659626E+03  0.91846659626E+03  0.00000000000E+00 0. -1.
         -2   -1    0    0    0  501 -0.00000000000E+00 -0.00000000000E+00 -0.92227227764E+03  0.92227227764E+03  0.00000000000E+00 0.  1.
         23    2    1    2    0    0  0.65478033767E+03 -0.54523179874E+02  0.63880459298E+03  0.92168608300E+03  0.98609633616E+02 0.  0.
         13    1    3    3    0    0  0.50140343336E+03 -0.65833268671E+02  0.43992164535E+03  0.67027641783E+03  0.00000000000E+00 0.  1.
        -13    1    3    3    0    0  0.15337690431E+03  0.11310088797E+02  0.19888294763E+03  0.25140966517E+03  0.00000000000E+00 0. -1.
         22    1    1    2    0    0 -0.65478033767E+03  0.54523179874E+02 -0.64261027436E+03  0.91905279090E+03  0.00000000000E+00 0.  1.
<mgrwt>
<rscale>  0 0.18407349E+04</rscale>
<asrwt>0</asrwt>
<pdfrwt beam="1">  1        2 0.14130255E+00 0.18407349E+04</pdfrwt>
<pdfrwt beam="2">  1       -2 0.14188804E+00 0.18407349E+04</pdfrwt>
<totfact> 0.92979192E+00</totfact>
</mgrwt>
</event>
<event>
 6    1  0.1773638E-005  0.4685729E+04  0.7818608E-02  0.7878904E-01
         -1   -1    0    0    0  501 -0.00000000000E+00  0.00000000000E+00  0.19010858349E+04  0.19010858349E+04  0.00000000000E+00 0.  1.
          1   -1    0    0  501    0  0.00000000000E+00 -0.00000000000E+00 -0.28873043309E+04  0.28873043309E+04  0.00000000000E+00 0. -1.
         23    2    1    2    0    0  0.10074110124E+04  0.99148143639E+03  0.14149251483E+04  0.20021017409E+04  0.92118504732E+02 0.  0.
         11    1    3    3    0    0  0.69731774327E+03  0.66452459079E+03  0.10196111686E+04  0.14026588687E+04  0.00000000000E+00 0. -1.
        -11    1    3    3    0    0  0.31009326910E+03  0.32695684560E+03  0.39531397974E+03  0.59944287218E+03  0.00000000000E+00 0.  1.
         22    1    1    2    0    0 -0.10074110124E+04 -0.99148143639E+03 -0.24011436443E+04  0.27862884250E+04  0.00000000000E+00 0. -1.
<mgrwt>
<rscale>  0 0.46857287E+04</rscale>
<asrwt>0</asrwt>
<pdfrwt beam="1">  1        1 0.44420067E+00 0.46857287E+04</pdfrwt>
<pdfrwt beam="2">  1       -1 0.29247474E+00 0.46857287E+04</pdfrwt>
<totfact> 0.19733347E-02</totfact>
</mgrwt>
</event>
<event>
 6    1  0.1773638E-005  0.1781830E+04  0.7818608E-02  0.8716022E-01
         -2   -1    0    0    0  501 -0.00000000000E+00  0.00000000000E+00  0.36454381897E+03  0.36454381897E+03  0.00000000000E+00 0.  1.
          2   -1    0    0  501    0  0.00000000000E+00 -0.00000000000E+00 -0.21773217817E+04  0.21773217817E+04  0.00000000000E+00 0. -1.
         23    2    1    2    0    0  0.75294497821E+02 -0.52576036268E+03  0.10705405620E+03  0.54991976776E+03  0.94116734207E+02 0.  0.
         11    1    3    3    0    0  0.58789727361E+02 -0.15223231270E+03  0.92744367726E+01  0.16345312555E+03  0.00000000000E+00 0. -1.
        -11    1    3    3    0    0  0.16504770460E+02 -0.37352804997E+03  0.97779619429E+02  0.38646664221E+03  0.00000000000E+00 0.  1.
         22    1    1    2    0    0 -0.75294497821E+02  0.52576036268E+03 -0.19198320189E+04  0.19919458329E+04  0.00000000000E+00 0. -1.
<mgrwt>
<rscale>  0 0.17818296E+04</rscale>
<asrwt>0</asrwt>
<pdfrwt beam="1">  1        2 0.33497258E+00 0.17818296E+04</pdfrwt>
<pdfrwt beam="2">  1       -2 0.56083665E-01 0.17818296E+04</pdfrwt>
<totfact> 0.15011567E+01</totfact>
</mgrwt>
</event>
<event>
 6    1  0.1773638E-005  0.1555823E+04  0.7818608E-02  0.8848157E-01
         -2   -1    0    0    0  501 -0.00000000000E+00  0.00000000000E+00  0.38437018666E+03  0.38437018666E+03  0.00000000000E+00 0.  1.
          2   -1    0    0  501    0  0.00000000000E+00 -0.00000000000E+00 -0.15743846036E+04  0.15743846036E+04  0.00000000000E+00 0. -1.
         23    2    1    2    0    0 -0.65993921773E+03 -0.37672050297E+03 -0.40330834338E+03  0.86497942273E+03  0.89964845663E+02 0.  0.
         11    1    3    3    0    0 -0.37996016775E+03 -0.20951096661E+03 -0.18005016652E+03  0.46976870550E+03  0.00000000000E+00 0. -1.
        -11    1    3    3    0    0 -0.27997904998E+03 -0.16720953637E+03 -0.22325817687E+03  0.39521071724E+03  0.00000000000E+00 0.  1.
         22    1    1    2    0    0  0.65993921773E+03  0.37672050297E+03 -0.78670607355E+03  0.10937753675E+04  0.00000000000E+00 0.  1.
<mgrwt>
<rscale>  0 0.15558233E+04</rscale>
<asrwt>0</asrwt>
<pdfrwt beam="1">  1        2 0.24221302E+00 0.15558233E+04</pdfrwt>
<pdfrwt beam="2">  1       -2 0.59133874E-01 0.15558233E+04</pdfrwt>
<totfact> 0.29616279E+01</totfact>
</mgrwt>
</event>
<event>
 6    1  0.1773638E-005  0.1824812E+04  0.7818608E-02  0.8693215E-01
         -1   -1    0    0    0  501 -0.00000000000E+00  0.00000000000E+00  0.91631152970E+03  0.91631152970E+03  0.00000000000E+00 0.  1.
          1   -1    0    0  501    0  0.00000000000E+00 -0.00000000000E+00 -0.90851709675E+03  0.90851709675E+03  0.00000000000E+00 0. -1.
         23    2    1    2    0    0 -0.46151363813E+02 -0.39067060878E+03 -0.81681817290E+03  0.91118787502E+03  0.91202757882E+02 0.  0.
         11    1    3    3    0    0  0.27367781488E+02 -0.13147958036E+03 -0.26190104692E+03  0.29432640706E+03  0.00000000000E+00 0. -1.
        -11    1    3    3    0    0 -0.73519145301E+02 -0.25919102842E+03 -0.55491712599E+03  0.61686146796E+03  0.00000000000E+00 0.  1.
         22    1    1    2    0    0  0.46151363813E+02  0.39067060878E+03  0.82461260586E+03  0.91364075144E+03  0.00000000000E+00 0.  1.
<mgrwt>
<rscale>  0 0.18248120E+04</rscale>
<asrwt>0</asrwt>
<pdfrwt beam="1">  1        1 0.13977186E+00 0.18248120E+04</pdfrwt>
<pdfrwt beam="2">  1       -1 0.14097100E+00 0.18248120E+04</pdfrwt>
<totfact> 0.69413122E+00</totfact>
</mgrwt>
</event>
<event>
 6    1  0.1773638E-005  0.2529416E+04  0.7818608E-02  0.8392580E-01
          1   -1    0    0  501    0  0.00000000000E+00  0.00000000000E+00  0.25178387575E+04  0.25178387575E+04  0.00000000000E+00 0. -1.
         -1   -1    0    0    0  501 -0.00000000000E+00 -0.00000000000E+00 -0.63526180681E+03  0.63526180681E+03  0.00000000000E+00 0.  1.
         23    2    1    2    0    0  0.56045141019E+03  0.10012207874E+04  0.16011072268E+04  0.19716717456E+04  0.86001582928E+02 0.  0.
         13    1    3    3    0    0  0.20160070363E+03  0.35093346271E+03  0.49602164699E+03  0.64018326535E+03  0.00000000000E+00 0. -1.
        -13    1    3    3    0    0  0.35885070656E+03  0.65028732468E+03  0.11050855798E+04  0.13314884802E+04  0.00000000000E+00 0.  1.
         22    1    1    2    0    0 -0.56045141019E+03 -0.10012207874E+04  0.28146972389E+03  0.11814288187E+04  0.00000000000E+00 0.  1.
<mgrwt>
<rscale>  0 0.25294164E+04</rscale>
<asrwt>0</asrwt>
<pdfrwt beam="1">  1        1 0.38735981E+00 0.25294164E+04</pdfrwt>
<pdfrwt beam="2">  1       -1 0.97732587E-01 0.25294164E+04</pdfrwt>
<totfact> 0.11713253E+00</totfact>
</mgrwt>
</event>
<event>
 6    1  0.3105722E-005  0.3594344E+04  0.7818608E-02  0.8091789E-01
         -2   -1    0    0    0  501 -0.00000000000E+00  0.00000000000E+00  0.11913291669E+04  0.11913291669E+04  0.00000000000E+00 0.  1.
          2   -1    0    0  501    0  0.00000000000E+00 -0.00000000000E+00 -0.27111116800E+04  0.27111116800E+04  0.00000000000E+00 0. -1.
         23    2    1    2    0    0  0.25514465870E+03 -0.17074803139E+04 -0.12976338755E+04  0.21617691845E+04  0.93832366856E+02 0.  0.
         13    1    3    3    0    0  0.94105555837E+02 -0.63563419658E+03 -0.42674769822E+03  0.77136261605E+03  0.00000000000E+00 0. -1.
        -13    1    3    3    0    0  0.16103910286E+03 -0.10718461173E+04 -0.87088617729E+03  0.13904065685E+04  0.00000000000E+00 0.  1.
         22    1    1    2    0    0 -0.25514465870E+03  0.17074803139E+04 -0.22214863756E+03  0.17406716624E+04  0.00000000000E+00 0.  1.
<mgrwt>
<rscale>  0 0.35943436E+04</rscale>
<asrwt>0</asrwt>
<pdfrwt beam="1">  1        2 0.41709410E+00 0.35943436E+04</pdfrwt>
<pdfrwt beam="2">  1       -2 0.18328141E+00 0.35943436E+04</pdfrwt>
<totfact> 0.36698961E-01</totfact>
</mgrwt>
</event>
<event>
 6    1  0.1773638E-005  0.1583646E+04  0.7818608E-02  0.8830658E-01
         -2   -1    0    0    0  501 -0.00000000000E+00  0.00000000000E+00  0.69103166911E+03  0.69103166911E+03  0.00000000000E+00 0.  1.
          2   -1    0    0  501    0  0.00000000000E+00 -0.00000000000E+00 -0.90731541175E+03  0.90731541175E+03  0.00000000000E+00 0. -1.
         23    2    1    2    0    0 -0.27404246917E+03  0.22773407415E+03  0.60187622145E+03  0.70596386146E+03  0.95749173867E+02 0.  0.
         13    1    3    3    0    0 -0.25907770232E+03  0.18805783953E+03  0.56667922741E+03  0.65085509418E+03  0.00000000000E+00 0.  1.
        -13    1    3    3    0    0 -0.14964766856E+02  0.39676234624E+02  0.35196994040E+02  0.55108767274E+02  0.00000000000E+00 0. -1.
         22    1    1    2    0    0  0.27404246917E+03 -0.22773407415E+03 -0.81815996409E+03  0.89238321941E+03  0.00000000000E+00 0. -1.
<mgrwt>
<rscale>  0 0.15836460E+04</rscale>
<asrwt>0</asrwt>
<pdfrwt beam="1">  1        2 0.13958699E+00 0.15836460E+04</pdfrwt>
<pdfrwt beam="2">  1       -2 0.10631256E+00 0.15836460E+04</pdfrwt>
<totfact> 0.19860551E+01</totfact>
</mgrwt>
</event>
<event>
 6    1  0.1773638E-005  0.1510085E+04  0.7818608E-02  0.8877774E-01
          1   -1    0    0  501    0  0.00000000000E+00  0.00000000000E+00  0.82443875186E+03  0.82443875186E+03  0.00000000000E+00 0. -1.
         -1   -1    0    0    0  501 -0.00000000000E+00 -0.00000000000E+00 -0.69148792255E+03  0.69148792255E+03  0.00000000000E+00 0.  1.
         23    2    1    2    0    0  0.70898726904E+03 -0.14023200315E+02 -0.18553617539E+03  0.73856345816E+03  0.90513598640E+02 0.  0.
         11    1    3    3    0    0  0.18812929121E+03 -0.35988521940E+02 -0.25495055839E+02  0.19322991951E+03  0.00000000000E+00 0. -1.
        -11    1    3    3    0    0  0.52085797783E+03  0.21965321625E+02 -0.16004111955E+03  0.54533353864E+03  0.00000000000E+00 0.  1.
         22    1    1    2    0    0 -0.70898726904E+03  0.14023200315E+02  0.31848700471E+03  0.77736321625E+03  0.00000000000E+00 0. -1.
<mgrwt>
<rscale>  0 0.15100853E+04</rscale>
<asrwt>0</asrwt>
<pdfrwt beam="1">  1        1 0.12683673E+00 0.15100853E+04</pdfrwt>
<pdfrwt beam="2">  1       -1 0.10638276E+00 0.15100853E+04</pdfrwt>
<totfact> 0.16812085E+01</totfact>
</mgrwt>
</event>
<event>
 6    1  0.1773638E-005  0.3303894E+04  0.7818608E-02  0.8161905E-01
         -2   -1    0    0    0  501 -0.00000000000E+00  0.00000000000E+00  0.12383905799E+04  0.12383905799E+04  0.00000000000E+00 0.  1.
          2   -1    0    0  501    0  0.00000000000E+00 -0.00000000000E+00 -0.22036086497E+04  0.22036086497E+04  0.00000000000E+00 0. -1.
         23    2    1    2    0    0  0.91937276166E+03 -0.14274682914E+03  0.93743914746E+03  0.13240456375E+04  0.93175977653E+02 0.  0.
         11    1    3    3    0    0  0.39786841727E+03 -0.23455286767E+02  0.36324954436E+03  0.53925843472E+03  0.00000000000E+00 0. -1.
        -11    1    3    3    0    0  0.52150434439E+03 -0.11929154237E+03  0.57418960310E+03  0.78478720275E+03  0.00000000000E+00 0.  1.
         22    1    1    2    0    0 -0.91937276166E+03  0.14274682914E+03 -0.19026572173E+04  0.21179535922E+04  0.00000000000E+00 0. -1.
<mgrwt>
<rscale>  0 0.33038936E+04</rscale>
<asrwt>0</asrwt>
<pdfrwt beam="1">  1        2 0.33901671E+00 0.33038936E+04</pdfrwt>
<pdfrwt beam="2">  1       -2 0.19052163E+00 0.33038936E+04</pdfrwt>
<totfact> 0.65983265E-01</totfact>
</mgrwt>
</event>
<event>
 6    1  0.4845061E-005  0.2295528E+04  0.7818608E-02  0.8479686E-01
         -2   -1    0    0    0  501 -0.00000000000E+00  0.00000000000E+00  0.14973987305E+04  0.14973987305E+04  0.00000000000E+00 0.  1.
          2   -1    0    0  501    0  0.00000000000E+00 -0.00000000000E+00 -0.87976745020E+03  0.87976745020E+03  0.00000000000E+00 0. -1.
         23    2    1    2    0    0  0.71566029637E+03  0.89479299994E+03  0.32999090095E+03  0.11958274654E+04  0.91022852713E+02 0.  0.
         11    1    3    3    0    0  0.43424455879E+03  0.50077834485E+03  0.22849634935E+03  0.70111188064E+03  0.00000000000E+00 0. -1.
        -11    1    3    3    0    0  0.28141573758E+03  0.39401465509E+03  0.10149455160E+03  0.49471558474E+03  0.00000000000E+00 0.  1.
         22    1    1    2    0    0 -0.71566029637E+03 -0.89479299994E+03  0.28764037940E+03  0.11813387154E+04  0.00000000000E+00 0. -1.
<mgrwt>
<rscale>  0 0.22955284E+04</rscale>
<asrwt>0</asrwt>
<pdfrwt beam="1">  1        2 0.13534884E+00 0.22955284E+04</pdfrwt>
<pdfrwt beam="2">  1       -2 0.23036904E+00 0.22955284E+04</pdfrwt>
<totfact> 0.23339545E+00</totfact>
</mgrwt>
</event>
<event>
 6    1  0.1773638E-005  0.3665500E+04  0.7818608E-02  0.8075651E-01
          2   -1    0    0  501    0  0.00000000000E+00  0.00000000000E+00  0.14292851300E+04  0.14292851300E+04  0.00000000000E+00 0.  1.
         -2   -1    0    0    0  501 -0.00000000000E+00 -0.00000000000E+00 -0.23501071607E+04  0.23501071607E+04  0.00000000000E+00 0. -1.
         23    2    1    2    0    0  0.40175159690E+03 -0.16778923422E+04  0.17337632370E+03  0.17363560462E+04  0.90254706205E+02 0.  0.
         11    1    3    3    0    0  0.25465473068E+02 -0.22892958838E+03  0.11927011516E+02  0.23065016878E+03  0.00000000000E+00 0.  1.
        -11    1    3    3    0    0  0.37628612383E+03 -0.14489627538E+04  0.16144931219E+03  0.15057058774E+04  0.00000000000E+00 0. -1.
         22    1    1    2    0    0 -0.40175159690E+03  0.16778923422E+04 -0.10941983544E+04  0.20430362445E+04  0.00000000000E+00 0. -1.
<mgrwt>
<rscale>  0 0.36655004E+04</rscale>
<asrwt>0</asrwt>
<pdfrwt beam="1">  1        2 0.21989002E+00 0.36655004E+04</pdfrwt>
<pdfrwt beam="2">  1       -2 0.36155495E+00 0.36655004E+04</pdfrwt>
<totfact> 0.14829712E-01</totfact>
</mgrwt>
</event>
<event>
 6    1  0.1773638E-005  0.1623991E+04  0.7818608E-02  0.8805944E-01
         -1   -1    0    0    0  501 -0.00000000000E+00  0.00000000000E+00  0.28988412333E+03  0.28988412333E+03  0.00000000000E+00 0.  1.
          1   -1    0    0  501    0  0.00000000000E+00 -0.00000000000E+00 -0.22744828310E+04  0.22744828310E+04  0.00000000000E+00 0. -1.
         23    2    1    2    0    0  0.28971926646E+03  0.59228384922E+03 -0.25393209485E+03  0.71235606447E+03  0.90731705543E+02 0.  0.
         13    1    3    3    0    0  0.13237387380E+03  0.18538721003E+03 -0.64564758525E+02  0.23676965209E+03  0.00000000000E+00 0.  1.
        -13    1    3    3    0    0  0.15734539266E+03  0.40689663919E+03 -0.18936733632E+03  0.47558641238E+03  0.00000000000E+00 0. -1.
         22    1    1    2    0    0 -0.28971926646E+03 -0.59228384922E+03 -0.17306666128E+04  0.18520108898E+04  0.00000000000E+00 0. -1.
<mgrwt>
<rscale>  0 0.16239907E+04</rscale>
<asrwt>0</asrwt>
<pdfrwt beam="1">  1        1 0.34992044E+00 0.16239907E+04</pdfrwt>
<pdfrwt beam="2">  1       -1 0.44597557E-01 0.16239907E+04</pdfrwt>
<totfact> 0.92510480E+00</totfact>
</mgrwt>
</event>
<event>
 6    1  0.1773638E-005  0.1085027E+04  0.7818608E-02  0.9219910E-01
         -2   -1    0    0    0  501 -0.00000000000E+00  0.00000000000E+00  0.23740534059E+03  0.23740534059E+03  0.00000000000E+00 0.  1.
          2   -1    0    0  501    0  0.00000000000E+00 -0.00000000000E+00 -0.12397392241E+04  0.12397392241E+04  0.00000000000E+00 0. -1.
         23    2    1    2    0    0  0.53223963840E+03  0.56971638812E+02 -0.58694247543E+03  0.79959395977E+03  0.91237222279E+02 0.  0.
         11    1    3    3    0    0  0.10574973583E+03  0.30800622724E+02 -0.17015811016E+03  0.20269550424E+03  0.00000000000E+00 0.  1.
        -11    1    3    3    0    0  0.42648990258E+03  0.26171016087E+02 -0.41678436527E+03  0.59689845553E+03  0.00000000000E+00 0. -1.
         22    1    1    2    0    0 -0.53223963840E+03 -0.56971638812E+02 -0.41539140808E+03  0.67755060492E+03  0.00000000000E+00 0.  1.
<mgrwt>
<rscale>  0 0.10850267E+04</rscale>
<asrwt>0</asrwt>
<pdfrwt beam="1">  1        2 0.19072911E+00 0.10850267E+04</pdfrwt>
<pdfrwt beam="2">  1       -2 0.36523899E-01 0.10850267E+04</pdfrwt>
<totfact> 0.12568235E+02</totfact>
</mgrwt>
</event>
<event>
 6    1  0.1773638E-005  0.1460727E+04  0.7818608E-02  0.8910997E-01
         -2   -1    0    0    0  501 -0.00000000000E+00  0.00000000000E+00  0.63502339064E+03  0.63502339064E+03  0.00000000000E+00 0. -1.
          2   -1    0    0  501    0  0.00000000000E+00 -0.00000000000E+00 -0.84001798241E+03  0.84001798241E+03  0.00000000000E+00 0.  1.
         23    2    1    2    0    0 -0.20827117335E+03 -0.72802813615E+02  0.59672359460E+03  0.64351916548E+03  0.96750900104E+02 0.  0.
         13    1    3    3    0    0 -0.49987706497E+02  0.10165708715E+02  0.22973828196E+03  0.23533336064E+03  0.00000000000E+00 0.  1.
        -13    1    3    3    0    0 -0.15828346685E+03 -0.82968522330E+02  0.36698531264E+03  0.40818580483E+03  0.00000000000E+00 0. -1.
         22    1    1    2    0    0  0.20827117335E+03  0.72802813615E+02 -0.80171818637E+03  0.83152220757E+03  0.00000000000E+00 0.  1.
<mgrwt>
<rscale>  0 0.14607273E+04</rscale>
<asrwt>0</asrwt>
<pdfrwt beam="1">  1        2 0.12923354E+00 0.14607273E+04</pdfrwt>
<pdfrwt beam="2">  1       -2 0.97695907E-01 0.14607273E+04</pdfrwt>
<totfact> 0.27284782E+01</totfact>
</mgrwt>
</event>
<event>
 6    1  0.1773638E-005  0.1180816E+04  0.7818608E-02  0.9129816E-01
          1   -1    0    0  501    0  0.00000000000E+00  0.00000000000E+00  0.51573901906E+03  0.51573901906E+03  0.00000000000E+00 0. -1.
         -1   -1    0    0    0  501 -0.00000000000E+00 -0.00000000000E+00 -0.67588771070E+03  0.67588771070E+03  0.00000000000E+00 0.  1.
         23    2    1    2    0    0 -0.69010445878E+02  0.43830234259E+03 -0.46828282642E+03  0.65142488769E+03  0.90521785359E+02 0.  0.
         13    1    3    3    0    0 -0.39720698985E+02  0.31454778416E+03 -0.38787418937E+03  0.50096350090E+03  0.00000000000E+00 0. -1.
        -13    1    3    3    0    0 -0.29289746893E+02  0.12375455842E+03 -0.80408637045E+02  0.15046138679E+03  0.00000000000E+00 0.  1.
         22    1    1    2    0    0  0.69010445878E+02 -0.43830234259E+03  0.30813413478E+03  0.54020184207E+03  0.00000000000E+00 0. -1.
<mgrwt>
<rscale>  0 0.11808161E+04</rscale>
<asrwt>0</asrwt>
<pdfrwt beam="1">  1        1 0.79344465E-01 0.11808161E+04</pdfrwt>
<pdfrwt beam="2">  1       -1 0.10398272E+00 0.11808161E+04</pdfrwt>
<totfact> 0.36663455E+01</totfact>
</mgrwt>
</event>
<event>
 6    1  0.1773638E-005  0.5630182E+04  0.7818608E-02  0.7738026E-01
         -1   -1    0    0    0  501 -0.00000000000E+00  0.00000000000E+00  0.27603163048E+04  0.27603163048E+04  0.00000000000E+00 0.  1.
          1   -1    0    0  501    0  0.00000000000E+00 -0.00000000000E+00 -0.28709526946E+04  0.28709526946E+04  0.00000000000E+00 0. -1.
         23    2    1    2    0    0  0.58853229921E+03  0.24760021616E+04 -0.12571580561E+04  0.28399487199E+04  0.88912215726E+02 0.  0.
         13    1    3    3    0    0  0.10524181487E+03  0.44534608202E+03 -0.26462845558E+03  0.52861819101E+03  0.00000000000E+00 0. -1.
        -13    1    3    3    0    0  0.48329048434E+03  0.20306560796E+04 -0.99252960052E+03  0.23113305289E+04  0.00000000000E+00 0.  1.
         22    1    1    2    0    0 -0.58853229921E+03 -0.24760021616E+04  0.11465216663E+04  0.27913202795E+04  0.00000000000E+00 0. -1.
<mgrwt>
<rscale>  0 0.56301821E+04</rscale>
<asrwt>0</asrwt>
<pdfrwt beam="1">  1        1 0.44168503E+00 0.56301821E+04</pdfrwt>
<pdfrwt beam="2">  1       -1 0.42466405E+00 0.56301821E+04</pdfrwt>
<totfact> 0.24707673E-03</totfact>
</mgrwt>
</event>
<event>
 6    1  0.1773638E-005  0.3891459E+04  0.7818608E-02  0.8026808E-01
          2   -1    0    0  501    0  0.00000000000E+00  0.00000000000E+00  0.24481310737E+04  0.24481310737E+04  0.00000000000E+00 0.  1.
         -2   -1    0    0    0  501 -0.00000000000E+00 -0.00000000000E+00 -0.15464296503E+04  0.15464296503E+04  0.00000000000E+00 0. -1.
         23    2    1    2    0    0 -0.62895029537E+03 -0.16623760649E+04 -0.35880148992E+03  0.18155838427E+04  0.92377083275E+02 0.  0.
         13    1    3    3    0    0 -0.26479950278E+03 -0.82253820988E+03 -0.19029758302E+03  0.88481696044E+03  0.00000000000E+00 0.  1.
        -13    1    3    3    0    0 -0.36415079259E+03 -0.83983785499E+03 -0.16850390690E+03  0.93076688223E+03  0.00000000000E+00 0. -1.
         22    1    1    2    0    0  0.62895029537E+03  0.16623760649E+04  0.12605029133E+04  0.21789768814E+04  0.00000000000E+00 0.  1.
<mgrwt>
<rscale>  0 0.38914586E+04</rscale>
<asrwt>0</asrwt>
<pdfrwt beam="1">  1        2 0.37663555E+00 0.38914586E+04</pdfrwt>
<pdfrwt beam="2">  1       -2 0.23791225E+00 0.38914586E+04</pdfrwt>
<totfact> 0.22655108E-01</totfact>
</mgrwt>
</event>
<event>
 6    1  0.1773638E-005  0.2860830E+04  0.7818608E-02  0.8284628E-01
          1   -1    0    0  501    0  0.00000000000E+00  0.00000000000E+00  0.16483172176E+04  0.16483172176E+04  0.00000000000E+00 0. -1.
         -1   -1    0    0    0  501 -0.00000000000E+00 -0.00000000000E+00 -0.12413186195E+04  0.12413186195E+04  0.00000000000E+00 0.  1.
         23    2    1    2    0    0  0.39605892004E+03 -0.25004591026E+03 -0.11589330885E+04  0.12551549798E+04  0.11358914714E+03 0.  0.
         13    1    3    3    0    0  0.24820546881E+03 -0.20337790913E+03 -0.86930010160E+03  0.92663433743E+03  0.00000000000E+00 0. -1.
        -13    1    3    3    0    0  0.14785345122E+03 -0.46668001133E+02 -0.28963298693E+03  0.32852064241E+03  0.00000000000E+00 0.  1.
         22    1    1    2    0    0 -0.39605892004E+03  0.25004591026E+03  0.15659316867E+04  0.16344808573E+04  0.00000000000E+00 0. -1.
<mgrwt>
<rscale>  0 0.28608298E+04</rscale>
<asrwt>0</asrwt>
<pdfrwt beam="1">  1        1 0.25358726E+00 0.28608298E+04</pdfrwt>
<pdfrwt beam="2">  1       -1 0.19097210E+00 0.28608298E+04</pdfrwt>
<totfact> 0.77455397E-01</totfact>
</mgrwt>
</event>
<event>
 6    1  0.1773638E-005  0.7128154E+03  0.7818608E-02  0.9695564E-01
          2   -1    0    0  501    0  0.00000000000E+00  0.00000000000E+00  0.81642773308E+03  0.81642773308E+03  0.00000000000E+00 0. -1.
         -2   -1    0    0    0  501 -0.00000000000E+00 -0.00000000000E+00 -0.15558809948E+03  0.15558809948E+03  0.00000000000E+00 0.  1.
         23    2    1    2    0    0  0.32725944012E+03 -0.60056687172E+02  0.48277960429E+03  0.59464211745E+03  0.99083574355E+02 0.  0.
         11    1    3    3    0    0  0.20465937535E+03 -0.96325755481E+01  0.22196053016E+03  0.30206741529E+03  0.00000000000E+00 0.  1.
        -11    1    3    3    0    0  0.12260006476E+03 -0.50424111624E+02  0.26081907413E+03  0.29257470216E+03  0.00000000000E+00 0. -1.
         22    1    1    2    0    0 -0.32725944012E+03  0.60056687172E+02  0.17806002931E+03  0.37737371511E+03  0.00000000000E+00 0.  1.
<mgrwt>
<rscale>  0 0.71281537E+03</rscale>
<asrwt>0</asrwt>
<pdfrwt beam="1">  1        2 0.12560426E+00 0.71281537E+03</pdfrwt>
<pdfrwt beam="2">  1       -2 0.23936631E-01 0.71281537E+03</pdfrwt>
<totfact> 0.52277260E+02</totfact>
</mgrwt>
</event>
<event>
 6    1  0.1773638E-005  0.2583144E+04  0.7818608E-02  0.8373949E-01
         -2   -1    0    0    0  501 -0.00000000000E+00  0.00000000000E+00  0.16446048477E+04  0.16446048477E+04  0.00000000000E+00 0. -1.
          2   -1    0    0  501    0  0.00000000000E+00 -0.00000000000E+00 -0.10143215086E+04  0.10143215086E+04  0.00000000000E+00 0.  1.
         23    2    1    2    0    0  0.19388027946E+03 -0.73406621644E+03 -0.75731433126E+03  0.10771962695E+04  0.10190207926E+03 0.  0.
         13    1    3    3    0    0  0.11245121054E+03 -0.55274622787E+03 -0.51516190178E+03  0.76391455820E+03  0.00000000000E+00 0. -1.
        -13    1    3    3    0    0  0.81429068922E+02 -0.18131998857E+03 -0.24215242948E+03  0.31328171128E+03  0.00000000000E+00 0.  1.
         22    1    1    2    0    0 -0.19388027946E+03  0.73406621644E+03  0.13875976704E+04  0.15817300869E+04  0.00000000000E+00 0. -1.
<mgrwt>
<rscale>  0 0.25831439E+04</rscale>
<asrwt>0</asrwt>
<pdfrwt beam="1">  1        2 0.15604946E+00 0.25831439E+04</pdfrwt>
<pdfrwt beam="2">  1       -2 0.25301613E+00 0.25831439E+04</pdfrwt>
<totfact> 0.13449639E+00</totfact>
</mgrwt>
</event>
<event>
 6    1  0.1773638E-005  0.3282283E+04  0.7818608E-02  0.8167418E-01
          2   -1    0    0  501    0  0.00000000000E+00  0.00000000000E+00  0.16663744159E+04  0.16663744159E+04  0.00000000000E+00 0. -1.
         -2   -1    0    0    0  501 -0.00000000000E+00 -0.00000000000E+00 -0.16162908202E+04  0.16162908202E+04  0.00000000000E+00 0.  1.
         23    2    1    2    0    0 -0.11494943047E+04 -0.87198581830E+03  0.80455005494E+03  0.16545018346E+04  0.91537455432E+02 0.  0.
         11    1    3    3    0    0 -0.94632428930E+03 -0.67394459752E+03  0.63542198818E+03  0.13241948815E+04  0.00000000000E+00 0.  1.
        -11    1    3    3    0    0 -0.20317001545E+03 -0.19804122077E+03  0.16912806677E+03  0.33030695310E+03  0.00000000000E+00 0. -1.
         22    1    1    2    0    0  0.11494943047E+04  0.87198581830E+03 -0.75446645919E+03  0.16281634015E+04  0.00000000000E+00 0.  1.
<mgrwt>
<rscale>  0 0.32822832E+04</rscale>
<asrwt>0</asrwt>
<pdfrwt beam="1">  1        2 0.25636529E+00 0.32822832E+04</pdfrwt>
<pdfrwt beam="2">  1       -2 0.24866013E+00 0.32822832E+04</pdfrwt>
<totfact> 0.56093057E-01</totfact>
</mgrwt>
</event>
<event>
 6    1  0.1773638E-005  0.4430393E+04  0.7818608E-02  0.7922937E-01
          1   -1    0    0  501    0  0.00000000000E+00  0.00000000000E+00  0.25428296721E+04  0.25428296721E+04  0.00000000000E+00 0. -1.
         -1   -1    0    0    0  501 -0.00000000000E+00 -0.00000000000E+00 -0.19297774818E+04  0.19297774818E+04  0.00000000000E+00 0.  1.
         23    2    1    2    0    0  0.14753111592E+04 -0.75512622072E+03 -0.11756800600E+04  0.20340990672E+04  0.92610939389E+02 0.  0.
         13    1    3    3    0    0  0.10639519520E+04 -0.58881248510E+03 -0.87517562267E+03  0.14982076857E+04  0.00000000000E+00 0. -1.
        -13    1    3    3    0    0  0.41135920715E+03 -0.16631373562E+03 -0.30050443731E+03  0.53589138153E+03  0.00000000000E+00 0.  1.
         22    1    1    2    0    0 -0.14753111592E+04  0.75512622072E+03  0.17887322503E+04  0.24385080867E+04  0.00000000000E+00 0. -1.
<mgrwt>
<rscale>  0 0.44303930E+04</rscale>
<asrwt>0</asrwt>
<pdfrwt beam="1">  1        1 0.39120457E+00 0.44303930E+04</pdfrwt>
<pdfrwt beam="2">  1       -1 0.29688884E+00 0.44303930E+04</pdfrwt>
<totfact> 0.33071386E-02</totfact>
</mgrwt>
</event>
<event>
 6    1  0.1773638E-005  0.1231245E+04  0.7818608E-02  0.9085939E-01
          1   -1    0    0  501    0  0.00000000000E+00  0.00000000000E+00  0.14659219742E+04  0.14659219742E+04  0.00000000000E+00 0. -1.
         -1   -1    0    0    0  501 -0.00000000000E+00 -0.00000000000E+00 -0.25853412113E+03  0.25853412113E+03  0.00000000000E+00 0.  1.
         23    2    1    2    0    0 -0.49018854801E+03 -0.89792279354E+02  0.11042555901E+04  0.12155516547E+04  0.99186445768E+02 0.  0.
         13    1    3    3    0    0 -0.26612625993E+03 -0.11841375417E+02  0.66406124649E+03  0.71550034485E+03  0.00000000000E+00 0.  1.
        -13    1    3    3    0    0 -0.22406228808E+03 -0.77950903937E+02  0.44019434359E+03  0.50005130986E+03  0.00000000000E+00 0. -1.
         22    1    1    2    0    0  0.49018854801E+03  0.89792279354E+02  0.10313226302E+03  0.50890444064E+03  0.00000000000E+00 0.  1.
<mgrwt>
<rscale>  0 0.12312447E+04</rscale>
<asrwt>0</asrwt>
<pdfrwt beam="1">  1        1 0.22552645E+00 0.12312447E+04</pdfrwt>
<pdfrwt beam="2">  1       -1 0.39774481E-01 0.12312447E+04</pdfrwt>
<totfact> 0.41975729E+01</totfact>
</mgrwt>
</event>
<event>
 6    1  0.1773638E-005  0.1700421E+04  0.7818608E-02  0.8761124E-01
         -1   -1    0    0    0  501 -0.00000000000E+00  0.00000000000E+00  0.41243876275E+03  0.41243876275E+03  0.00000000000E+00 0.  1.
          1   -1    0    0  501    0  0.00000000000E+00 -0.00000000000E+00 -0.17526434931E+04  0.17526434931E+04  0.00000000000E+00 0. -1.
         23    2    1    2    0    0  0.60190403083E+03  0.45791661620E+02 -0.14300809395E+04  0.15547847287E+04  0.88536548336E+02 0.  0.
         13    1    3    3    0    0  0.20403262020E+03 -0.20111639189E+02 -0.53958671289E+03  0.57722405430E+03  0.00000000000E+00 0. -1.
        -13    1    3    3    0    0  0.39787141062E+03  0.65903300809E+02 -0.89049422664E+03  0.97756067440E+03  0.00000000000E+00 0.  1.
         22    1    1    2    0    0 -0.60190403083E+03 -0.45791661620E+02  0.89876209229E+02  0.61029752710E+03  0.00000000000E+00 0.  1.
<mgrwt>
<rscale>  0 0.17004213E+04</rscale>
<asrwt>0</asrwt>
<pdfrwt beam="1">  1        1 0.26963746E+00 0.17004213E+04</pdfrwt>
<pdfrwt beam="2">  1       -1 0.63452117E-01 0.17004213E+04</pdfrwt>
<totfact> 0.10518082E+01</totfact>
</mgrwt>
</event>
<event>
 6    1  0.1773638E-005  0.1860880E+04  0.7818608E-02  0.8674578E-01
          2   -1    0    0  501    0  0.00000000000E+00  0.00000000000E+00  0.18260027428E+04  0.18260027428E+04  0.00000000000E+00 0. -1.
         -2   -1    0    0    0  501 -0.00000000000E+00 -0.00000000000E+00 -0.47410593488E+03  0.47410593488E+03  0.00000000000E+00 0.  1.
         23    2    1    2    0    0  0.40601645312E+03  0.10831799504E+03  0.16997688004E+04  0.17545840941E+04  0.11300097404E+03 0.  0.
         13    1    3    3    0    0  0.23140792850E+03  0.49691869274E+01  0.85309846276E+03  0.88394078385E+03  0.00000000000E+00 0. -1.
        -13    1    3    3    0    0  0.17460852462E+03  0.10334880812E+03  0.84667033763E+03  0.87064331022E+03  0.00000000000E+00 0.  1.
         22    1    1    2    0    0 -0.40601645312E+03 -0.10831799504E+03 -0.34787199242E+03  0.54552458365E+03  0.00000000000E+00 0.  1.
<mgrwt>
<rscale>  0 0.18608802E+04</rscale>
<asrwt>0</asrwt>
<pdfrwt beam="1">  1        2 0.28092350E+00 0.18608802E+04</pdfrwt>
<pdfrwt beam="2">  1       -2 0.72939375E-01 0.18608802E+04</pdfrwt>
<totfact> 0.13316449E+01</totfact>
</mgrwt>
</event>
<event>
 6    1  0.1773638E-005  0.1491231E+04  0.7818608E-02  0.8890305E-01
          2   -1    0    0  501    0  0.00000000000E+00  0.00000000000E+00  0.18671575580E+04  0.18671575580E+04  0.00000000000E+00 0. -1.
         -2   -1    0    0    0  501 -0.00000000000E+00 -0.00000000000E+00 -0.29774807589E+03  0.29774807589E+03  0.00000000000E+00 0.  1.
         23    2    1    2    0    0 -0.38761834430E+03  0.33928837084E+03  0.15646723742E+04  0.16497483574E+04  0.90030131539E+02 0.  0.
         11    1    3    3    0    0 -0.11287044231E+03  0.15448763537E+03  0.60817147312E+03  0.63755682644E+03  0.00000000000E+00 0.  1.
        -11    1    3    3    0    0 -0.27474790200E+03  0.18480073547E+03  0.95650090108E+03  0.10121915309E+04  0.00000000000E+00 0. -1.
         22    1    1    2    0    0  0.38761834430E+03 -0.33928837084E+03  0.47371079540E+01  0.51515727658E+03  0.00000000000E+00 0.  1.
<mgrwt>
<rscale>  0 0.14912311E+04</rscale>
<asrwt>0</asrwt>
<pdfrwt beam="1">  1        2 0.28725500E+00 0.14912311E+04</pdfrwt>
<pdfrwt beam="2">  1       -2 0.45807397E-01 0.14912311E+04</pdfrwt>
<totfact> 0.34602230E+01</totfact>
</mgrwt>
</event>
<event>
 6    1  0.1773638E-005  0.2045988E+04  0.7818608E-02  0.8585417E-01
         -1   -1    0    0    0  501 -0.00000000000E+00  0.00000000000E+00  0.29444155604E+03  0.29444155604E+03  0.00000000000E+00 0.  1.
          1   -1    0    0  501    0  0.00000000000E+00 -0.00000000000E+00 -0.35542419236E+04  0.35542419236E+04  0.00000000000E+00 0. -1.
         23    2    1    2    0    0  0.57718343834E+03  0.29847787340E+03 -0.15175777614E+03  0.67344199079E+03  0.90906160045E+02 0.  0.
         11    1    3    3    0    0  0.13297294875E+03  0.67972116781E+02  0.37396333351E+01  0.14938540296E+03  0.00000000000E+00 0. -1.
        -11    1    3    3    0    0  0.44421048959E+03  0.23050575662E+03 -0.15549740947E+03  0.52405658783E+03  0.00000000000E+00 0.  1.
         22    1    1    2    0    0 -0.57718343834E+03 -0.29847787340E+03 -0.31080425914E+04  0.31752414888E+04  0.00000000000E+00 0. -1.
<mgrwt>
<rscale>  0 0.20459878E+04</rscale>
<asrwt>0</asrwt>
<pdfrwt beam="1">  1        1 0.54680643E+00 0.20459878E+04</pdfrwt>
<pdfrwt beam="2">  1       -1 0.45298703E-01 0.20459878E+04</pdfrwt>
<totfact> 0.10159638E+00</totfact>
</mgrwt>
</event>
<event>
 6    1  0.1773638E-005  0.1046118E+04  0.7818608E-02  0.9259361E-01
          2   -1    0    0  501    0  0.00000000000E+00  0.00000000000E+00  0.28443536396E+04  0.28443536396E+04  0.00000000000E+00 0. -1.
         -2   -1    0    0    0  501 -0.00000000000E+00 -0.00000000000E+00 -0.96187325740E+02  0.96187325740E+02  0.00000000000E+00 0.  1.
         23    2    1    2    0    0 -0.51861446313E+03 -0.14755115211E+01  0.14571474377E+04  0.15492491638E+04  0.89057160056E+02 0.  0.
         11    1    3    3    0    0 -0.32321308858E+03  0.28593134455E+02  0.80988120038E+03  0.87246308042E+03  0.00000000000E+00 0.  1.
        -11    1    3    3    0    0 -0.19540137455E+03 -0.30068645976E+02  0.64726623734E+03  0.67678608337E+03  0.00000000000E+00 0. -1.
         22    1    1    2    0    0  0.51861446313E+03  0.14755115211E+01  0.12910188761E+04  0.13912918015E+04  0.00000000000E+00 0.  1.
<mgrwt>
<rscale>  0 0.10461181E+04</rscale>
<asrwt>0</asrwt>
<pdfrwt beam="1">  1        2 0.43759280E+00 0.10461181E+04</pdfrwt>
<pdfrwt beam="2">  1       -2 0.14798052E-01 0.10461181E+04</pdfrwt>
<totfact> 0.79161409E+01</totfact>
</mgrwt>
</event>
<event>
 6    1  0.1773638E-005  0.4614401E+03  0.7818608E-02  0.1024364E+00
         -2   -1    0    0    0  501 -0.00000000000E+00  0.00000000000E+00  0.61226833968E+02  0.61226833968E+02  0.00000000000E+00 0.  1.
          2   -1    0    0  501    0  0.00000000000E+00 -0.00000000000E+00 -0.86941834773E+03  0.86941834773E+03  0.00000000000E+00 0. -1.
         23    2    1    2    0    0  0.13043568492E+02  0.20712096462E+03 -0.57711868787E+03  0.62005883375E+03  0.91311273983E+02 0.  0.
         13    1    3    3    0    0  0.24542752035E+02  0.13773115992E+03 -0.26016558036E+03  0.29539524081E+03  0.00000000000E+00 0.  1.
        -13    1    3    3    0    0 -0.11499183543E+02  0.69389804704E+02 -0.31695310751E+03  0.32466359294E+03  0.00000000000E+00 0. -1.
         22    1    1    2    0    0 -0.13043568492E+02 -0.20712096462E+03 -0.23107282589E+03  0.31058634795E+03  0.00000000000E+00 0.  1.
<mgrwt>
<rscale>  0 0.46144006E+03</rscale>
<asrwt>0</asrwt>
<pdfrwt beam="1">  1        2 0.13375666E+00 0.46144006E+03</pdfrwt>
<pdfrwt beam="2">  1       -2 0.94195132E-02 0.46144006E+03</pdfrwt>
<totfact> 0.23304201E+03</totfact>
</mgrwt>
</event>
<event>
 6    1  0.1773638E-005  0.2543238E+04  0.7818608E-02  0.8387742E-01
          2   -1    0    0  501    0  0.00000000000E+00  0.00000000000E+00  0.72996274924E+03  0.72996274924E+03  0.00000000000E+00 0. -1.
         -2   -1    0    0    0  501 -0.00000000000E+00 -0.00000000000E+00 -0.22152018197E+04  0.22152018197E+04  0.00000000000E+00 0.  1.
         23    2    1    2    0    0  0.88880815730E+03 -0.84850721037E+03 -0.11151728340E+04  0.16618511053E+04  0.90521931568E+02 0.  0.
         11    1    3    3    0    0  0.16833512147E+03 -0.17004251845E+03 -0.26645049097E+03  0.35811595237E+03  0.00000000000E+00 0.  1.
        -11    1    3    3    0    0  0.72047303583E+03 -0.67846469191E+03 -0.84872234302E+03  0.13037351530E+04  0.00000000000E+00 0. -1.
         22    1    1    2    0    0 -0.88880815730E+03  0.84850721037E+03 -0.37006623647E+03  0.12833134636E+04  0.00000000000E+00 0. -1.
<mgrwt>
<rscale>  0 0.25432379E+04</rscale>
<asrwt>0</asrwt>
<pdfrwt beam="1">  1        2 0.11230196E+00 0.25432379E+04</pdfrwt>
<pdfrwt beam="2">  1       -2 0.34080027E+00 0.25432379E+04</pdfrwt>
<totfact> 0.61370417E-01</totfact>
</mgrwt>
</event>
<event>
 6    1  0.2092723E-005  0.3500790E+04  0.7818608E-02  0.8113603E-01
         -1   -1    0    0    0  501 -0.00000000000E+00  0.00000000000E+00  0.12191329281E+04  0.12191329281E+04  0.00000000000E+00 0.  1.
          1   -1    0    0  501    0  0.00000000000E+00 -0.00000000000E+00 -0.25131649338E+04  0.25131649338E+04  0.00000000000E+00 0. -1.
         23    2    1    2    0    0  0.87531936223E+03  0.93990349481E+03  0.61870311840E+03  0.14283538044E+04  0.88308981881E+02 0.  0.
         11    1    3    3    0    0  0.50015512569E+03  0.53340262604E+03  0.40047401978E+03  0.83369835776E+03  0.00000000000E+00 0. -1.
        -11    1    3    3    0    0  0.37516423654E+03  0.40650086877E+03  0.21822909862E+03  0.59465544661E+03  0.00000000000E+00 0.  1.
         22    1    1    2    0    0 -0.87531936223E+03 -0.93990349481E+03 -0.19127351240E+04  0.23039440575E+04  0.00000000000E+00 0. -1.
<mgrwt>
<rscale>  0 0.35007897E+04</rscale>
<asrwt>0</asrwt>
<pdfrwt beam="1">  1        1 0.38664076E+00 0.35007897E+04</pdfrwt>
<pdfrwt beam="2">  1       -1 0.18755891E+00 0.35007897E+04</pdfrwt>
<totfact> 0.19890326E-01</totfact>
</mgrwt>
</event>
<event>
 6    1  0.1773638E-005  0.4089799E+04  0.7818608E-02  0.7986672E-01
          2   -1    0    0  501    0  0.00000000000E+00  0.00000000000E+00  0.35190935393E+04  0.35190935393E+04  0.00000000000E+00 0.  1.
         -2   -1    0    0    0  501 -0.00000000000E+00 -0.00000000000E+00 -0.11882642576E+04  0.11882642576E+04  0.00000000000E+00 0. -1.
         23    2    1    2    0    0 -0.12873130361E+04  0.19679718317E+03  0.29791515513E+04  0.32526324794E+04  0.91488230105E+02 0.  0.
         11    1    3    3    0    0 -0.36475710167E+03  0.38854780013E+02  0.93521612255E+03  0.10045828154E+04  0.00000000000E+00 0. -1.
        -11    1    3    3    0    0 -0.92255593441E+03  0.15794240315E+03  0.20439354287E+04  0.22480496640E+04  0.00000000000E+00 0.  1.
         22    1    1    2    0    0  0.12873130361E+04 -0.19679718317E+03 -0.64832226963E+03  0.14547253175E+04  0.00000000000E+00 0. -1.
<mgrwt>
<rscale>  0 0.40897986E+04</rscale>
<asrwt>0</asrwt>
<pdfrwt beam="1">  1        2 0.54139900E+00 0.40897986E+04</pdfrwt>
<pdfrwt beam="2">  1       -2 0.18280989E+00 0.40897986E+04</pdfrwt>
<totfact> 0.10686326E-01</totfact>
</mgrwt>
</event>
<event>
 6    1  0.1773638E-005  0.8306134E+03  0.7818608E-02  0.9516733E-01
          2   -1    0    0  501    0  0.00000000000E+00  0.00000000000E+00  0.50959656688E+03  0.50959656688E+03  0.00000000000E+00 0. -1.
         -2   -1    0    0    0  501 -0.00000000000E+00 -0.00000000000E+00 -0.33846317224E+03  0.33846317224E+03  0.00000000000E+00 0.  1.
         23    2    1    2    0    0 -0.12197778475E+03 -0.38923842893E+03  0.42956561758E+02  0.42049169188E+03  0.92643738133E+02 0.  0.
         13    1    3    3    0    0 -0.80477304355E+02 -0.35556893531E+03  0.42659692866E+02  0.36705001522E+03  0.00000000000E+00 0. -1.
        -13    1    3    3    0    0 -0.41500480397E+02 -0.33669493618E+02  0.29686889151E+00  0.53441676666E+02  0.00000000000E+00 0.  1.
         22    1    1    2    0    0  0.12197778475E+03  0.38923842893E+03  0.12817683289E+03  0.42756804724E+03  0.00000000000E+00 0.  1.
<mgrwt>
<rscale>  0 0.83061344E+03</rscale>
<asrwt>0</asrwt>
<pdfrwt beam="1">  1        2 0.78399472E-01 0.83061344E+03</pdfrwt>
<pdfrwt beam="2">  1       -2 0.52071257E-01 0.83061344E+03</pdfrwt>
<totfact> 0.21101932E+02</totfact>
</mgrwt>
</event>
<event>
 6    1  0.1773638E-005  0.2318785E+04  0.7818608E-02  0.8470551E-01
         -1   -1    0    0    0  501 -0.00000000000E+00  0.00000000000E+00  0.14256783138E+04  0.14256783138E+04  0.00000000000E+00 0.  1.
          1   -1    0    0  501    0  0.00000000000E+00 -0.00000000000E+00 -0.94284306100E+03  0.94284306100E+03  0.00000000000E+00 0. -1.
         23    2    1    2    0    0  0.20936422482E+03 -0.43177784412E+03  0.13178390604E+04  0.14054549992E+04  0.91315279150E+02 0.  0.
         11    1    3    3    0    0  0.81601698336E+02 -0.23665199407E+03  0.78110018990E+03  0.82023198555E+03  0.00000000000E+00 0. -1.
        -11    1    3    3    0    0  0.12776252648E+03 -0.19512585006E+03  0.53673887051E+03  0.58522301360E+03  0.00000000000E+00 0.  1.
         22    1    1    2    0    0 -0.20936422482E+03  0.43177784412E+03 -0.83500380758E+03  0.96306637569E+03  0.00000000000E+00 0. -1.
<mgrwt>
<rscale>  0 0.23187849E+04</rscale>
<asrwt>0</asrwt>
<pdfrwt beam="1">  1        1 0.14505278E+00 0.23187849E+04</pdfrwt>
<pdfrwt beam="2">  1       -1 0.21933513E+00 0.23187849E+04</pdfrwt>
<totfact> 0.16850969E+00</totfact>
</mgrwt>
</event>
<event>
 6    1  0.1773638E-005  0.2942427E+04  0.7818608E-02  0.8260365E-01
          1   -1    0    0  501    0  0.00000000000E+00  0.00000000000E+00  0.15585141779E+04  0.15585141779E+04  0.00000000000E+00 0. -1.
         -1   -1    0    0    0  501 -0.00000000000E+00 -0.00000000000E+00 -0.13888033261E+04  0.13888033261E+04  0.00000000000E+00 0.  1.
         23    2    1    2    0    0 -0.76114553263E+03  0.37436640416E+03  0.12872520900E+04  0.15443238671E+04  0.91790723918E+02 0.  0.
         13    1    3    3    0    0 -0.13186402133E+03  0.46595631859E+02  0.16159958264E+03  0.21371405695E+03  0.00000000000E+00 0.  1.
        -13    1    3    3    0    0 -0.62928151131E+03  0.32777077230E+03  0.11256525073E+04  0.13306098102E+04  0.00000000000E+00 0. -1.
         22    1    1    2    0    0  0.76114553263E+03 -0.37436640416E+03 -0.11175412381E+04  0.14029936370E+04  0.00000000000E+00 0.  1.
<mgrwt>
<rscale>  0 0.29424273E+04</rscale>
<asrwt>0</asrwt>
<pdfrwt beam="1">  1        1 0.23977141E+00 0.29424273E+04</pdfrwt>
<pdfrwt beam="2">  1       -1 0.21366205E+00 0.29424273E+04</pdfrwt>
<totfact> 0.61886499E-01</totfact>
</mgrwt>
</event>
<event>
 6    1  0.1773638E-005  0.2486270E+04  0.7818608E-02  0.8407893E-01
          2   -1    0    0  501    0  0.00000000000E+00  0.00000000000E+00  0.23525614050E+04  0.23525614050E+04  0.00000000000E+00 0.  1.
         -2   -1    0    0    0  501 -0.00000000000E+00 -0.00000000000E+00 -0.65689453081E+03  0.65689453081E+03  0.00000000000E+00 0. -1.
         23    2    1    2    0    0 -0.74642965404E+02 -0.99712483515E+03 -0.40839293040E+02  0.10056387840E+04  0.99055574442E+02 0.  0.
         13    1    3    3    0    0 -0.88564517811E+02 -0.94626127868E+03 -0.25579583786E+02  0.95074097232E+03  0.00000000000E+00 0. -1.
        -13    1    3    3    0    0  0.13921552407E+02 -0.50863556470E+02 -0.15259709254E+02  0.54897811657E+02  0.00000000000E+00 0.  1.
         22    1    1    2    0    0  0.74642965404E+02  0.99712483515E+03  0.17365061672E+04  0.20038171518E+04  0.00000000000E+00 0.  1.
<mgrwt>
<rscale>  0 0.24862701E+04</rscale>
<asrwt>0</asrwt>
<pdfrwt beam="1">  1        2 0.36193252E+00 0.24862701E+04</pdfrwt>
<pdfrwt beam="2">  1       -2 0.10106070E+00 0.24862701E+04</pdfrwt>
<totfact> 0.30432259E+00</totfact>
</mgrwt>
</event>
<event>
 6    1  0.1773638E-005  0.3464354E+04  0.7818608E-02  0.8122290E-01
          2   -1    0    0  501    0  0.00000000000E+00  0.00000000000E+00  0.21102393980E+04  0.21102393980E+04  0.00000000000E+00 0.  1.
         -2   -1    0    0    0  501 -0.00000000000E+00 -0.00000000000E+00 -0.14218466489E+04  0.14218466489E+04  0.00000000000E+00 0. -1.
         23    2    1    2    0    0  0.12169170141E+04  0.13667877100E+03  0.15917066795E+04  0.20103948290E+04  0.92677446951E+02 0.  0.
         13    1    3    3    0    0  0.83201878193E+03  0.13570267460E+03  0.11076714182E+04  0.13919793246E+04  0.00000000000E+00 0. -1.
        -13    1    3    3    0    0  0.38489823221E+03  0.97609640052E+00  0.48403526135E+03  0.61841550445E+03  0.00000000000E+00 0.  1.
         22    1    1    2    0    0 -0.12169170141E+04 -0.13667877100E+03 -0.90331393038E+03  0.15216912179E+04  0.00000000000E+00 0. -1.
<mgrwt>
<rscale>  0 0.34643538E+04</rscale>
<asrwt>0</asrwt>
<pdfrwt beam="1">  1        2 0.32465221E+00 0.34643538E+04</pdfrwt>
<pdfrwt beam="2">  1       -2 0.21874564E+00 0.34643538E+04</pdfrwt>
<totfact> 0.48108408E-01</totfact>
</mgrwt>
</event>
<event>
 6    1  0.1773638E-005  0.2425411E+04  0.7818608E-02  0.8430051E-01
          1   -1    0    0  501    0  0.00000000000E+00  0.00000000000E+00  0.28378441303E+04  0.28378441303E+04  0.00000000000E+00 0. -1.
         -1   -1    0    0    0  501 -0.00000000000E+00 -0.00000000000E+00 -0.51822953897E+03  0.51822953897E+03  0.00000000000E+00 0.  1.
         23    2    1    2    0    0  0.65792872161E+03 -0.24092614049E+03  0.25283289856E+04  0.26249941207E+04  0.85035677612E+02 0.  0.
         11    1    3    3    0    0  0.31610383225E+03 -0.70651048828E+02  0.11651080702E+04  0.12092931897E+04  0.00000000000E+00 0. -1.
        -11    1    3    3    0    0  0.34182488936E+03 -0.17027509166E+03  0.13632209154E+04  0.14157009310E+04  0.00000000000E+00 0.  1.
         22    1    1    2    0    0 -0.65792872161E+03  0.24092614049E+03 -0.20871439430E+03  0.73107954853E+03  0.00000000000E+00 0.  1.
<mgrwt>
<rscale>  0 0.24254110E+04</rscale>
<asrwt>0</asrwt>
<pdfrwt beam="1">  1        1 0.43659139E+00 0.24254110E+04</pdfrwt>
<pdfrwt beam="2">  1       -1 0.79727623E-01 0.24254110E+04</pdfrwt>
<totfact> 0.11001354E+00</totfact>
</mgrwt>
</event>
<event>
 6    1  0.1773638E-005  0.2150822E+04  0.7818608E-02  0.8539180E-01
          1   -1    0    0  501    0  0.00000000000E+00  0.00000000000E+00  0.84683298055E+03  0.84683298055E+03  0.00000000000E+00 0. -1.
         -1   -1    0    0    0  501 -0.00000000000E+00 -0.00000000000E+00 -0.13656874776E+04  0.13656874776E+04  0.00000000000E+00 0.  1.
         23    2    1    2    0    0 -0.62723090491E+03  0.86776756090E+03 -0.33987233938E+03  0.11269451450E+04  0.89738536710E+02 0.  0.
         13    1    3    3    0    0 -0.52595799196E+03  0.66540568554E+03 -0.27045293458E+03  0.89024790113E+03  0.00000000000E+00 0.  1.
        -13    1    3    3    0    0 -0.10127291295E+03  0.20236187536E+03 -0.69419404800E+02  0.23669724388E+03  0.00000000000E+00 0. -1.
         22    1    1    2    0    0  0.62723090491E+03 -0.86776756090E+03 -0.17898215772E+03  0.10855753132E+04  0.00000000000E+00 0. -1.
<mgrwt>
<rscale>  0 0.21508224E+04</rscale>
<asrwt>0</asrwt>
<pdfrwt beam="1">  1        1 0.13028200E+00 0.21508224E+04</pdfrwt>
<pdfrwt beam="2">  1       -1 0.21010577E+00 0.21508224E+04</pdfrwt>
<totfact> 0.23680000E+00</totfact>
</mgrwt>
</event>
<event>
 6    1  0.1773638E-005  0.1295121E+04  0.7818608E-02  0.9033443E-01
          1   -1    0    0  501    0  0.00000000000E+00  0.00000000000E+00  0.23921982519E+04  0.23921982519E+04  0.00000000000E+00 0. -1.
         -1   -1    0    0    0  501 -0.00000000000E+00 -0.00000000000E+00 -0.17529265925E+03  0.17529265925E+03  0.00000000000E+00 0.  1.
         23    2    1    2    0    0  0.45469903100E+03  0.26485770230E+03  0.18511992590E+04  0.19266774174E+04  0.90809487559E+02 0.  0.
         11    1    3    3    0    0  0.23540707535E+03  0.10258120439E+03  0.77470699424E+03  0.81615581941E+03  0.00000000000E+00 0.  1.
        -11    1    3    3    0    0  0.21929195565E+03  0.16227649791E+03  0.10764922648E+04  0.11105215980E+04  0.00000000000E+00 0. -1.
         22    1    1    2    0    0 -0.45469903100E+03 -0.26485770230E+03  0.36570633362E+03  0.64081349370E+03  0.00000000000E+00 0.  1.
<mgrwt>
<rscale>  0 0.12951213E+04</rscale>
<asrwt>0</asrwt>
<pdfrwt beam="1">  1        1 0.36803048E+00 0.12951213E+04</pdfrwt>
<pdfrwt beam="2">  1       -1 0.26968103E-01 0.12951213E+04</pdfrwt>
<totfact> 0.19504409E+01</totfact>
</mgrwt>
</event>
<event>
 6    1  0.1773638E-005  0.1258878E+04  0.7818608E-02  0.9062826E-01
         -1   -1    0    0    0  501 -0.00000000000E+00  0.00000000000E+00  0.27723416733E+03  0.27723416733E+03  0.00000000000E+00 0.  1.
          1   -1    0    0  501    0  0.00000000000E+00 -0.00000000000E+00 -0.14290935754E+04  0.14290935754E+04  0.00000000000E+00 0. -1.
         23    2    1    2    0    0  0.56154978067E+03  0.14061557671E+03 -0.25492538713E+03  0.63880653241E+03  0.89308097427E+02 0.  0.
         13    1    3    3    0    0  0.32599213391E+03  0.57178405180E+02 -0.18566091477E+03  0.37948678062E+03  0.00000000000E+00 0. -1.
        -13    1    3    3    0    0  0.23555764676E+03  0.83437171527E+02 -0.69264472358E+02  0.25931975179E+03  0.00000000000E+00 0.  1.
         22    1    1    2    0    0 -0.56154978067E+03 -0.14061557671E+03 -0.89693402098E+03  0.10675212104E+04  0.00000000000E+00 0. -1.
<mgrwt>
<rscale>  0 0.12588782E+04</rscale>
<asrwt>0</asrwt>
<pdfrwt beam="1">  1        1 0.21986055E+00 0.12588782E+04</pdfrwt>
<pdfrwt beam="2">  1       -1 0.42651410E-01 0.12588782E+04</pdfrwt>
<totfact> 0.39080912E+01</totfact>
</mgrwt>
</event>
<event>
 6    1  0.1773638E-005  0.8557733E+03  0.7818608E-02  0.9482621E-01
         -2   -1    0    0    0  501 -0.00000000000E+00  0.00000000000E+00  0.93054527904E+02  0.93054527904E+02  0.00000000000E+00 0.  1.
          2   -1    0    0  501    0  0.00000000000E+00 -0.00000000000E+00 -0.19675234825E+04  0.19675234825E+04  0.00000000000E+00 0. -1.
         23    2    1    2    0    0  0.66543184317E+02  0.39681932743E+03 -0.12633322014E+04  0.13288801868E+04  0.89558504400E+02 0.  0.
         11    1    3    3    0    0  0.52261078775E+02  0.23661238150E+03 -0.88950188986E+03  0.92191661852E+03  0.00000000000E+00 0.  1.
        -11    1    3    3    0    0  0.14282105541E+02  0.16020694594E+03 -0.37383031154E+03  0.40696356826E+03  0.00000000000E+00 0. -1.
         22    1    1    2    0    0 -0.66543184317E+02 -0.39681932743E+03 -0.61113675323E+03  0.73169782366E+03  0.00000000000E+00 0.  1.
<mgrwt>
<rscale>  0 0.85577326E+03</rscale>
<asrwt>0</asrwt>
<pdfrwt beam="1">  1        2 0.30269589E+00 0.85577326E+03</pdfrwt>
<pdfrwt beam="2">  1       -2 0.14316083E-01 0.85577326E+03</pdfrwt>
<totfact> 0.26789008E+02</totfact>
</mgrwt>
</event>
<event>
 6    1  0.1773638E-005  0.1967792E+04  0.7818608E-02  0.8621829E-01
         -1   -1    0    0    0  501 -0.00000000000E+00  0.00000000000E+00  0.10478423124E+04  0.10478423124E+04  0.00000000000E+00 0.  1.
          1   -1    0    0  501    0  0.00000000000E+00 -0.00000000000E+00 -0.92385220978E+03  0.92385220978E+03  0.00000000000E+00 0. -1.
         23    2    1    2    0    0 -0.82469037184E+03  0.12274707536E+03  0.58178492148E+03  0.10205072903E+04  0.88206466504E+02 0.  0.
         13    1    3    3    0    0 -0.19142180352E+03  0.49904515619E+02  0.17664942052E+03  0.26521271710E+03  0.00000000000E+00 0. -1.
        -13    1    3    3    0    0 -0.63326856833E+03  0.72842559746E+02  0.40513550096E+03  0.75529457318E+03  0.00000000000E+00 0.  1.
         22    1    1    2    0    0  0.82469037184E+03 -0.12274707536E+03 -0.45779481887E+03  0.95118723189E+03  0.00000000000E+00 0. -1.
<mgrwt>
<rscale>  0 0.19677921E+04</rscale>
<asrwt>0</asrwt>
<pdfrwt beam="1">  1        1 0.14213111E+00 0.19677921E+04</pdfrwt>
<pdfrwt beam="2">  1       -1 0.16120651E+00 0.19677921E+04</pdfrwt>
<totfact> 0.46315714E+00</totfact>
</mgrwt>
</event>
<event>
 6    1  0.1773638E-005  0.4325997E+04  0.7818608E-02  0.7941828E-01
         -2   -1    0    0    0  501 -0.00000000000E+00  0.00000000000E+00  0.26165571404E+04  0.26165571404E+04  0.00000000000E+00 0.  1.
          2   -1    0    0  501    0  0.00000000000E+00 -0.00000000000E+00 -0.17880607075E+04  0.17880607075E+04  0.00000000000E+00 0. -1.
         23    2    1    2    0    0 -0.58425655883E+03 -0.18202757949E+04 -0.61358373163E+03  0.20099665378E+04  0.93385176778E+02 0.  0.
         11    1    3    3    0    0 -0.12634770765E+03 -0.28381279672E+03 -0.10754967913E+03  0.32875580648E+03  0.00000000000E+00 0.  1.
        -11    1    3    3    0    0 -0.45790885118E+03 -0.15364629982E+04 -0.50603405250E+03  0.16812107313E+04  0.00000000000E+00 0. -1.
         22    1    1    2    0    0  0.58425655883E+03  0.18202757949E+04  0.14420801646E+04  0.23946513101E+04  0.00000000000E+00 0.  1.
<mgrwt>
<rscale>  0 0.43259972E+04</rscale>
<asrwt>0</asrwt>
<pdfrwt beam="1">  1        2 0.27508626E+00 0.43259972E+04</pdfrwt>
<pdfrwt beam="2">  1       -2 0.40254725E+00 0.43259972E+04</pdfrwt>
<totfact> 0.48084931E-02</totfact>
</mgrwt>
</event>
<event>
 6    1  0.1773638E-005  0.2241511E+04  0.7818608E-02  0.8501346E-01
         -2   -1    0    0    0  501 -0.00000000000E+00  0.00000000000E+00  0.11830213558E+04  0.11830213558E+04  0.00000000000E+00 0.  1.
          2   -1    0    0  501    0  0.00000000000E+00 -0.00000000000E+00 -0.10617671878E+04  0.10617671878E+04  0.00000000000E+00 0. -1.
         23    2    1    2    0    0 -0.73346361211E+02  0.10789811345E+04  0.34852648452E+03  0.11396945734E+04  0.88617340199E+02 0.  0.
         13    1    3    3    0    0  0.17272969576E+00  0.52831984382E+02  0.37976733509E+02  0.65065203429E+02  0.00000000000E+00 0. -1.
        -13    1    3    3    0    0 -0.73519090907E+02  0.10261491501E+04  0.31054975101E+03  0.10746293700E+04  0.00000000000E+00 0.  1.
         22    1    1    2    0    0  0.73346361211E+02 -0.10789811345E+04 -0.22727231654E+03  0.11050939703E+04  0.00000000000E+00 0. -1.
<mgrwt>
<rscale>  0 0.22415113E+04</rscale>
<asrwt>0</asrwt>
<pdfrwt beam="1">  1        2 0.16334880E+00 0.22415113E+04</pdfrwt>
<pdfrwt beam="2">  1       -2 0.18200328E+00 0.22415113E+04</pdfrwt>
<totfact> 0.36818240E+00</totfact>
</mgrwt>
</event>
<event>
 6    1  0.1966325E-005  0.2976882E+04  0.7818608E-02  0.8250363E-01
          1   -1    0    0  501    0  0.00000000000E+00  0.00000000000E+00  0.17149049350E+04  0.17149049350E+04  0.00000000000E+00 0. -1.
         -1   -1    0    0    0  501 -0.00000000000E+00 -0.00000000000E+00 -0.12918832627E+04  0.12918832627E+04  0.00000000000E+00 0.  1.
         23    2    1    2    0    0  0.14538778564E+04  0.23148929110E+03  0.42400183809E+03  0.15345962694E+04  0.88656856674E+02 0.  0.
         11    1    3    3    0    0  0.86824499517E+03  0.10696506439E+03  0.21971755141E+03  0.90197932295E+03  0.00000000000E+00 0. -1.
        -11    1    3    3    0    0  0.58563286119E+03  0.12452422671E+03  0.20428428668E+03  0.63261694644E+03  0.00000000000E+00 0.  1.
         22    1    1    2    0    0 -0.14538778564E+04 -0.23148929110E+03 -0.98016571422E+00  0.14721919283E+04  0.00000000000E+00 0. -1.
<mgrwt>
<rscale>  0 0.29768823E+04</rscale>
<asrwt>0</asrwt>
<pdfrwt beam="1">  1        1 0.26383153E+00 0.29768823E+04</pdfrwt>
<pdfrwt beam="2">  1       -1 0.19875127E+00 0.29768823E+04</pdfrwt>
<totfact> 0.60953898E-01</totfact>
</mgrwt>
</event>
<event>
 6    1  0.1773638E-005  0.1994852E+04  0.7818608E-02  0.8609031E-01
          1   -1    0    0  501    0  0.00000000000E+00  0.00000000000E+00  0.12071512841E+04  0.12071512841E+04  0.00000000000E+00 0. -1.
         -1   -1    0    0    0  501 -0.00000000000E+00 -0.00000000000E+00 -0.82413720288E+03  0.82413720288E+03  0.00000000000E+00 0.  1.
         23    2    1    2    0    0 -0.67049188287E+03 -0.13413451811E+02  0.94087805266E+03  0.11589631485E+04  0.90580261847E+02 0.  0.
         13    1    3    3    0    0 -0.30773919802E+03 -0.49876277499E+02  0.45309903491E+03  0.54999072037E+03  0.00000000000E+00 0.  1.
        -13    1    3    3    0    0 -0.36275268485E+03  0.36462825689E+02  0.48777901775E+03  0.60897242809E+03  0.00000000000E+00 0. -1.
         22    1    1    2    0    0  0.67049188287E+03  0.13413451811E+02 -0.55786397141E+03  0.87232533855E+03  0.00000000000E+00 0.  1.
<mgrwt>
<rscale>  0 0.19948517E+04</rscale>
<asrwt>0</asrwt>
<pdfrwt beam="1">  1        1 0.18571558E+00 0.19948517E+04</pdfrwt>
<pdfrwt beam="2">  1       -1 0.12679034E+00 0.19948517E+04</pdfrwt>
<totfact> 0.52923786E+00</totfact>
</mgrwt>
</event>
<event>
 6    1  0.1773638E-005  0.2391422E+04  0.7818608E-02  0.8442722E-01
         -2   -1    0    0    0  501 -0.00000000000E+00  0.00000000000E+00  0.62095994103E+03  0.62095994103E+03  0.00000000000E+00 0.  1.
          2   -1    0    0  501    0  0.00000000000E+00 -0.00000000000E+00 -0.23024427884E+04  0.23024427884E+04  0.00000000000E+00 0. -1.
         23    2    1    2    0    0  0.49732035106E+03 -0.12877984010E+03  0.47564537397E+03  0.70594609127E+03  0.90606750367E+02 0.  0.
         11    1    3    3    0    0  0.23287043282E+03 -0.19510217397E+02  0.18459987010E+03  0.29780261769E+03  0.00000000000E+00 0.  1.
        -11    1    3    3    0    0  0.26444991824E+03 -0.10926962270E+03  0.29104550387E+03  0.40814347358E+03  0.00000000000E+00 0. -1.
         22    1    1    2    0    0 -0.49732035106E+03  0.12877984010E+03 -0.21571282214E+04  0.22174566382E+04  0.00000000000E+00 0. -1.
<mgrwt>
<rscale>  0 0.23914220E+04</rscale>
<asrwt>0</asrwt>
<pdfrwt beam="1">  1        2 0.35422196E+00 0.23914220E+04</pdfrwt>
<pdfrwt beam="2">  1       -2 0.95532300E-01 0.23914220E+04</pdfrwt>
<totfact> 0.37403296E+00</totfact>
</mgrwt>
</event>
<event>
 6    1  0.1773638E-005  0.2171673E+04  0.7818608E-02  0.8530312E-01
          1   -1    0    0  501    0  0.00000000000E+00  0.00000000000E+00  0.17581144067E+04  0.17581144067E+04  0.00000000000E+00 0. -1.
         -1   -1    0    0    0  501 -0.00000000000E+00 -0.00000000000E+00 -0.67062809758E+03  0.67062809758E+03  0.00000000000E+00 0.  1.
         23    2    1    2    0    0 -0.76599916183E+03  0.59559782053E+03  0.47132217254E+01  0.97482055366E+03  0.93602444587E+02 0.  0.
         13    1    3    3    0    0 -0.56624129019E+03  0.43601375635E+03 -0.37690400781E+02  0.71565198299E+03  0.00000000000E+00 0. -1.
        -13    1    3    3    0    0 -0.19975787163E+03  0.15958406418E+03  0.42403622506E+02  0.25916857067E+03  0.00000000000E+00 0.  1.
         22    1    1    2    0    0  0.76599916183E+03 -0.59559782053E+03  0.10827730874E+04  0.14539219507E+04  0.00000000000E+00 0.  1.
<mgrwt>
<rscale>  0 0.21716730E+04</rscale>
<asrwt>0</asrwt>
<pdfrwt beam="1">  1        1 0.27047914E+00 0.21716730E+04</pdfrwt>
<pdfrwt beam="2">  1       -1 0.10317355E+00 0.21716730E+04</pdfrwt>
<totfact> 0.35257454E+00</totfact>
</mgrwt>
</event>
<event>
 6    1  0.1773638E-005  0.3911781E+04  0.7818608E-02  0.8022583E-01
          1   -1    0    0  501    0  0.00000000000E+00  0.00000000000E+00  0.23370037839E+04  0.23370037839E+04  0.00000000000E+00 0. -1.
         -1   -1    0    0    0  501 -0.00000000000E+00 -0.00000000000E+00 -0.16369282242E+04  0.16369282242E+04  0.00000000000E+00 0.  1.
         23    2    1    2    0    0 -0.16988442871E+04  0.61197287501E+03  0.11114472287E+04  0.21219575587E+04  0.82499862189E+02 0.  0.
         11    1    3    3    0    0 -0.59199382089E+03  0.17706954491E+03  0.35746828978E+03  0.71385844949E+03  0.00000000000E+00 0. -1.
        -11    1    3    3    0    0 -0.11068504662E+04  0.43490333010E+03  0.75397893892E+03  0.14080991092E+04  0.00000000000E+00 0.  1.
         22    1    1    2    0    0  0.16988442871E+04 -0.61197287501E+03 -0.41137166900E+03  0.18519744495E+04  0.00000000000E+00 0.  1.
<mgrwt>
<rscale>  0 0.39117809E+04</rscale>
<asrwt>0</asrwt>
<pdfrwt beam="1">  1        1 0.35953905E+00 0.39117809E+04</pdfrwt>
<pdfrwt beam="2">  1       -1 0.25183511E+00 0.39117809E+04</pdfrwt>
<totfact> 0.93858680E-02</totfact>
</mgrwt>
</event>
<event>
 6    1  0.2832884E-005  0.3087791E+04  0.7818608E-02  0.8219096E-01
         -2   -1    0    0    0  501 -0.00000000000E+00  0.00000000000E+00  0.13586393389E+04  0.13586393389E+04  0.00000000000E+00 0.  1.
          2   -1    0    0  501    0  0.00000000000E+00 -0.00000000000E+00 -0.17544125344E+04  0.17544125344E+04  0.00000000000E+00 0. -1.
         23    2    1    2    0    0 -0.11826985573E+04 -0.62904852946E+02 -0.11944076274E+04  0.16845737132E+04  0.91902758032E+02 0.  0.
         11    1    3    3    0    0 -0.64674843043E+03 -0.11930521389E+02 -0.59506625346E+03  0.87893669602E+03  0.00000000000E+00 0. -1.
        -11    1    3    3    0    0 -0.53595012682E+03 -0.50974331557E+02 -0.59934137396E+03  0.80563701719E+03  0.00000000000E+00 0.  1.
         22    1    1    2    0    0  0.11826985573E+04  0.62904852946E+02  0.79863443191E+03  0.14284781600E+04  0.00000000000E+00 0.  1.
<mgrwt>
<rscale>  0 0.30877914E+04</rscale>
<asrwt>0</asrwt>
<pdfrwt beam="1">  1        2 0.26990962E+00 0.30877914E+04</pdfrwt>
<pdfrwt beam="2">  1       -2 0.20902144E+00 0.30877914E+04</pdfrwt>
<totfact> 0.90325494E-01</totfact>
</mgrwt>
</event>
<event>
 6    1  0.1773638E-005  0.1984487E+04  0.7818608E-02  0.8613908E-01
         -2   -1    0    0    0  501 -0.00000000000E+00  0.00000000000E+00  0.39136364080E+03  0.39136364080E+03  0.00000000000E+00 0.  1.
          2   -1    0    0  501    0  0.00000000000E+00 -0.00000000000E+00 -0.25156850349E+04  0.25156850349E+04  0.00000000000E+00 0. -1.
         23    2    1    2    0    0 -0.86606136342E+03  0.10034036510E+02 -0.17673337452E+04  0.19702439209E+04  0.90716999131E+02 0.  0.
         13    1    3    3    0    0 -0.31767477487E+02 -0.16985649274E+02 -0.67277976157E+02  0.76315208071E+02  0.00000000000E+00 0. -1.
        -13    1    3    3    0    0 -0.83429388593E+03  0.27019685785E+02 -0.17000557691E+04  0.18939287129E+04  0.00000000000E+00 0.  1.
         22    1    1    2    0    0  0.86606136342E+03 -0.10034036510E+02 -0.35698764889E+03  0.93680475477E+03  0.00000000000E+00 0.  1.
<mgrwt>
<rscale>  0 0.19844875E+04</rscale>
<asrwt>0</asrwt>
<pdfrwt beam="1">  1        2 0.38702848E+00 0.19844875E+04</pdfrwt>
<pdfrwt beam="2">  1       -2 0.60209788E-01 0.19844875E+04</pdfrwt>
<totfact> 0.81574355E+00</totfact>
</mgrwt>
</event>
<event>
 6    1  0.1773638E-005  0.4623499E+04  0.7818608E-02  0.7889365E-01
          2   -1    0    0  501    0  0.00000000000E+00  0.00000000000E+00  0.34817677435E+04  0.34817677435E+04  0.00000000000E+00 0.  1.
         -2   -1    0    0    0  501 -0.00000000000E+00 -0.00000000000E+00 -0.15349059539E+04  0.15349059539E+04  0.00000000000E+00 0. -1.
         23    2    1    2    0    0 -0.21894595845E+04  0.63725317786E+03  0.13803994161E+04  0.26670557485E+04  0.88650621253E+02 0.  0.
         13    1    3    3    0    0 -0.76186354420E+03  0.26101710999E+03  0.46472215892E+03  0.92980249338E+03  0.00000000000E+00 0.  1.
        -13    1    3    3    0    0 -0.14275960403E+04  0.37623606786E+03  0.91567725720E+03  0.17372532551E+04  0.00000000000E+00 0. -1.
         22    1    1    2    0    0  0.21894595845E+04 -0.63725317786E+03  0.56646237356E+03  0.23496179489E+04  0.00000000000E+00 0. -1.
<mgrwt>
<rscale>  0 0.46234991E+04</rscale>
<asrwt>0</asrwt>
<pdfrwt beam="1">  1        2 0.53565657E+00 0.46234991E+04</pdfrwt>
<pdfrwt beam="2">  1       -2 0.23613938E+00 0.46234991E+04</pdfrwt>
<totfact> 0.49071324E-02</totfact>
</mgrwt>
</event>
<event>
 6    1  0.1773638E-005  0.1127401E+04  0.7818608E-02  0.9178889E-01
          2   -1    0    0  501    0  0.00000000000E+00  0.00000000000E+00  0.15757915685E+04  0.15757915685E+04  0.00000000000E+00 0.  1.
         -2   -1    0    0    0  501 -0.00000000000E+00 -0.00000000000E+00 -0.20164987685E+03  0.20164987685E+03  0.00000000000E+00 0. -1.
         23    2    1    2    0    0 -0.42340575053E+03 -0.33849633795E+03  0.91214607986E+03  0.10651970030E+04  0.93712239071E+02 0.  0.
         13    1    3    3    0    0 -0.63256375832E+02 -0.82355470716E+02  0.12536239504E+03  0.16278674004E+03  0.00000000000E+00 0.  1.
        -13    1    3    3    0    0 -0.36014937470E+03 -0.25614086724E+03  0.78678368481E+03  0.90241026294E+03  0.00000000000E+00 0. -1.
         22    1    1    2    0    0  0.42340575053E+03  0.33849633795E+03  0.46199561178E+03  0.71224444238E+03  0.00000000000E+00 0.  1.
<mgrwt>
<rscale>  0 0.11274009E+04</rscale>
<asrwt>0</asrwt>
<pdfrwt beam="1">  1        2 0.24242946E+00 0.11274009E+04</pdfrwt>
<pdfrwt beam="2">  1       -2 0.31023059E-01 0.11274009E+04</pdfrwt>
<totfact> 0.10977343E+02</totfact>
</mgrwt>
</event>
<event>
 6    1  0.1773638E-005  0.1751836E+04  0.7818608E-02  0.8732341E-01
         -1   -1    0    0    0  501 -0.00000000000E+00  0.00000000000E+00  0.31915660421E+03  0.31915660421E+03  0.00000000000E+00 0.  1.
          1   -1    0    0  501    0  0.00000000000E+00 -0.00000000000E+00 -0.24039359008E+04  0.24039359008E+04  0.00000000000E+00 0. -1.
         23    2    1    2    0    0 -0.16014180147E+03  0.29489257425E+03 -0.22989175974E+04  0.23250193474E+04  0.89921183317E+02 0.  0.
         11    1    3    3    0    0 -0.12554508180E+03  0.13777653870E+03 -0.12019626717E+04  0.12163298099E+04  0.00000000000E+00 0. -1.
        -11    1    3    3    0    0 -0.34596719668E+02  0.15711603554E+03 -0.10969549257E+04  0.11086895375E+04  0.00000000000E+00 0.  1.
         22    1    1    2    0    0  0.16014180147E+03 -0.29489257425E+03  0.21413830082E+03  0.39807315760E+03  0.00000000000E+00 0.  1.
<mgrwt>
<rscale>  0 0.17518356E+04</rscale>
<asrwt>0</asrwt>
<pdfrwt beam="1">  1        1 0.36983628E+00 0.17518356E+04</pdfrwt>
<pdfrwt beam="2">  1       -1 0.49101018E-01 0.17518356E+04</pdfrwt>
<totfact> 0.62214979E+00</totfact>
</mgrwt>
</event>
<event>
 6    1  0.1773638E-005  0.2784745E+04  0.7818608E-02  0.8308020E-01
         -2   -1    0    0    0  501 -0.00000000000E+00  0.00000000000E+00  0.14629152247E+04  0.14629152247E+04  0.00000000000E+00 0.  1.
          2   -1    0    0  501    0  0.00000000000E+00 -0.00000000000E+00 -0.13252313362E+04  0.13252313362E+04  0.00000000000E+00 0. -1.
         23    2    1    2    0    0 -0.33620495146E+03 -0.94269445896E+03 -0.89743673402E+03  0.13482919447E+04  0.10388389840E+03 0.  0.
         11    1    3    3    0    0 -0.26086882345E+03 -0.76791325836E+03 -0.67191486031E+03  0.10531917655E+04  0.00000000000E+00 0. -1.
        -11    1    3    3    0    0 -0.75336128009E+02 -0.17478120060E+03 -0.22552187371E+03  0.29510017924E+03  0.00000000000E+00 0.  1.
         22    1    1    2    0    0  0.33620495146E+03  0.94269445896E+03  0.10351206226E+04  0.14398546161E+04  0.00000000000E+00 0.  1.
<mgrwt>
<rscale>  0 0.27847449E+04</rscale>
<asrwt>0</asrwt>
<pdfrwt beam="1">  1        2 0.20388175E+00 0.27847449E+04</pdfrwt>
<pdfrwt beam="2">  1       -2 0.22506388E+00 0.27847449E+04</pdfrwt>
<totfact> 0.12784947E+00</totfact>
</mgrwt>
</event>
<event>
 6    1  0.1773638E-005  0.1064674E+04  0.7818608E-02  0.9240324E-01
         -1   -1    0    0    0  501 -0.00000000000E+00  0.00000000000E+00  0.11331393026E+03  0.11331393026E+03  0.00000000000E+00 0.  1.
          1   -1    0    0  501    0  0.00000000000E+00 -0.00000000000E+00 -0.25008622548E+04  0.25008622548E+04  0.00000000000E+00 0. -1.
         23    2    1    2    0    0  0.23468644191E+03 -0.95375042995E+02 -0.23412441956E+04  0.23566529876E+04  0.90635510851E+02 0.  0.
         13    1    3    3    0    0  0.48631040397E+02  0.17128026485E+02 -0.42829330449E+03  0.43138556078E+03  0.00000000000E+00 0.  1.
        -13    1    3    3    0    0  0.18605540152E+03 -0.11250306948E+03 -0.19129508911E+04  0.19252674268E+04  0.00000000000E+00 0. -1.
         22    1    1    2    0    0 -0.23468644191E+03  0.95375042995E+02 -0.46304128915E+02  0.25752319740E+03  0.00000000000E+00 0.  1.
<mgrwt>
<rscale>  0 0.10646737E+04</rscale>
<asrwt>0</asrwt>
<pdfrwt beam="1">  1        1 0.38474799E+00 0.10646737E+04</pdfrwt>
<pdfrwt beam="2">  1       -1 0.17432915E-01 0.10646737E+04</pdfrwt>
<totfact> 0.35088090E+01</totfact>
</mgrwt>
</event>
<event>
 6    1  0.1773638E-005  0.3082403E+04  0.7818608E-02  0.8220584E-01
          1   -1    0    0  501    0  0.00000000000E+00  0.00000000000E+00  0.31660228389E+04  0.31660228389E+04  0.00000000000E+00 0. -1.
         -1   -1    0    0    0  501 -0.00000000000E+00 -0.00000000000E+00 -0.75024774779E+03  0.75024774779E+03  0.00000000000E+00 0.  1.
         23    2    1    2    0    0  0.10037671738E+04  0.75413120773E+03  0.23417683372E+04  0.26585983649E+04  0.89464536032E+02 0.  0.
         13    1    3    3    0    0  0.26105031078E+03  0.14896853777E+03  0.54758700654E+03  0.62465223903E+03  0.00000000000E+00 0.  1.
        -13    1    3    3    0    0  0.74271686300E+03  0.60516266997E+03  0.17941813307E+04  0.20339461259E+04  0.00000000000E+00 0. -1.
         22    1    1    2    0    0 -0.10037671738E+04 -0.75413120773E+03  0.74006753848E+02  0.12576722217E+04  0.00000000000E+00 0.  1.
<mgrwt>
<rscale>  0 0.30824026E+04</rscale>
<asrwt>0</asrwt>
<pdfrwt beam="1">  1        1 0.48708043E+00 0.30824026E+04</pdfrwt>
<pdfrwt beam="2">  1       -1 0.11542273E+00 0.30824026E+04</pdfrwt>
<totfact> 0.25892279E-01</totfact>
</mgrwt>
</event>
<event>
 6    1  0.1773638E-005  0.6973070E+03  0.7818608E-02  0.9721849E-01
          1   -1    0    0  501    0  0.00000000000E+00  0.00000000000E+00  0.10106500523E+04  0.10106500523E+04  0.00000000000E+00 0. -1.
         -1   -1    0    0    0  501 -0.00000000000E+00 -0.00000000000E+00 -0.12027829155E+03  0.12027829155E+03  0.00000000000E+00 0.  1.
         23    2    1    2    0    0  0.20462083058E+03 -0.24943954428E+03  0.26311418971E+03  0.42556189229E+03  0.88227415129E+02 0.  0.
         11    1    3    3    0    0  0.66091018330E+02 -0.12250487771E+03  0.15683153994E+03  0.20969406212E+03  0.00000000000E+00 0.  1.
        -11    1    3    3    0    0  0.13852981225E+03 -0.12693466657E+03  0.10628264977E+03  0.21586783017E+03  0.00000000000E+00 0. -1.
         22    1    1    2    0    0 -0.20462083058E+03  0.24943954428E+03  0.62725757106E+03  0.70536645158E+03  0.00000000000E+00 0. -1.
<mgrwt>
<rscale>  0 0.69730700E+03</rscale>
<asrwt>0</asrwt>
<pdfrwt beam="1">  1        1 0.15548462E+00 0.69730700E+03</pdfrwt>
<pdfrwt beam="2">  1       -1 0.18504353E-01 0.69730700E+03</pdfrwt>
<totfact> 0.35005863E+02</totfact>
</mgrwt>
</event>
<event>
 6    1  0.1773638E-005  0.3327579E+04  0.7818608E-02  0.8155913E-01
         -1   -1    0    0    0  501 -0.00000000000E+00  0.00000000000E+00  0.11289378940E+04  0.11289378940E+04  0.00000000000E+00 0.  1.
          1   -1    0    0  501    0  0.00000000000E+00 -0.00000000000E+00 -0.24520352001E+04  0.24520352001E+04  0.00000000000E+00 0. -1.
         23    2    1    2    0    0  0.86107906412E+03  0.11660041388E+04  0.21413083735E+03  0.14681330217E+04  0.92410754722E+02 0.  0.
         11    1    3    3    0    0  0.38034395608E+03  0.47776311763E+03  0.49894758198E+02  0.61270597222E+03  0.00000000000E+00 0.  1.
        -11    1    3    3    0    0  0.48073510804E+03  0.68824102113E+03  0.16423607915E+03  0.85542704947E+03  0.00000000000E+00 0. -1.
         22    1    1    2    0    0 -0.86107906412E+03 -0.11660041388E+04 -0.15372281435E+04  0.21128400724E+04  0.00000000000E+00 0. -1.
<mgrwt>
<rscale>  0 0.33275790E+04</rscale>
<asrwt>0</asrwt>
<pdfrwt beam="1">  1        1 0.37723618E+00 0.33275790E+04</pdfrwt>
<pdfrwt beam="2">  1       -1 0.17368276E+00 0.33275790E+04</pdfrwt>
<totfact> 0.27987318E-01</totfact>
</mgrwt>
</event>
<event>
 6    1  0.1773638E-005  0.5750384E+03  0.7818608E-02  0.9958591E-01
          2   -1    0    0  501    0  0.00000000000E+00  0.00000000000E+00  0.14126981765E+04  0.14126981765E+04  0.00000000000E+00 0. -1.
         -2   -1    0    0    0  501 -0.00000000000E+00 -0.00000000000E+00 -0.58517296878E+02  0.58517296878E+02  0.00000000000E+00 0.  1.
         23    2    1    2    0    0 -0.40810050772E+02  0.14421483085E+03  0.13000033472E+04  0.13118461454E+04  0.92022979470E+02 0.  0.
         11    1    3    3    0    0  0.20924297907E+02  0.89952240034E+02  0.76758675056E+03  0.77312266256E+03  0.00000000000E+00 0. -1.
        -11    1    3    3    0    0 -0.61734348680E+02  0.54262590814E+02  0.53241659666E+03  0.53872348284E+03  0.00000000000E+00 0.  1.
         22    1    1    2    0    0  0.40810050772E+02 -0.14421483085E+03  0.54177532397E+02  0.15936932797E+03  0.00000000000E+00 0.  1.
<mgrwt>
<rscale>  0 0.57503836E+03</rscale>
<asrwt>0</asrwt>
<pdfrwt beam="1">  1        2 0.21733815E+00 0.57503836E+03</pdfrwt>
<pdfrwt beam="2">  1       -2 0.90026621E-02 0.57503836E+03</pdfrwt>
<totfact> 0.11778254E+03</totfact>
</mgrwt>
</event>
<event>
 6    1  0.1773638E-005  0.2541297E+04  0.7818608E-02  0.8388419E-01
          1   -1    0    0  501    0  0.00000000000E+00  0.00000000000E+00  0.16149572205E+04  0.16149572205E+04  0.00000000000E+00 0. -1.
         -1   -1    0    0    0  501 -0.00000000000E+00 -0.00000000000E+00 -0.99974618164E+03  0.99974618164E+03  0.00000000000E+00 0.  1.
         23    2    1    2    0    0 -0.96018592860E+03  0.33510932654E+03  0.10891873033E+04  0.14926923605E+04  0.86869000335E+02 0.  0.
         13    1    3    3    0    0 -0.25612585849E+03  0.12751823033E+03  0.28379786304E+03  0.40299203654E+03  0.00000000000E+00 0. -1.
        -13    1    3    3    0    0 -0.70406007012E+03  0.20759109621E+03  0.80538944029E+03  0.10897003240E+04  0.00000000000E+00 0.  1.
         22    1    1    2    0    0  0.96018592860E+03 -0.33510932654E+03 -0.47397626447E+03  0.11220110416E+04  0.00000000000E+00 0.  1.
<mgrwt>
<rscale>  0 0.25412968E+04</rscale>
<asrwt>0</asrwt>
<pdfrwt beam="1">  1        1 0.24845496E+00 0.25412968E+04</pdfrwt>
<pdfrwt beam="2">  1       -1 0.15380710E+00 0.25412968E+04</pdfrwt>
<totfact> 0.15724595E+00</totfact>
</mgrwt>
</event>
<event>
 6    1  0.1773638E-005  0.1762039E+04  0.7818608E-02  0.8726751E-01
         -1   -1    0    0    0  501 -0.00000000000E+00  0.00000000000E+00  0.19901218796E+03  0.19901218796E+03  0.00000000000E+00 0.  1.
          1   -1    0    0  501    0  0.00000000000E+00 -0.00000000000E+00 -0.39002395008E+04  0.39002395008E+04  0.00000000000E+00 0. -1.
         23    2    1    2    0    0 -0.60250657762E+03 -0.63875999339E+03 -0.19095287722E+04  0.21039541757E+04  0.96408175257E+02 0.  0.
         11    1    3    3    0    0 -0.27832236921E+03 -0.36526025820E+03 -0.99400666209E+03  0.10949555433E+04  0.00000000000E+00 0. -1.
        -11    1    3    3    0    0 -0.32418420840E+03 -0.27349973519E+03 -0.91552211015E+03  0.10089986325E+04  0.00000000000E+00 0.  1.
         22    1    1    2    0    0  0.60250657762E+03  0.63875999339E+03 -0.17916985406E+04  0.19952975131E+04  0.00000000000E+00 0.  1.
<mgrwt>
<rscale>  0 0.17620388E+04</rscale>
<asrwt>0</asrwt>
<pdfrwt beam="1">  1        1 0.60003685E+00 0.17620388E+04</pdfrwt>
<pdfrwt beam="2">  1       -1 0.30617259E-01 0.17620388E+04</pdfrwt>
<totfact> 0.11042520E+00</totfact>
</mgrwt>
</event>
<event>
 6    1  0.1773638E-005  0.3771152E+04  0.7818608E-02  0.8052374E-01
         -1   -1    0    0    0  501 -0.00000000000E+00  0.00000000000E+00  0.10800993642E+04  0.10800993642E+04  0.00000000000E+00 0.  1.
          1   -1    0    0  501    0  0.00000000000E+00 -0.00000000000E+00 -0.32917314125E+04  0.32917314125E+04  0.00000000000E+00 0. -1.
         23    2    1    2    0    0 -0.12795214450E+04  0.87828556973E+02  0.49419734247E+03  0.13774357335E+04  0.90604651661E+02 0.  0.
         13    1    3    3    0    0 -0.40773621490E+03  0.70328895300E+02  0.16166014146E+03  0.44421726193E+03  0.00000000000E+00 0.  1.
        -13    1    3    3    0    0 -0.87178523008E+03  0.17499661673E+02  0.33253720101E+03  0.93321847153E+03  0.00000000000E+00 0. -1.
         22    1    1    2    0    0  0.12795214450E+04 -0.87828556973E+02 -0.27058293907E+04  0.29943950433E+04  0.00000000000E+00 0. -1.
<mgrwt>
<rscale>  0 0.37711521E+04</rscale>
<asrwt>0</asrwt>
<pdfrwt beam="1">  1        1 0.50642022E+00 0.37711521E+04</pdfrwt>
<pdfrwt beam="2">  1       -1 0.16616913E+00 0.37711521E+04</pdfrwt>
<totfact> 0.75821357E-02</totfact>
</mgrwt>
</event>
<event>
 6    1  0.1773638E-005  0.3231615E+03  0.7818608E-02  0.1074203E+00
         -1   -1    0    0    0  501 -0.00000000000E+00  0.00000000000E+00  0.20131218416E+03  0.20131218416E+03  0.00000000000E+00 0.  1.
          1   -1    0    0  501    0  0.00000000000E+00 -0.00000000000E+00 -0.12969080739E+03  0.12969080739E+03  0.00000000000E+00 0. -1.
         23    2    1    2    0    0  0.84034876851E+02 -0.48862364397E+02  0.15397499497E+03  0.20360004962E+03  0.91078482358E+02 0.  0.
         11    1    3    3    0    0  0.74244612258E+02 -0.30946753674E+02  0.43876937026E+02  0.91625049059E+02  0.00000000000E+00 0. -1.
        -11    1    3    3    0    0  0.97902645931E+01 -0.17915610723E+02  0.11009805794E+03  0.11197500056E+03  0.00000000000E+00 0.  1.
         22    1    1    2    0    0 -0.84034876851E+02  0.48862364397E+02 -0.82353618204E+02  0.12740294193E+03  0.00000000000E+00 0. -1.
<mgrwt>
<rscale>  0 0.32316151E+03</rscale>
<asrwt>0</asrwt>
<pdfrwt beam="1">  1        1 0.19952432E-01 0.32316151E+03</pdfrwt>
<pdfrwt beam="2">  1       -1 0.30971105E-01 0.32316151E+03</pdfrwt>
<totfact> 0.24813214E+03</totfact>
</mgrwt>
</event>
<event>
 6    1  0.1773638E-005  0.3360881E+04  0.7818608E-02  0.8147575E-01
         -1   -1    0    0    0  501 -0.00000000000E+00  0.00000000000E+00  0.96150763597E+03  0.96150763597E+03  0.00000000000E+00 0.  1.
          1   -1    0    0  501    0  0.00000000000E+00 -0.00000000000E+00 -0.29369297021E+04  0.29369297021E+04  0.00000000000E+00 0. -1.
         23    2    1    2    0    0  0.11293769090E+04 -0.11170512720E+04 -0.35694283640E+03  0.16306695448E+04  0.91538128076E+02 0.  0.
         11    1    3    3    0    0  0.24696692695E+01 -0.13784983091E+02 -0.44782097427E+01  0.14703040081E+02  0.00000000000E+00 0.  1.
        -11    1    3    3    0    0  0.11269072398E+04 -0.11032662889E+04 -0.35246462666E+03  0.16159665047E+04  0.00000000000E+00 0. -1.
         22    1    1    2    0    0 -0.11293769090E+04  0.11170512720E+04 -0.16184792297E+04  0.22677677933E+04  0.00000000000E+00 0. -1.
<mgrwt>
<rscale>  0 0.33608810E+04</rscale>
<asrwt>0</asrwt>
<pdfrwt beam="1">  1        1 0.45183534E+00 0.33608810E+04</pdfrwt>
<pdfrwt beam="2">  1       -1 0.14792425E+00 0.33608810E+04</pdfrwt>
<totfact> 0.19848750E-01</totfact>
</mgrwt>
</event>
<event>
 6    1  0.1773638E-005  0.1441607E+04  0.7818608E-02  0.8924240E-01
          3   -1    0    0  501    0  0.00000000000E+00  0.00000000000E+00  0.48028135803E+03  0.48028135803E+03  0.00000000000E+00 0. -1.
         -3   -1    0    0    0  501 -0.00000000000E+00 -0.00000000000E+00 -0.10817781710E+04  0.10817781710E+04  0.00000000000E+00 0.  1.
         23    2    1    2    0    0  0.12857108757E+03 -0.41561092755E+03 -0.92066248676E+03  0.10224951724E+04  0.92811612769E+02 0.  0.
         13    1    3    3    0    0  0.14224822909E+03 -0.36058793563E+03 -0.78613699849E+03  0.87650989635E+03  0.00000000000E+00 0. -1.
        -13    1    3    3    0    0 -0.13677141513E+02 -0.55022991921E+02 -0.13452548827E+03  0.14598527608E+03  0.00000000000E+00 0.  1.
         22    1    1    2    0    0 -0.12857108757E+03  0.41561092755E+03  0.31916567374E+03  0.53956435664E+03  0.00000000000E+00 0. -1.
<mgrwt>
<rscale>  0 0.14416073E+04</rscale>
<asrwt>0</asrwt>
<pdfrwt beam="1">  1        3 0.73889439E-01 0.14416073E+04</pdfrwt>
<pdfrwt beam="2">  1       -3 0.16642741E+00 0.14416073E+04</pdfrwt>
<totfact> 0.10801178E+00</totfact>
</mgrwt>
</event>
<event>
 6    1  0.1773638E-005  0.3656192E+04  0.7818608E-02  0.8077740E-01
         -1   -1    0    0    0  501 -0.00000000000E+00  0.00000000000E+00  0.18827326221E+04  0.18827326221E+04  0.00000000000E+00 0.  1.
          1   -1    0    0  501    0  0.00000000000E+00 -0.00000000000E+00 -0.17750449798E+04  0.17750449798E+04  0.00000000000E+00 0. -1.
         23    2    1    2    0    0 -0.16114731480E+04 -0.25631047044E+03  0.87609686460E+03  0.18541719087E+04  0.88696036141E+02 0.  0.
         13    1    3    3    0    0 -0.12509470492E+04 -0.20350002729E+03  0.63813097656E+03  0.14189756602E+04  0.00000000000E+00 0.  1.
        -13    1    3    3    0    0 -0.36052609875E+03 -0.52810443156E+02  0.23796588804E+03  0.43519624844E+03  0.00000000000E+00 0. -1.
         22    1    1    2    0    0  0.16114731480E+04  0.25631047044E+03 -0.76840922226E+03  0.18036056933E+04  0.00000000000E+00 0. -1.
<mgrwt>
<rscale>  0 0.36561921E+04</rscale>
<asrwt>0</asrwt>
<pdfrwt beam="1">  1        1 0.27308384E+00 0.36561921E+04</pdfrwt>
<pdfrwt beam="2">  1       -1 0.28965117E+00 0.36561921E+04</pdfrwt>
<totfact> 0.13147340E-01</totfact>
</mgrwt>
</event>
<event>
 6    1  0.1773638E-005  0.1178630E+04  0.7818608E-02  0.9131770E-01
         -2   -1    0    0    0  501 -0.00000000000E+00  0.00000000000E+00  0.40429013915E+03  0.40429013915E+03  0.00000000000E+00 0.  1.
          2   -1    0    0  501    0  0.00000000000E+00 -0.00000000000E+00 -0.85901719635E+03  0.85901719635E+03  0.00000000000E+00 0. -1.
         23    2    1    2    0    0  0.85978470825E+02 -0.44366897094E+03 -0.62821399954E+03  0.77922865141E+03  0.91159249366E+02 0.  0.
         13    1    3    3    0    0 -0.10242267659E+02 -0.25566824632E+02 -0.69755141598E+02  0.74995642192E+02  0.00000000000E+00 0.  1.
        -13    1    3    3    0    0  0.96220738484E+02 -0.41810214631E+03 -0.55845885794E+03  0.70423300922E+03  0.00000000000E+00 0. -1.
         22    1    1    2    0    0 -0.85978470825E+02  0.44366897094E+03  0.17348694234E+03  0.48407868409E+03  0.00000000000E+00 0.  1.
<mgrwt>
<rscale>  0 0.11786300E+04</rscale>
<asrwt>0</asrwt>
<pdfrwt beam="1">  1        2 0.13215649E+00 0.11786300E+04</pdfrwt>
<pdfrwt beam="2">  1       -2 0.62198484E-01 0.11786300E+04</pdfrwt>
<totfact> 0.74184772E+01</totfact>
</mgrwt>
</event>
<event>
 6    1  0.1773638E-005  0.2551751E+04  0.7818608E-02  0.8384777E-01
          1   -1    0    0  501    0  0.00000000000E+00  0.00000000000E+00  0.88338385846E+03  0.88338385846E+03  0.00000000000E+00 0. -1.
         -1   -1    0    0    0  501 -0.00000000000E+00 -0.00000000000E+00 -0.18427534269E+04  0.18427534269E+04  0.00000000000E+00 0.  1.
         23    2    1    2    0    0 -0.48843288893E+03 -0.72680404608E+03 -0.14692937421E+04  0.17128093664E+04  0.89894476302E+02 0.  0.
         13    1    3    3    0    0 -0.29390239625E+03 -0.46306708416E+03 -0.83809195238E+03  0.10016026476E+04  0.00000000000E+00 0.  1.
        -13    1    3    3    0    0 -0.19453049268E+03 -0.26373696193E+03 -0.63120178968E+03  0.71120671887E+03  0.00000000000E+00 0. -1.
         22    1    1    2    0    0  0.48843288893E+03  0.72680404608E+03  0.50992417364E+03  0.10133279189E+04  0.00000000000E+00 0. -1.
<mgrwt>
<rscale>  0 0.25517513E+04</rscale>
<asrwt>0</asrwt>
<pdfrwt beam="1">  1        1 0.13590521E+00 0.25517513E+04</pdfrwt>
<pdfrwt beam="2">  1       -1 0.28350052E+00 0.25517513E+04</pdfrwt>
<totfact> 0.70167234E-01</totfact>
</mgrwt>
</event>
<event>
 6    1  0.1773638E-005  0.1065667E+04  0.7818608E-02  0.9239317E-01
         -2   -1    0    0    0  501 -0.00000000000E+00  0.00000000000E+00  0.30945580422E+03  0.30945580422E+03  0.00000000000E+00 0.  1.
          2   -1    0    0  501    0  0.00000000000E+00 -0.00000000000E+00 -0.91745417422E+03  0.91745417422E+03  0.00000000000E+00 0. -1.
         23    2    1    2    0    0 -0.11232434711E+03  0.51157035399E+03 -0.39069096552E+03  0.65986192573E+03  0.91963821496E+02 0.  0.
         11    1    3    3    0    0 -0.12507306160E+03  0.39549703857E+03 -0.29738520941E+03  0.51039116473E+03  0.00000000000E+00 0. -1.
        -11    1    3    3    0    0  0.12748714493E+02  0.11607331542E+03 -0.93305756104E+02  0.14947076101E+03  0.00000000000E+00 0.  1.
         22    1    1    2    0    0  0.11232434711E+03 -0.51157035399E+03 -0.21730740449E+03  0.56704805271E+03  0.00000000000E+00 0. -1.
<mgrwt>
<rscale>  0 0.10656670E+04</rscale>
<asrwt>0</asrwt>
<pdfrwt beam="1">  1        2 0.14114679E+00 0.10656670E+04</pdfrwt>
<pdfrwt beam="2">  1       -2 0.47608586E-01 0.10656670E+04</pdfrwt>
<totfact> 0.11866435E+02</totfact>
</mgrwt>
</event>
<event>
 6    1  0.1773638E-005  0.1033986E+04  0.7818608E-02  0.9272036E-01
          2   -1    0    0  501    0  0.00000000000E+00  0.00000000000E+00  0.40009698596E+03  0.40009698596E+03  0.00000000000E+00 0.  1.
         -2   -1    0    0    0  501 -0.00000000000E+00 -0.00000000000E+00 -0.66804210907E+03  0.66804210907E+03  0.00000000000E+00 0. -1.
         23    2    1    2    0    0 -0.17124121376E+01  0.86635494193E+02 -0.65724402422E+03  0.66931297300E+03  0.92203618404E+02 0.  0.
         11    1    3    3    0    0  0.32948831028E+02  0.78330042721E+02 -0.35767755021E+03  0.36763358250E+03  0.00000000000E+00 0.  1.
        -11    1    3    3    0    0 -0.34661243166E+02  0.83054514716E+01 -0.29956647401E+03  0.30167939050E+03  0.00000000000E+00 0. -1.
         22    1    1    2    0    0  0.17124121376E+01 -0.86635494193E+02  0.38929890111E+03  0.39882612203E+03  0.00000000000E+00 0.  1.
<mgrwt>
<rscale>  0 0.10339858E+04</rscale>
<asrwt>0</asrwt>
<pdfrwt beam="1">  1        2 0.61553383E-01 0.10339858E+04</pdfrwt>
<pdfrwt beam="2">  1       -2 0.10277571E+00 0.10339858E+04</pdfrwt>
<totfact> 0.61316046E+01</totfact>
</mgrwt>
</event>
<event>
 6    1  0.1773638E-005  0.1513949E+04  0.7818608E-02  0.8875230E-01
         -2   -1    0    0    0  501 -0.00000000000E+00  0.00000000000E+00  0.46961203041E+03  0.46961203041E+03  0.00000000000E+00 0. -1.
          2   -1    0    0  501    0  0.00000000000E+00 -0.00000000000E+00 -0.12201782562E+04  0.12201782562E+04  0.00000000000E+00 0.  1.
         23    2    1    2    0    0 -0.29447910452E+02  0.75347788009E+03 -0.35297403991E+03  0.83733756563E+03  0.89148363706E+02 0.  0.
         11    1    3    3    0    0 -0.22331283677E+02  0.15859772949E+03 -0.11213302009E+03  0.19551404099E+03  0.00000000000E+00 0. -1.
        -11    1    3    3    0    0 -0.71166267758E+01  0.59488015060E+03 -0.24084101982E+03  0.64182352464E+03  0.00000000000E+00 0.  1.
         22    1    1    2    0    0  0.29447910452E+02 -0.75347788009E+03 -0.39759218588E+03  0.85245272097E+03  0.00000000000E+00 0. -1.
<mgrwt>
<rscale>  0 0.15139490E+04</rscale>
<asrwt>0</asrwt>
<pdfrwt beam="1">  1        2 0.18771973E+00 0.15139490E+04</pdfrwt>
<pdfrwt beam="2">  1       -2 0.72248006E-01 0.15139490E+04</pdfrwt>
<totfact> 0.30842056E+01</totfact>
</mgrwt>
</event>
<event>
 6    1  0.1773638E-005  0.2476125E+04  0.7818608E-02  0.8411541E-01
          2   -1    0    0  501    0  0.00000000000E+00  0.00000000000E+00  0.17592020560E+04  0.17592020560E+04  0.00000000000E+00 0. -1.
         -2   -1    0    0    0  501 -0.00000000000E+00 -0.00000000000E+00 -0.87130338768E+03  0.87130338768E+03  0.00000000000E+00 0.  1.
         23    2    1    2    0    0 -0.11582585859E+04 -0.37454727135E+03  0.21463672980E+03  0.12394158534E+04  0.90742061785E+02 0.  0.
         13    1    3    3    0    0 -0.60989205040E+03 -0.23924596567E+03  0.13675363382E+03  0.66925966679E+03  0.00000000000E+00 0. -1.
        -13    1    3    3    0    0 -0.54836653545E+03 -0.13530130568E+03  0.77883095984E+02  0.57015618664E+03  0.00000000000E+00 0.  1.
         22    1    1    2    0    0  0.11582585859E+04  0.37454727135E+03  0.67326193847E+03  0.13910895902E+04  0.00000000000E+00 0.  1.
<mgrwt>
<rscale>  0 0.24761250E+04</rscale>
<asrwt>0</asrwt>
<pdfrwt beam="1">  1        2 0.27064647E+00 0.24761250E+04</pdfrwt>
<pdfrwt beam="2">  1       -2 0.13404667E+00 0.24761250E+04</pdfrwt>
<totfact> 0.32640016E+00</totfact>
</mgrwt>
</event>
<event>
 6    1  0.1773638E-005  0.8995552E+03  0.7818608E-02  0.9426138E-01
          2   -1    0    0  501    0  0.00000000000E+00  0.00000000000E+00  0.21751085815E+04  0.21751085815E+04  0.00000000000E+00 0. -1.
         -2   -1    0    0    0  501 -0.00000000000E+00 -0.00000000000E+00 -0.93006810581E+02  0.93006810581E+02  0.00000000000E+00 0.  1.
         23    2    1    2    0    0  0.18687490761E+03 -0.29634299086E+03  0.17445011150E+04  0.17815811156E+04  0.89474755101E+02 0.  0.
         11    1    3    3    0    0  0.10452845689E+03 -0.19219249482E+03  0.12764303099E+04  0.12950438176E+04  0.00000000000E+00 0.  1.
        -11    1    3    3    0    0  0.82346450718E+02 -0.10415049604E+03  0.46807080511E+03  0.48653729802E+03  0.00000000000E+00 0. -1.
         22    1    1    2    0    0 -0.18687490761E+03  0.29634299086E+03  0.33760065587E+03  0.48653427646E+03  0.00000000000E+00 0.  1.
<mgrwt>
<rscale>  0 0.89955525E+03</rscale>
<asrwt>0</asrwt>
<pdfrwt beam="1">  1        2 0.33463205E+00 0.89955525E+03</pdfrwt>
<pdfrwt beam="2">  1       -2 0.14308742E-01 0.89955525E+03</pdfrwt>
<totfact> 0.20545026E+02</totfact>
</mgrwt>
</event>
<event>
 6    1  0.1773638E-005  0.3567245E+04  0.7818608E-02  0.8098036E-01
         -2   -1    0    0    0  501 -0.00000000000E+00  0.00000000000E+00  0.13982231555E+04  0.13982231555E+04  0.00000000000E+00 0.  1.
          2   -1    0    0  501    0  0.00000000000E+00 -0.00000000000E+00 -0.22752519046E+04  0.22752519046E+04  0.00000000000E+00 0. -1.
         23    2    1    2    0    0  0.25632389481E+03  0.15811110961E+04 -0.12441967585E+04  0.20301775872E+04  0.89337699048E+02 0.  0.
         11    1    3    3    0    0  0.64034211572E+02  0.53562234794E+03 -0.46449203045E+03  0.71185990631E+03  0.00000000000E+00 0.  1.
        -11    1    3    3    0    0  0.19228968324E+03  0.10454887482E+04 -0.77970472802E+03  0.13183176809E+04  0.00000000000E+00 0. -1.
         22    1    1    2    0    0 -0.25632389481E+03 -0.15811110961E+04  0.36716800936E+03  0.16432974729E+04  0.00000000000E+00 0.  1.
<mgrwt>
<rscale>  0 0.35672454E+04</rscale>
<asrwt>0</asrwt>
<pdfrwt beam="1">  1        2 0.35003875E+00 0.35672454E+04</pdfrwt>
<pdfrwt beam="2">  1       -2 0.21511126E+00 0.35672454E+04</pdfrwt>
<totfact> 0.40630547E-01</totfact>
</mgrwt>
</event>
<event>
 6    1  0.1773638E-005  0.8300676E+03  0.7818608E-02  0.9517487E-01
          2   -1    0    0  501    0  0.00000000000E+00  0.00000000000E+00  0.12129851292E+04  0.12129851292E+04  0.00000000000E+00 0. -1.
         -2   -1    0    0    0  501 -0.00000000000E+00 -0.00000000000E+00 -0.14200756171E+03  0.14200756171E+03  0.00000000000E+00 0.  1.
         23    2    1    2    0    0  0.17248960063E+03  0.22422175552E+03  0.10262448625E+04  0.10685855107E+04  0.93104338807E+02 0.  0.
         11    1    3    3    0    0  0.11327996088E+03  0.74015131307E+02  0.42364339037E+03  0.44472948115E+03  0.00000000000E+00 0.  1.
        -11    1    3    3    0    0  0.59209639744E+02  0.15020662422E+03  0.60260147213E+03  0.62385602955E+03  0.00000000000E+00 0. -1.
         22    1    1    2    0    0 -0.17248960063E+03 -0.22422175552E+03  0.44732704982E+02  0.28640718020E+03  0.00000000000E+00 0. -1.
<mgrwt>
<rscale>  0 0.83006761E+03</rscale>
<asrwt>0</asrwt>
<pdfrwt beam="1">  1        2 0.18661309E+00 0.83006761E+03</pdfrwt>
<pdfrwt beam="2">  1       -2 0.21847318E-01 0.83006761E+03</pdfrwt>
<totfact> 0.34132947E+02</totfact>
</mgrwt>
</event>
<event>
 6    1  0.1773638E-005  0.4000073E+04  0.7818608E-02  0.8004532E-01
          2   -1    0    0  501    0  0.00000000000E+00  0.00000000000E+00  0.20418447203E+04  0.20418447203E+04  0.00000000000E+00 0. -1.
         -2   -1    0    0    0  501 -0.00000000000E+00 -0.00000000000E+00 -0.19590841893E+04  0.19590841893E+04  0.00000000000E+00 0.  1.
         23    2    1    2    0    0  0.30946152234E+03 -0.39304032585E+03 -0.18944769121E+04  0.19613909625E+04  0.88117001527E+02 0.  0.
         13    1    3    3    0    0  0.21087589599E+03 -0.28229909147E+03 -0.11704841739E+04  0.12223725381E+04  0.00000000000E+00 0. -1.
        -13    1    3    3    0    0  0.98585626359E+02 -0.11074123438E+03 -0.72399273819E+03  0.73901842445E+03  0.00000000000E+00 0.  1.
         22    1    1    2    0    0 -0.30946152234E+03  0.39304032585E+03  0.19772374430E+04  0.20395379471E+04  0.00000000000E+00 0. -1.
<mgrwt>
<rscale>  0 0.40000729E+04</rscale>
<asrwt>0</asrwt>
<pdfrwt beam="1">  1        2 0.31412996E+00 0.40000729E+04</pdfrwt>
<pdfrwt beam="2">  1       -2 0.30139757E+00 0.40000729E+04</pdfrwt>
<totfact> 0.15567141E-01</totfact>
</mgrwt>
</event>
<event>
 6    1  0.1773638E-005  0.5882070E+04  0.7818608E-02  0.7705198E-01
          2   -1    0    0  501    0  0.00000000000E+00  0.00000000000E+00  0.48426334926E+04  0.48426334926E+04  0.00000000000E+00 0. -1.
         -2   -1    0    0    0  501 -0.00000000000E+00 -0.00000000000E+00 -0.17861534259E+04  0.17861534259E+04  0.00000000000E+00 0.  1.
         23    2    1    2    0    0 -0.13703481585E+04 -0.33844077458E+03 -0.13782048101E+04  0.19748825158E+04  0.91193308944E+02 0.  0.
         13    1    3    3    0    0 -0.53763581181E+03 -0.11759572916E+03 -0.59638568087E+03  0.81151518901E+03  0.00000000000E+00 0.  1.
        -13    1    3    3    0    0 -0.83271234664E+03 -0.22084504542E+03 -0.78181912920E+03  0.11633673268E+04  0.00000000000E+00 0. -1.
         22    1    1    2    0    0  0.13703481585E+04  0.33844077458E+03  0.44346848767E+04  0.46539044027E+04  0.00000000000E+00 0. -1.
<mgrwt>
<rscale>  0 0.58820698E+04</rscale>
<asrwt>0</asrwt>
<pdfrwt beam="1">  1        2 0.74502053E+00 0.58820698E+04</pdfrwt>
<pdfrwt beam="2">  1       -2 0.27479284E+00 0.58820698E+04</pdfrwt>
<totfact> 0.16087005E-03</totfact>
</mgrwt>
</event>
<event>
 6    1  0.1773638E-005  0.1255461E+04  0.7818608E-02  0.9065650E-01
          1   -1    0    0  501    0  0.00000000000E+00  0.00000000000E+00  0.87051624885E+03  0.87051624885E+03  0.00000000000E+00 0. -1.
         -1   -1    0    0    0  501 -0.00000000000E+00 -0.00000000000E+00 -0.45265721294E+03  0.45265721294E+03  0.00000000000E+00 0.  1.
         23    2    1    2    0    0 -0.19028785721E+03 -0.59297216450E+03  0.16440858310E+03  0.65081746345E+03  0.93315229502E+02 0.  0.
         13    1    3    3    0    0 -0.97948700264E+02 -0.16553300757E+03  0.54643932671E+02  0.19995270405E+03  0.00000000000E+00 0. -1.
        -13    1    3    3    0    0 -0.92339156941E+02 -0.42743915693E+03  0.10976465043E+03  0.45086475940E+03  0.00000000000E+00 0.  1.
         22    1    1    2    0    0  0.19028785721E+03  0.59297216450E+03  0.25345045282E+03  0.67235599834E+03  0.00000000000E+00 0.  1.
<mgrwt>
<rscale>  0 0.12554608E+04</rscale>
<asrwt>0</asrwt>
<pdfrwt beam="1">  1        1 0.13392558E+00 0.12554608E+04</pdfrwt>
<pdfrwt beam="2">  1       -1 0.69639571E-01 0.12554608E+04</pdfrwt>
<totfact> 0.39576903E+01</totfact>
</mgrwt>
</event>
<event>
 6    1  0.1773638E-005  0.9894449E+03  0.7818608E-02  0.9320198E-01
         -1   -1    0    0    0  501 -0.00000000000E+00  0.00000000000E+00  0.27070056592E+03  0.27070056592E+03  0.00000000000E+00 0.  1.
          1   -1    0    0  501    0  0.00000000000E+00 -0.00000000000E+00 -0.90413657624E+03  0.90413657624E+03  0.00000000000E+00 0. -1.
         23    2    1    2    0    0  0.21622332052E+03  0.43902746848E+03 -0.35839704782E+03  0.61346019812E+03  0.91582358399E+02 0.  0.
         13    1    3    3    0    0  0.62979428921E+02  0.59643203202E+02 -0.84413040921E+02  0.12103421679E+03  0.00000000000E+00 0.  1.
        -13    1    3    3    0    0  0.15324389160E+03  0.37938426528E+03 -0.27398400690E+03  0.49242598133E+03  0.00000000000E+00 0. -1.
         22    1    1    2    0    0 -0.21622332052E+03 -0.43902746848E+03 -0.27503896249E+03  0.56137694404E+03  0.00000000000E+00 0.  1.
<mgrwt>
<rscale>  0 0.98944486E+03</rscale>
<asrwt>0</asrwt>
<pdfrwt beam="1">  1        1 0.13909794E+00 0.98944486E+03</pdfrwt>
<pdfrwt beam="2">  1       -1 0.41646240E-01 0.98944486E+03</pdfrwt>
<totfact> 0.10234639E+02</totfact>
</mgrwt>
</event>
<event>
 6    1  0.1773638E-005  0.8448279E+03  0.7818608E-02  0.9497305E-01
          2   -1    0    0  501    0  0.00000000000E+00  0.00000000000E+00  0.36687910101E+03  0.36687910101E+03  0.00000000000E+00 0. -1.
         -2   -1    0    0    0  501 -0.00000000000E+00 -0.00000000000E+00 -0.48635511805E+03  0.48635511805E+03  0.00000000000E+00 0.  1.
         23    2    1    2    0    0  0.35806406143E+03  0.18159692879E+03 -0.17732738267E+03  0.44760619100E+03  0.87857754020E+02 0.  0.
         13    1    3    3    0    0  0.14472710822E+03  0.32388273328E+02 -0.41700412504E+02  0.15405797774E+03  0.00000000000E+00 0.  1.
        -13    1    3    3    0    0  0.21333695322E+03  0.14920865546E+03 -0.13562697017E+03  0.29354821326E+03  0.00000000000E+00 0. -1.
         22    1    1    2    0    0 -0.35806406143E+03 -0.18159692879E+03  0.57851365630E+02  0.40562802805E+03  0.00000000000E+00 0.  1.
<mgrwt>
<rscale>  0 0.84482786E+03</rscale>
<asrwt>0</asrwt>
<pdfrwt beam="1">  1        2 0.56442938E-01 0.84482786E+03</pdfrwt>
<pdfrwt beam="2">  1       -2 0.74823865E-01 0.84482786E+03</pdfrwt>
<totfact> 0.14156814E+02</totfact>
</mgrwt>
</event>
<event>
 6    1  0.1773638E-005  0.1326826E+04  0.7818608E-02  0.9008558E-01
         -2   -1    0    0    0  501 -0.00000000000E+00  0.00000000000E+00  0.14040241933E+04  0.14040241933E+04  0.00000000000E+00 0.  1.
          2   -1    0    0  501    0  0.00000000000E+00 -0.00000000000E+00 -0.31346821112E+03  0.31346821112E+03  0.00000000000E+00 0. -1.
         23    2    1    2    0    0  0.17605420252E+02 -0.13421892513E+03  0.13843861513E+04  0.13939791297E+04  0.91258574424E+02 0.  0.
         11    1    3    3    0    0  0.21184004995E+02  0.63110774273E+01  0.15137247785E+03  0.15297783767E+03  0.00000000000E+00 0. -1.
        -11    1    3    3    0    0 -0.35785847427E+01 -0.14053000256E+03  0.12330136735E+04  0.12410012920E+04  0.00000000000E+00 0.  1.
         22    1    1    2    0    0 -0.17605420252E+02  0.13421892513E+03 -0.29383016909E+03  0.32351327477E+03  0.00000000000E+00 0. -1.
<mgrwt>
<rscale>  0 0.13268262E+04</rscale>
<asrwt>0</asrwt>
<pdfrwt beam="1">  1        2 0.48225879E-01 0.13268262E+04</pdfrwt>
<pdfrwt beam="2">  1       -2 0.21600372E+00 0.13268262E+04</pdfrwt>
<totfact> 0.10714007E+01</totfact>
</mgrwt>
</event>
<event>
 6    1  0.1773638E-005  0.1168339E+04  0.7818608E-02  0.9141030E-01
          2   -1    0    0  501    0  0.00000000000E+00  0.00000000000E+00  0.14385178971E+04  0.14385178971E+04  0.00000000000E+00 0. -1.
         -2   -1    0    0    0  501 -0.00000000000E+00 -0.00000000000E+00 -0.23722603233E+03  0.23722603233E+03  0.00000000000E+00 0.  1.
         23    2    1    2    0    0  0.29582659517E+03 -0.23711342075E+03 -0.27357993364E+02  0.38993032606E+03  0.86954302182E+02 0.  0.
         13    1    3    3    0    0  0.60938600612E+02 -0.32884515715E+02 -0.37023972430E+02  0.78521837426E+02  0.00000000000E+00 0.  1.
        -13    1    3    3    0    0  0.23488799456E+03 -0.20422890504E+03  0.96659790663E+01  0.31140848863E+03  0.00000000000E+00 0. -1.
         22    1    1    2    0    0 -0.29582659517E+03  0.23711342075E+03  0.12286498581E+04  0.12858136033E+04  0.00000000000E+00 0. -1.
<mgrwt>
<rscale>  0 0.11683388E+04</rscale>
<asrwt>0</asrwt>
<pdfrwt beam="1">  1        2 0.22131044E+00 0.11683388E+04</pdfrwt>
<pdfrwt beam="2">  1       -2 0.36496313E-01 0.11683388E+04</pdfrwt>
<totfact> 0.96068921E+01</totfact>
</mgrwt>
</event>
<event>
 6    1  0.1773638E-005  0.1183565E+04  0.7818608E-02  0.9127365E-01
         -2   -1    0    0    0  501 -0.00000000000E+00  0.00000000000E+00  0.26359185086E+03  0.26359185086E+03  0.00000000000E+00 0.  1.
          2   -1    0    0  501    0  0.00000000000E+00 -0.00000000000E+00 -0.13285934777E+04  0.13285934777E+04  0.00000000000E+00 0. -1.
         23    2    1    2    0    0 -0.47707320102E+03 -0.13382692357E+03 -0.96218045844E+03  0.10861411830E+04  0.91667607148E+02 0.  0.
         11    1    3    3    0    0 -0.36586768970E+03 -0.89888042490E+02 -0.64225164924E+03  0.74459801739E+03  0.00000000000E+00 0. -1.
        -11    1    3    3    0    0 -0.11120551132E+03 -0.43938881082E+02 -0.31992880920E+03  0.34154316561E+03  0.00000000000E+00 0.  1.
         22    1    1    2    0    0  0.47707320102E+03  0.13382692357E+03 -0.10282116842E+03  0.50604414558E+03  0.00000000000E+00 0.  1.
<mgrwt>
<rscale>  0 0.11835648E+04</rscale>
<asrwt>0</asrwt>
<pdfrwt beam="1">  1        2 0.20439900E+00 0.11835648E+04</pdfrwt>
<pdfrwt beam="2">  1       -2 0.40552592E-01 0.11835648E+04</pdfrwt>
<totfact> 0.90417713E+01</totfact>
</mgrwt>
</event>
<event>
 6    1  0.1773638E-005  0.2401804E+04  0.7818608E-02  0.8438829E-01
          1   -1    0    0  501    0  0.00000000000E+00  0.00000000000E+00  0.12242108166E+04  0.12242108166E+04  0.00000000000E+00 0. -1.
         -1   -1    0    0    0  501 -0.00000000000E+00 -0.00000000000E+00 -0.11780368293E+04  0.11780368293E+04  0.00000000000E+00 0.  1.
         23    2    1    2    0    0  0.68316681065E+03 -0.23728884047E+03 -0.93357596088E+03  0.11844903442E+04  0.91817295851E+02 0.  0.
         13    1    3    3    0    0  0.18290398484E+03 -0.24069187878E+02 -0.25985088553E+03  0.31867801334E+03  0.00000000000E+00 0. -1.
        -13    1    3    3    0    0  0.50026282580E+03 -0.21321965259E+03 -0.67372507536E+03  0.86581233087E+03  0.00000000000E+00 0.  1.
         22    1    1    2    0    0 -0.68316681065E+03  0.23728884047E+03  0.97974994820E+03  0.12177573018E+04  0.00000000000E+00 0. -1.
<mgrwt>
<rscale>  0 0.24018038E+04</rscale>
<asrwt>0</asrwt>
<pdfrwt beam="1">  1        1 0.18834013E+00 0.24018038E+04</pdfrwt>
<pdfrwt beam="2">  1       -1 0.18123644E+00 0.24018038E+04</pdfrwt>
<totfact> 0.18744087E+00</totfact>
</mgrwt>
</event>
<event>
 6    1  0.1773638E-005  0.1792726E+04  0.7818608E-02  0.8710177E-01
          2   -1    0    0  501    0  0.00000000000E+00  0.00000000000E+00  0.10350806479E+04  0.10350806479E+04  0.00000000000E+00 0. -1.
         -2   -1    0    0    0  501 -0.00000000000E+00 -0.00000000000E+00 -0.77623548266E+03  0.77623548266E+03  0.00000000000E+00 0.  1.
         23    2    1    2    0    0 -0.20809282276E+02  0.87045441726E+03 -0.75272627526E+02  0.87870762845E+03  0.91308318829E+02 0.  0.
         13    1    3    3    0    0  0.35252313732E+02  0.24665876950E+03 -0.22415962067E+02  0.25017144031E+03  0.00000000000E+00 0. -1.
        -13    1    3    3    0    0 -0.56061596008E+02  0.62379564776E+03 -0.52856665459E+02  0.62853618814E+03  0.00000000000E+00 0.  1.
         22    1    1    2    0    0  0.20809282276E+02 -0.87045441726E+03  0.33411779276E+03  0.93260850210E+03  0.00000000000E+00 0.  1.
<mgrwt>
<rscale>  0 0.17927257E+04</rscale>
<asrwt>0</asrwt>
<pdfrwt beam="1">  1        2 0.15924318E+00 0.17927257E+04</pdfrwt>
<pdfrwt beam="2">  1       -2 0.11942084E+00 0.17927257E+04</pdfrwt>
<totfact> 0.12145406E+01</totfact>
</mgrwt>
</event>
<event>
 6    1  0.1773638E-005  0.2456864E+04  0.7818608E-02  0.8418516E-01
          2   -1    0    0  501    0  0.00000000000E+00  0.00000000000E+00  0.12099333316E+04  0.12099333316E+04  0.00000000000E+00 0. -1.
         -2   -1    0    0    0  501 -0.00000000000E+00 -0.00000000000E+00 -0.12472139229E+04  0.12472139229E+04  0.00000000000E+00 0.  1.
         23    2    1    2    0    0 -0.54054288331E+03 -0.75834232319E+03  0.77990946349E+03  0.12181681290E+04  0.91679504231E+02 0.  0.
         11    1    3    3    0    0 -0.29902105257E+03 -0.48810667520E+03  0.45104099574E+03  0.72876587193E+03  0.00000000000E+00 0. -1.
        -11    1    3    3    0    0 -0.24152183075E+03 -0.27023564799E+03  0.32886846775E+03  0.48940225709E+03  0.00000000000E+00 0.  1.
         22    1    1    2    0    0  0.54054288331E+03  0.75834232319E+03 -0.81719005472E+03  0.12389791255E+04  0.00000000000E+00 0.  1.
<mgrwt>
<rscale>  0 0.24568644E+04</rscale>
<asrwt>0</asrwt>
<pdfrwt beam="1">  1        2 0.18614359E+00 0.24568644E+04</pdfrwt>
<pdfrwt beam="2">  1       -2 0.19187907E+00 0.24568644E+04</pdfrwt>
<totfact> 0.25179391E+00</totfact>
</mgrwt>
</event>
<event>
 6    1  0.1773638E-005  0.2261297E+04  0.7818608E-02  0.8493339E-01
          1   -1    0    0  501    0  0.00000000000E+00  0.00000000000E+00  0.17117641097E+04  0.17117641097E+04  0.00000000000E+00 0. -1.
         -1   -1    0    0    0  501 -0.00000000000E+00 -0.00000000000E+00 -0.74681184708E+03  0.74681184708E+03  0.00000000000E+00 0.  1.
         23    2    1    2    0    0 -0.88090554920E+03  0.62176896605E+03  0.12046619842E+03  0.10889964789E+04  0.93861558921E+02 0.  0.
         13    1    3    3    0    0 -0.44391545974E+03  0.37048238809E+03  0.67808244957E+02  0.58216500528E+03  0.00000000000E+00 0. -1.
        -13    1    3    3    0    0 -0.43699008946E+03  0.25128657795E+03  0.52657953458E+02  0.50683147358E+03  0.00000000000E+00 0.  1.
         22    1    1    2    0    0  0.88090554920E+03 -0.62176896605E+03  0.84448606425E+03  0.13695794780E+04  0.00000000000E+00 0. -1.
<mgrwt>
<rscale>  0 0.22612967E+04</rscale>
<asrwt>0</asrwt>
<pdfrwt beam="1">  1        1 0.26334832E+00 0.22612967E+04</pdfrwt>
<pdfrwt beam="2">  1       -1 0.11489413E+00 0.22612967E+04</pdfrwt>
<totfact> 0.29186840E+00</totfact>
</mgrwt>
</event>
<event>
 6    1  0.1773638E-005  0.6518947E+03  0.7818608E-02  0.9803230E-01
         -1   -1    0    0    0  501 -0.00000000000E+00  0.00000000000E+00  0.37609254866E+03  0.37609254866E+03  0.00000000000E+00 0.  1.
          1   -1    0    0  501    0  0.00000000000E+00 -0.00000000000E+00 -0.28248811583E+03  0.28248811583E+03  0.00000000000E+00 0. -1.
         23    2    1    2    0    0  0.65244591778E+02  0.14821903982E+03 -0.22981180878E+03  0.29688492791E+03  0.95401532723E+02 0.  0.
         13    1    3    3    0    0  0.12519194677E+02  0.91280252050E+02 -0.18649458300E+03  0.20801212498E+03  0.00000000000E+00 0.  1.
        -13    1    3    3    0    0  0.52725397101E+02  0.56938787771E+02 -0.43317225778E+02  0.88872802934E+02  0.00000000000E+00 0. -1.
         22    1    1    2    0    0 -0.65244591778E+02 -0.14821903982E+03  0.32341624161E+03  0.36169573658E+03  0.00000000000E+00 0.  1.
<mgrwt>
<rscale>  0 0.65189470E+03</rscale>
<asrwt>0</asrwt>
<pdfrwt beam="1">  1        1 0.43459710E-01 0.65189470E+03</pdfrwt>
<pdfrwt beam="2">  1       -1 0.57860392E-01 0.65189470E+03</pdfrwt>
<totfact> 0.29106748E+02</totfact>
</mgrwt>
</event>
<event>
 6    1  0.1773638E-005  0.3350453E+04  0.7818608E-02  0.8150175E-01
         -1   -1    0    0    0  501 -0.00000000000E+00  0.00000000000E+00  0.10674628916E+04  0.10674628916E+04  0.00000000000E+00 0.  1.
          1   -1    0    0  501    0  0.00000000000E+00 -0.00000000000E+00 -0.26290226174E+04  0.26290226174E+04  0.00000000000E+00 0. -1.
         23    2    1    2    0    0 -0.53431637273E+03  0.22672188286E+03 -0.25135189252E+04  0.25815311980E+04  0.98128183721E+02 0.  0.
         11    1    3    3    0    0 -0.25119422582E+03  0.54916680129E+02 -0.10536931605E+04  0.10846122151E+04  0.00000000000E+00 0.  1.
        -11    1    3    3    0    0 -0.28312214692E+03  0.17180520273E+03 -0.14598257648E+04  0.14969189829E+04  0.00000000000E+00 0. -1.
         22    1    1    2    0    0  0.53431637273E+03 -0.22672188286E+03  0.95195919944E+03  0.11149543111E+04  0.00000000000E+00 0.  1.
<mgrwt>
<rscale>  0 0.33504532E+04</rscale>
<asrwt>0</asrwt>
<pdfrwt beam="1">  1        1 0.40446501E+00 0.33504532E+04</pdfrwt>
<pdfrwt beam="2">  1       -1 0.16422506E+00 0.33504532E+04</pdfrwt>
<totfact> 0.24694000E-01</totfact>
</mgrwt>
</event>
<event>
 6    1  0.1773638E-005  0.2450308E+04  0.7818608E-02  0.8420906E-01
         -2   -1    0    0    0  501 -0.00000000000E+00  0.00000000000E+00  0.20547564855E+04  0.20547564855E+04  0.00000000000E+00 0. -1.
          2   -1    0    0  501    0  0.00000000000E+00 -0.00000000000E+00 -0.73050127873E+03  0.73050127873E+03  0.00000000000E+00 0.  1.
         23    2    1    2    0    0 -0.69572302285E+03 -0.84244421371E+03  0.12889333928E+04  0.16921015959E+04  0.90087413278E+02 0.  0.
         11    1    3    3    0    0 -0.47440994406E+03 -0.53374556780E+03  0.78780650317E+03  0.10632912172E+04  0.00000000000E+00 0. -1.
        -11    1    3    3    0    0 -0.22131307878E+03 -0.30869864591E+03  0.50112688962E+03  0.62881037867E+03  0.00000000000E+00 0.  1.
         22    1    1    2    0    0  0.69572302285E+03  0.84244421371E+03  0.35321813936E+02  0.10931561683E+04  0.00000000000E+00 0.  1.
<mgrwt>
<rscale>  0 0.24503079E+04</rscale>
<asrwt>0</asrwt>
<pdfrwt beam="1">  1        2 0.11238481E+00 0.24503079E+04</pdfrwt>
<pdfrwt beam="2">  1       -2 0.31611638E+00 0.24503079E+04</pdfrwt>
<totfact> 0.87950983E-01</totfact>
</mgrwt>
</event>
<event>
 6    1  0.1773638E-005  0.4663144E+04  0.7818608E-02  0.7882681E-01
         -1   -1    0    0    0  501 -0.00000000000E+00  0.00000000000E+00  0.20787132426E+04  0.20787132426E+04  0.00000000000E+00 0.  1.
          1   -1    0    0  501    0  0.00000000000E+00 -0.00000000000E+00 -0.26151887076E+04  0.26151887076E+04  0.00000000000E+00 0. -1.
         23    2    1    2    0    0 -0.58931433500E+03 -0.22434312424E+04 -0.39337549788E+02  0.23216833196E+04  0.91601685436E+02 0.  0.
         13    1    3    3    0    0 -0.37282876260E+03 -0.13762031478E+04 -0.67395211470E+02  0.14274027129E+04  0.00000000000E+00 0. -1.
        -13    1    3    3    0    0 -0.21648557239E+03 -0.86722809458E+03  0.28057661682E+02  0.89428060667E+03  0.00000000000E+00 0.  1.
         22    1    1    2    0    0  0.58931433500E+03  0.22434312424E+04 -0.49713791525E+03  0.23722186307E+04  0.00000000000E+00 0. -1.
<mgrwt>
<rscale>  0 0.46631437E+04</rscale>
<asrwt>0</asrwt>
<pdfrwt beam="1">  1        1 0.40233672E+00 0.46631437E+04</pdfrwt>
<pdfrwt beam="2">  1       -1 0.31980204E+00 0.46631437E+04</pdfrwt>
<totfact> 0.20497683E-02</totfact>
</mgrwt>
</event>
<event>
 6    1  0.1773638E-005  0.9710722E+03  0.7818608E-02  0.9340854E-01
         -1   -1    0    0    0  501 -0.00000000000E+00  0.00000000000E+00  0.14000699010E+04  0.14000699010E+04  0.00000000000E+00 0.  1.
          1   -1    0    0  501    0  0.00000000000E+00 -0.00000000000E+00 -0.16838110146E+03  0.16838110146E+03  0.00000000000E+00 0. -1.
         23    2    1    2    0    0 -0.36274776540E+03 -0.31642333931E+03  0.62192214126E+03  0.79158225646E+03  0.90031372233E+02 0.  0.
         11    1    3    3    0    0 -0.20321187957E+03 -0.13203130307E+03  0.26249017268E+03  0.35725120538E+03  0.00000000000E+00 0.  1.
        -11    1    3    3    0    0 -0.15953588583E+03 -0.18439203624E+03  0.35943196858E+03  0.43433105108E+03  0.00000000000E+00 0. -1.
         22    1    1    2    0    0  0.36274776540E+03  0.31642333931E+03  0.60976665831E+03  0.77686874602E+03  0.00000000000E+00 0. -1.
<mgrwt>
<rscale>  0 0.97107222E+03</rscale>
<asrwt>0</asrwt>
<pdfrwt beam="1">  1        1 0.25904786E-01 0.97107222E+03</pdfrwt>
<pdfrwt beam="2">  1       -1 0.21539536E+00 0.97107222E+03</pdfrwt>
<totfact> 0.22201705E+01</totfact>
</mgrwt>
</event>
<event>
 6    1  0.1773638E-005  0.3741382E+04  0.7818608E-02  0.8058853E-01
          1   -1    0    0  501    0  0.00000000000E+00  0.00000000000E+00  0.15040383034E+04  0.15040383034E+04  0.00000000000E+00 0. -1.
         -1   -1    0    0    0  501 -0.00000000000E+00 -0.00000000000E+00 -0.23267254662E+04  0.23267254662E+04  0.00000000000E+00 0.  1.
         23    2    1    2    0    0 -0.52339340811E+03  0.13752435806E+04  0.76922574578E+03  0.16629486774E+04  0.91948301849E+02 0.  0.
         13    1    3    3    0    0 -0.41651036801E+03  0.10548210106E+04  0.55134786193E+03  0.12609967153E+04  0.00000000000E+00 0. -1.
        -13    1    3    3    0    0 -0.10688304010E+03  0.32042256996E+03  0.21787788385E+03  0.40195196215E+03  0.00000000000E+00 0.  1.
         22    1    1    2    0    0  0.52339340811E+03 -0.13752435806E+04 -0.15919129086E+04  0.21678150922E+04  0.00000000000E+00 0.  1.
<mgrwt>
<rscale>  0 0.37413817E+04</rscale>
<asrwt>0</asrwt>
<pdfrwt beam="1">  1        1 0.23139051E+00 0.37413817E+04</pdfrwt>
<pdfrwt beam="2">  1       -1 0.35795776E+00 0.37413817E+04</pdfrwt>
<totfact> 0.71450808E-02</totfact>
</mgrwt>
</event>
<event>
 6    1  0.1773638E-005  0.2097827E+04  0.7818608E-02  0.8562201E-01
          2   -1    0    0  501    0  0.00000000000E+00  0.00000000000E+00  0.12284884066E+04  0.12284884066E+04  0.00000000000E+00 0. -1.
         -2   -1    0    0    0  501 -0.00000000000E+00 -0.00000000000E+00 -0.89558846614E+03  0.89558846614E+03  0.00000000000E+00 0.  1.
         23    2    1    2    0    0 -0.90505132644E+03 -0.28301799587E+03 -0.28242341272E+03  0.99366105614E+03  0.91554469886E+02 0.  0.
         11    1    3    3    0    0 -0.68855952650E+03 -0.17994968572E+03 -0.23290877900E+03  0.74882749032E+03  0.00000000000E+00 0. -1.
        -11    1    3    3    0    0 -0.21649179994E+03 -0.10306831015E+03 -0.49514633718E+02  0.24483356582E+03  0.00000000000E+00 0.  1.
         22    1    1    2    0    0  0.90505132644E+03  0.28301799587E+03  0.61532335318E+03  0.11304158166E+04  0.00000000000E+00 0. -1.
<mgrwt>
<rscale>  0 0.20978275E+04</rscale>
<asrwt>0</asrwt>
<pdfrwt beam="1">  1        2 0.18899822E+00 0.20978275E+04</pdfrwt>
<pdfrwt beam="2">  1       -2 0.13778284E+00 0.20978275E+04</pdfrwt>
<totfact> 0.62855787E+00</totfact>
</mgrwt>
</event>
<event>
 6    1  0.1773638E-005  0.1629266E+04  0.7818608E-02  0.8802768E-01
          4   -1    0    0  501    0  0.00000000000E+00  0.00000000000E+00  0.55985088088E+03  0.55985088088E+03  0.00000000000E+00 0. -1.
         -4   -1    0    0    0  501 -0.00000000000E+00 -0.00000000000E+00 -0.11853632062E+04  0.11853632062E+04  0.00000000000E+00 0.  1.
         23    2    1    2    0    0 -0.22209543696E+03  0.44335720951E+03  0.37502098255E+03  0.62854094845E+03  0.92363348714E+02 0.  0.
         13    1    3    3    0    0 -0.86581336958E+02  0.26394234612E+03  0.18087537050E+03  0.33147818878E+03  0.00000000000E+00 0. -1.
        -13    1    3    3    0    0 -0.13551410001E+03  0.17941486339E+03  0.19414561205E+03  0.29706275967E+03  0.00000000000E+00 0.  1.
         22    1    1    2    0    0  0.22209543696E+03 -0.44335720951E+03 -0.10005333078E+04  0.11166731386E+04  0.00000000000E+00 0.  1.
<mgrwt>
<rscale>  0 0.16292656E+04</rscale>
<asrwt>0</asrwt>
<pdfrwt beam="1">  1        4 0.86130905E-01 0.16292656E+04</pdfrwt>
<pdfrwt beam="2">  1       -4 0.18236357E+00 0.16292656E+04</pdfrwt>
<totfact> 0.38819444E-01</totfact>
</mgrwt>
</event>
<event>
 6    1  0.1773638E-005  0.6369158E+03  0.7818608E-02  0.9831645E-01
          1   -1    0    0  501    0  0.00000000000E+00  0.00000000000E+00  0.56766128008E+03  0.56766128008E+03  0.00000000000E+00 0. -1.
         -1   -1    0    0    0  501 -0.00000000000E+00 -0.00000000000E+00 -0.17865483907E+03  0.17865483907E+03  0.00000000000E+00 0.  1.
         23    2    1    2    0    0  0.42259266390E+02 -0.27990917687E+03  0.35159993971E+03  0.46077410958E+03  0.92494700199E+02 0.  0.
         11    1    3    3    0    0 -0.26945183778E+02 -0.12146812846E+03  0.16030443089E+03  0.20292377811E+03  0.00000000000E+00 0.  1.
        -11    1    3    3    0    0  0.69204450168E+02 -0.15844104841E+03  0.19129550883E+03  0.25785033148E+03  0.00000000000E+00 0. -1.
         22    1    1    2    0    0 -0.42259266390E+02  0.27990917687E+03  0.37406501300E+02  0.28554200957E+03  0.00000000000E+00 0.  1.
<mgrwt>
<rscale>  0 0.63691580E+03</rscale>
<asrwt>0</asrwt>
<pdfrwt beam="1">  1        1 0.87332504E-01 0.63691580E+03</pdfrwt>
<pdfrwt beam="2">  1       -1 0.27485360E-01 0.63691580E+03</pdfrwt>
<totfact> 0.44578790E+02</totfact>
</mgrwt>
</event>
<event>
 6    1  0.1773638E-005  0.3410710E+03  0.7818608E-02  0.1066341E+00
          1   -1    0    0  501    0  0.00000000000E+00  0.00000000000E+00  0.14774801392E+03  0.14774801392E+03  0.00000000000E+00 0.  1.
         -1   -1    0    0    0  501 -0.00000000000E+00 -0.00000000000E+00 -0.19683757449E+03  0.19683757449E+03  0.00000000000E+00 0. -1.
         23    2    1    2    0    0  0.79800206589E+02 -0.13716695478E+02 -0.16377957131E+03  0.20419321230E+03  0.91186069466E+02 0.  0.
         11    1    3    3    0    0  0.42731592091E+02  0.14563884014E+02 -0.14837258279E+03  0.15508874557E+03  0.00000000000E+00 0. -1.
        -11    1    3    3    0    0  0.37068614499E+02 -0.28280579492E+02 -0.15406988521E+02  0.49104466727E+02  0.00000000000E+00 0.  1.
         22    1    1    2    0    0 -0.79800206589E+02  0.13716695478E+02  0.11469001074E+03  0.14039237611E+03  0.00000000000E+00 0.  1.
<mgrwt>
<rscale>  0 0.34107102E+03</rscale>
<asrwt>0</asrwt>
<pdfrwt beam="1">  1        1 0.22730464E-01 0.34107102E+03</pdfrwt>
<pdfrwt beam="2">  1       -1 0.30282704E-01 0.34107102E+03</pdfrwt>
<totfact> 0.21811755E+03</totfact>
</mgrwt>
</event>
<event>
 6    1  0.1773638E-005  0.1995679E+04  0.7818608E-02  0.8608643E-01
         -2   -1    0    0    0  501 -0.00000000000E+00  0.00000000000E+00  0.13852078390E+04  0.13852078390E+04  0.00000000000E+00 0.  1.
          2   -1    0    0  501    0  0.00000000000E+00 -0.00000000000E+00 -0.71879762499E+03  0.71879762499E+03  0.00000000000E+00 0. -1.
         23    2    1    2    0    0  0.31602958433E+03  0.50563206458E+03 -0.50688373865E+03  0.78789103803E+03  0.91119045216E+02 0.  0.
         13    1    3    3    0    0  0.22160438299E+03  0.42063040564E+03 -0.38406616200E+03  0.61118348923E+03  0.00000000000E+00 0. -1.
        -13    1    3    3    0    0  0.94425201338E+02  0.85001658933E+02 -0.12281757665E+03  0.17670754880E+03  0.00000000000E+00 0.  1.
         22    1    1    2    0    0 -0.31602958433E+03 -0.50563206458E+03  0.11732939527E+04  0.13161144260E+04  0.00000000000E+00 0.  1.
<mgrwt>
<rscale>  0 0.19956794E+04</rscale>
<asrwt>0</asrwt>
<pdfrwt beam="1">  1        2 0.11058425E+00 0.19956794E+04</pdfrwt>
<pdfrwt beam="2">  1       -2 0.21310890E+00 0.19956794E+04</pdfrwt>
<totfact> 0.40237512E+00</totfact>
</mgrwt>
</event>
<event>
 6    1  0.1773638E-005  0.6159893E+03  0.7818608E-02  0.9872778E-01
          2   -1    0    0  501    0  0.00000000000E+00  0.00000000000E+00  0.40545746457E+03  0.40545746457E+03  0.00000000000E+00 0. -1.
         -2   -1    0    0    0  501 -0.00000000000E+00 -0.00000000000E+00 -0.23395969155E+03  0.23395969155E+03  0.00000000000E+00 0.  1.
         23    2    1    2    0    0  0.25982095475E+03  0.12457457194E+03  0.17978453404E+03  0.35115612353E+03  0.89232235839E+02 0.  0.
         11    1    3    3    0    0  0.72245152424E+02 -0.42307985368E+01  0.60022322201E+02  0.94020959724E+02  0.00000000000E+00 0.  1.
        -11    1    3    3    0    0  0.18757580233E+03  0.12880537048E+03  0.11976221184E+03  0.25713516381E+03  0.00000000000E+00 0. -1.
         22    1    1    2    0    0 -0.25982095475E+03 -0.12457457194E+03 -0.82867610185E+01  0.28826103259E+03  0.00000000000E+00 0. -1.
<mgrwt>
<rscale>  0 0.61598930E+03</rscale>
<asrwt>0</asrwt>
<pdfrwt beam="1">  1        2 0.62378072E-01 0.61598930E+03</pdfrwt>
<pdfrwt beam="2">  1       -2 0.35993799E-01 0.61598930E+03</pdfrwt>
<totfact> 0.57252265E+02</totfact>
</mgrwt>
</event>
<event>
 6    1  0.1773638E-005  0.9843598E+03  0.7818608E-02  0.9325867E-01
          1   -1    0    0  501    0  0.00000000000E+00  0.00000000000E+00  0.36251293343E+03  0.36251293343E+03  0.00000000000E+00 0. -1.
         -1   -1    0    0    0  501 -0.00000000000E+00 -0.00000000000E+00 -0.66822740168E+03  0.66822740168E+03  0.00000000000E+00 0.  1.
         23    2    1    2    0    0  0.47649494526E+03 -0.79103870136E+02 -0.22748129662E+03  0.54142930492E+03  0.89961640632E+02 0.  0.
         13    1    3    3    0    0  0.32697110934E+02  0.88114196607E+01  0.24107545730E+01  0.33949284491E+02  0.00000000000E+00 0. -1.
        -13    1    3    3    0    0  0.44379783432E+03 -0.87915289796E+02 -0.22989205119E+03  0.50748002043E+03  0.00000000000E+00 0.  1.
         22    1    1    2    0    0 -0.47649494526E+03  0.79103870136E+02 -0.78233171636E+02  0.48931103020E+03  0.00000000000E+00 0.  1.
<mgrwt>
<rscale>  0 0.98435984E+03</rscale>
<asrwt>0</asrwt>
<pdfrwt beam="1">  1        1 0.55771221E-01 0.98435984E+03</pdfrwt>
<pdfrwt beam="2">  1       -1 0.10280422E+00 0.98435984E+03</pdfrwt>
<totfact> 0.61391154E+01</totfact>
</mgrwt>
</event>
<event>
 6    1  0.1773638E-005  0.3319559E+04  0.7818608E-02  0.8157936E-01
         -2   -1    0    0    0  501 -0.00000000000E+00  0.00000000000E+00  0.13406777789E+04  0.13406777789E+04  0.00000000000E+00 0.  1.
          2   -1    0    0  501    0  0.00000000000E+00 -0.00000000000E+00 -0.20548318411E+04  0.20548318411E+04  0.00000000000E+00 0. -1.
         23    2    1    2    0    0  0.68086819244E+03 -0.15066685874E+04 -0.22297063967E+03  0.16707218411E+04  0.89240329882E+02 0.  0.
         13    1    3    3    0    0  0.62605353864E+02 -0.21195098040E+03 -0.31783377576E+02  0.22327747650E+03  0.00000000000E+00 0.  1.
        -13    1    3    3    0    0  0.61826283857E+03 -0.12947176070E+04 -0.19118726210E+03  0.14474443646E+04  0.00000000000E+00 0. -1.
         22    1    1    2    0    0 -0.68086819244E+03  0.15066685874E+04 -0.49118342257E+03  0.17247877789E+04  0.00000000000E+00 0. -1.
<mgrwt>
<rscale>  0 0.33195586E+04</rscale>
<asrwt>0</asrwt>
<pdfrwt beam="1">  1        2 0.31612798E+00 0.33195586E+04</pdfrwt>
<pdfrwt beam="2">  1       -2 0.20625812E+00 0.33195586E+04</pdfrwt>
<totfact> 0.62869349E-01</totfact>
</mgrwt>
</event>
<event>
 6    1  0.1773638E-005  0.4922380E+04  0.7818608E-02  0.7840594E-01
         -2   -1    0    0    0  501 -0.00000000000E+00  0.00000000000E+00  0.18633284997E+04  0.18633284997E+04  0.00000000000E+00 0.  1.
          2   -1    0    0  501    0  0.00000000000E+00 -0.00000000000E+00 -0.32508792449E+04  0.32508792449E+04  0.00000000000E+00 0. -1.
         23    2    1    2    0    0 -0.16678932864E+04 -0.28982974551E+03  0.11608559740E+04  0.20547558161E+04  0.92550393287E+02 0.  0.
         13    1    3    3    0    0 -0.44034023438E+03 -0.11266502887E+03  0.28692216956E+03  0.53751024375E+03  0.00000000000E+00 0. -1.
        -13    1    3    3    0    0 -0.12275530520E+04 -0.17716471664E+03  0.87393380447E+03  0.15172455724E+04  0.00000000000E+00 0.  1.
         22    1    1    2    0    0  0.16678932864E+04  0.28982974551E+03 -0.25484067192E+04  0.30594519285E+04  0.00000000000E+00 0. -1.
<mgrwt>
<rscale>  0 0.49223799E+04</rscale>
<asrwt>0</asrwt>
<pdfrwt beam="1">  1        2 0.50013527E+00 0.49223799E+04</pdfrwt>
<pdfrwt beam="2">  1       -2 0.28666592E+00 0.49223799E+04</pdfrwt>
<totfact> 0.33690766E-02</totfact>
</mgrwt>
</event>
<event>
 6    1  0.1773638E-005  0.1212735E+04  0.7818608E-02  0.9101782E-01
         -1   -1    0    0    0  501 -0.00000000000E+00  0.00000000000E+00  0.39297587657E+03  0.39297587657E+03  0.00000000000E+00 0.  1.
          1   -1    0    0  501    0  0.00000000000E+00 -0.00000000000E+00 -0.93563384671E+03  0.93563384671E+03  0.00000000000E+00 0. -1.
         23    2    1    2    0    0  0.21128363740E+03  0.53235437389E+03 -0.65706358944E+02  0.58327436637E+03  0.88598566728E+02 0.  0.
         11    1    3    3    0    0  0.50112754198E+02  0.99183944090E+02 -0.47165714249E+02  0.12072012052E+03  0.00000000000E+00 0.  1.
        -11    1    3    3    0    0  0.16117088320E+03  0.43317042980E+03 -0.18540644695E+02  0.46255424585E+03  0.00000000000E+00 0. -1.
         22    1    1    2    0    0 -0.21128363740E+03 -0.53235437389E+03 -0.47695161119E+03  0.74533535691E+03  0.00000000000E+00 0. -1.
<mgrwt>
<rscale>  0 0.12127350E+04</rscale>
<asrwt>0</asrwt>
<pdfrwt beam="1">  1        1 0.14394367E+00 0.12127350E+04</pdfrwt>
<pdfrwt beam="2">  1       -1 0.60457828E-01 0.12127350E+04</pdfrwt>
<totfact> 0.46697101E+01</totfact>
</mgrwt>
</event>
<event>
 6    1  0.1773638E-005  0.2070166E+04  0.7818608E-02  0.8574501E-01
          2   -1    0    0  501    0  0.00000000000E+00  0.00000000000E+00  0.17937187057E+04  0.17937187057E+04  0.00000000000E+00 0. -1.
         -2   -1    0    0    0  501 -0.00000000000E+00 -0.00000000000E+00 -0.59730481118E+03  0.59730481118E+03  0.00000000000E+00 0.  1.
         23    2    1    2    0    0 -0.10491350662E+03  0.52823966526E+03  0.16175700753E+04  0.17073448523E+04  0.91921206550E+02 0.  0.
         11    1    3    3    0    0 -0.10296002932E+03  0.38150159287E+03  0.10767373092E+04  0.11469557385E+04  0.00000000000E+00 0. -1.
        -11    1    3    3    0    0 -0.19534773026E+01  0.14673807239E+03  0.54083276610E+03  0.56038911379E+03  0.00000000000E+00 0.  1.
         22    1    1    2    0    0  0.10491350662E+03 -0.52823966526E+03 -0.42115618080E+03  0.68367866461E+03  0.00000000000E+00 0.  1.
<mgrwt>
<rscale>  0 0.20701660E+04</rscale>
<asrwt>0</asrwt>
<pdfrwt beam="1">  1        2 0.27595672E+00 0.20701660E+04</pdfrwt>
<pdfrwt beam="2">  1       -2 0.91893049E-01 0.20701660E+04</pdfrwt>
<totfact> 0.80922108E+00</totfact>
</mgrwt>
</event>
<event>
 6    1  0.1773638E-005  0.2820256E+04  0.7818608E-02  0.8297007E-01
          2   -1    0    0  501    0  0.00000000000E+00  0.00000000000E+00  0.21831783502E+04  0.21831783502E+04  0.00000000000E+00 0. -1.
         -2   -1    0    0    0  501 -0.00000000000E+00 -0.00000000000E+00 -0.91081012661E+03  0.91081012661E+03  0.00000000000E+00 0.  1.
         23    2    1    2    0    0  0.64764279888E+03  0.11257485010E+04  0.12354151900E+04  0.17947131368E+04  0.89407320668E+02 0.  0.
         13    1    3    3    0    0  0.23534164207E+03  0.41132466490E+03  0.51089547782E+03  0.69684134328E+03  0.00000000000E+00 0.  1.
        -13    1    3    3    0    0  0.41230115681E+03  0.71442383613E+03  0.72451971221E+03  0.10978717935E+04  0.00000000000E+00 0. -1.
         22    1    1    2    0    0 -0.64764279888E+03 -0.11257485010E+04  0.36953033516E+02  0.12992753400E+04  0.00000000000E+00 0.  1.
<mgrwt>
<rscale>  0 0.28202560E+04</rscale>
<asrwt>0</asrwt>
<pdfrwt beam="1">  1        2 0.33587359E+00 0.28202560E+04</pdfrwt>
<pdfrwt beam="2">  1       -2 0.14012464E+00 0.28202560E+04</pdfrwt>
<totfact> 0.16427888E+00</totfact>
</mgrwt>
</event>
<event>
 6    1  0.1773638E-005  0.2770216E+04  0.7818608E-02  0.8312575E-01
         -4   -1    0    0    0  501 -0.00000000000E+00  0.00000000000E+00  0.16529327280E+04  0.16529327280E+04  0.00000000000E+00 0.  1.
          4   -1    0    0  501    0  0.00000000000E+00 -0.00000000000E+00 -0.11606786121E+04  0.11606786121E+04  0.00000000000E+00 0. -1.
         23    2    1    2    0    0 -0.43052235680E+03  0.51152517653E+03 -0.98384697355E+03  0.11931540182E+04  0.93027619372E+02 0.  0.
         13    1    3    3    0    0 -0.21763758358E+03  0.21666644919E+03 -0.38435470039E+03  0.49197459660E+03  0.00000000000E+00 0. -1.
        -13    1    3    3    0    0 -0.21288477322E+03  0.29485872734E+03 -0.59949227316E+03  0.70117942164E+03  0.00000000000E+00 0.  1.
         22    1    1    2    0    0  0.43052235680E+03 -0.51152517653E+03  0.14761010894E+04  0.16204573219E+04  0.00000000000E+00 0.  1.
<mgrwt>
<rscale>  0 0.27702156E+04</rscale>
<asrwt>0</asrwt>
<pdfrwt beam="1">  1        4 0.17856594E+00 0.27702156E+04</pdfrwt>
<pdfrwt beam="2">  1       -4 0.25429734E+00 0.27702156E+04</pdfrwt>
<totfact> 0.18956777E-02</totfact>
</mgrwt>
</event>
<event>
 6    1  0.1773638E-005  0.1517620E+04  0.7818608E-02  0.8872820E-01
          1   -1    0    0  501    0  0.00000000000E+00  0.00000000000E+00  0.11490991609E+04  0.11490991609E+04  0.00000000000E+00 0. -1.
         -1   -1    0    0    0  501 -0.00000000000E+00 -0.00000000000E+00 -0.50108158267E+03  0.50108158267E+03  0.00000000000E+00 0.  1.
         23    2    1    2    0    0  0.23313878745E+03  0.23396008064E+03  0.10643605777E+04  0.11187369490E+04  0.98070934791E+02 0.  0.
         11    1    3    3    0    0  0.23467432139E+03  0.20087096319E+03  0.91461144755E+03  0.96536795108E+03  0.00000000000E+00 0. -1.
        -11    1    3    3    0    0 -0.15355339406E+01  0.33089117449E+02  0.14974913012E+03  0.15336899794E+03  0.00000000000E+00 0.  1.
         22    1    1    2    0    0 -0.23313878745E+03 -0.23396008064E+03 -0.41634299947E+03  0.53144379453E+03  0.00000000000E+00 0.  1.
<mgrwt>
<rscale>  0 0.15176197E+04</rscale>
<asrwt>0</asrwt>
<pdfrwt beam="1">  1        1 0.17678449E+00 0.15176197E+04</pdfrwt>
<pdfrwt beam="2">  1       -1 0.77089474E-01 0.15176197E+04</pdfrwt>
<totfact> 0.18993153E+01</totfact>
</mgrwt>
</event>
<event>
 6    1  0.1773638E-005  0.1350042E+04  0.7818608E-02  0.8990796E-01
         -2   -1    0    0    0  501 -0.00000000000E+00  0.00000000000E+00  0.54330823447E+03  0.54330823447E+03  0.00000000000E+00 0.  1.
          2   -1    0    0  501    0  0.00000000000E+00 -0.00000000000E+00 -0.83866482591E+03  0.83866482591E+03  0.00000000000E+00 0. -1.
         23    2    1    2    0    0 -0.36948461591E+03 -0.39794236220E+03  0.25568215363E+03  0.60833186215E+03  0.99082217333E+02 0.  0.
         13    1    3    3    0    0 -0.27275926008E+03 -0.23077040776E+03  0.18762478232E+03  0.40355378080E+03  0.00000000000E+00 0. -1.
        -13    1    3    3    0    0 -0.96725355836E+02 -0.16717195443E+03  0.68057371309E+02  0.20477808135E+03  0.00000000000E+00 0.  1.
         22    1    1    2    0    0  0.36948461591E+03  0.39794236220E+03 -0.55103874507E+03  0.77364119823E+03  0.00000000000E+00 0. -1.
<mgrwt>
<rscale>  0 0.13500422E+04</rscale>
<asrwt>0</asrwt>
<pdfrwt beam="1">  1        2 0.12902536E+00 0.13500422E+04</pdfrwt>
<pdfrwt beam="2">  1       -2 0.83585883E-01 0.13500422E+04</pdfrwt>
<totfact> 0.39539001E+01</totfact>
</mgrwt>
</event>
<event>
 6    1  0.1773638E-005  0.1037857E+04  0.7818608E-02  0.9267972E-01
         -2   -1    0    0    0  501 -0.00000000000E+00  0.00000000000E+00  0.35036967934E+03  0.35036967934E+03  0.00000000000E+00 0.  1.
          2   -1    0    0  501    0  0.00000000000E+00 -0.00000000000E+00 -0.76857859742E+03  0.76857859742E+03  0.00000000000E+00 0. -1.
         23    2    1    2    0    0 -0.24031807375E+03 -0.33736610957E+03 -0.54045720136E+03  0.68707640777E+03  0.91713331341E+02 0.  0.
         13    1    3    3    0    0 -0.16948271426E+03 -0.27861352740E+03 -0.46559012718E+03  0.56844001848E+03  0.00000000000E+00 0. -1.
        -13    1    3    3    0    0 -0.70835359493E+02 -0.58752582175E+02 -0.74867074186E+02  0.11863638929E+03  0.00000000000E+00 0.  1.
         22    1    1    2    0    0  0.24031807375E+03  0.33736610957E+03  0.12224828328E+03  0.43187186899E+03  0.00000000000E+00 0.  1.
<mgrwt>
<rscale>  0 0.10378567E+04</rscale>
<asrwt>0</asrwt>
<pdfrwt beam="1">  1        2 0.11824286E+00 0.10378567E+04</pdfrwt>
<pdfrwt beam="2">  1       -2 0.53903028E-01 0.10378567E+04</pdfrwt>
<totfact> 0.11734532E+02</totfact>
</mgrwt>
</event>
<event>
 6    1  0.1773638E-005  0.1390490E+04  0.7818608E-02  0.8960731E-01
          3   -1    0    0  501    0  0.00000000000E+00  0.00000000000E+00  0.54747807388E+03  0.54747807388E+03  0.00000000000E+00 0. -1.
         -3   -1    0    0    0  501 -0.00000000000E+00 -0.00000000000E+00 -0.88289548916E+03  0.88289548916E+03  0.00000000000E+00 0.  1.
         23    2    1    2    0    0  0.28814044806E+03 -0.45440330621E+03 -0.61614274752E+03  0.82348478026E+03  0.94805144940E+02 0.  0.
         13    1    3    3    0    0  0.14260451687E+03 -0.14064579478E+03 -0.21564490368E+03  0.29431277971E+03  0.00000000000E+00 0. -1.
        -13    1    3    3    0    0  0.14553593119E+03 -0.31375751143E+03 -0.40049784384E+03  0.52917200055E+03  0.00000000000E+00 0.  1.
         22    1    1    2    0    0 -0.28814044806E+03  0.45440330621E+03  0.28072533224E+03  0.60688878278E+03  0.00000000000E+00 0. -1.
<mgrwt>
<rscale>  0 0.13904904E+04</rscale>
<asrwt>0</asrwt>
<pdfrwt beam="1">  1        3 0.84227396E-01 0.13904904E+04</pdfrwt>
<pdfrwt beam="2">  1       -3 0.13583007E+00 0.13904904E+04</pdfrwt>
<totfact> 0.13758268E+00</totfact>
</mgrwt>
</event>
<event>
 6    1  0.1773638E-005  0.3588856E+04  0.7818608E-02  0.8093049E-01
         -1   -1    0    0    0  501 -0.00000000000E+00  0.00000000000E+00  0.21292300606E+04  0.21292300606E+04  0.00000000000E+00 0.  1.
          1   -1    0    0  501    0  0.00000000000E+00 -0.00000000000E+00 -0.15122704191E+04  0.15122704191E+04  0.00000000000E+00 0. -1.
         23    2    1    2    0    0  0.20211289522E+03 -0.55621297290E+03  0.20258534801E+04  0.21133629393E+04  0.10953582418E+03 0.  0.
         13    1    3    3    0    0  0.34974109944E+01 -0.77290477791E+02  0.17664955487E+03  0.19284998075E+03  0.00000000000E+00 0.  1.
        -13    1    3    3    0    0  0.19861548423E+03 -0.47892249511E+03  0.18492039253E+04  0.19205129586E+04  0.00000000000E+00 0. -1.
         22    1    1    2    0    0 -0.20211289522E+03  0.55621297290E+03 -0.14088938386E+04  0.15281375403E+04  0.00000000000E+00 0. -1.
<mgrwt>
<rscale>  0 0.35888559E+04</rscale>
<asrwt>0</asrwt>
<pdfrwt beam="1">  1        1 0.23265699E+00 0.35888559E+04</pdfrwt>
<pdfrwt beam="2">  1       -1 0.32757386E+00 0.35888559E+04</pdfrwt>
<totfact> 0.11340209E-01</totfact>
</mgrwt>
</event>
<event>
 6    1  0.1773638E-005  0.3983393E+04  0.7818608E-02  0.8007905E-01
          1   -1    0    0  501    0  0.00000000000E+00  0.00000000000E+00  0.18355108869E+04  0.18355108869E+04  0.00000000000E+00 0. -1.
         -1   -1    0    0    0  501 -0.00000000000E+00 -0.00000000000E+00 -0.21611719853E+04  0.21611719853E+04  0.00000000000E+00 0.  1.
         23    2    1    2    0    0 -0.10230490127E+04  0.94561749332E+03 -0.15896283273E+04  0.21156100714E+04  0.89811074923E+02 0.  0.
         11    1    3    3    0    0 -0.25420637778E+03  0.28175209164E+03 -0.40182632227E+03  0.55269296803E+03  0.00000000000E+00 0. -1.
        -11    1    3    3    0    0 -0.76884263497E+03  0.66386540168E+03 -0.11878020050E+04  0.15629171034E+04  0.00000000000E+00 0.  1.
         22    1    1    2    0    0  0.10230490127E+04 -0.94561749332E+03  0.12639672288E+04  0.18810728008E+04  0.00000000000E+00 0. -1.
<mgrwt>
<rscale>  0 0.39833929E+04</rscale>
<asrwt>0</asrwt>
<pdfrwt beam="1">  1        1 0.28238629E+00 0.39833929E+04</pdfrwt>
<pdfrwt beam="2">  1       -1 0.33248800E+00 0.39833929E+04</pdfrwt>
<totfact> 0.61220050E-02</totfact>
</mgrwt>
</event>
<event>
 6    1  0.1773638E-005  0.1196805E+04  0.7818608E-02  0.9115657E-01
          2   -1    0    0  501    0  0.00000000000E+00  0.00000000000E+00  0.24959408803E+03  0.24959408803E+03  0.00000000000E+00 0. -1.
         -2   -1    0    0    0  501 -0.00000000000E+00 -0.00000000000E+00 -0.14346727283E+04  0.14346727283E+04  0.00000000000E+00 0.  1.
         23    2    1    2    0    0 -0.31682669131E+03  0.67377655275E+02 -0.12986308731E+04  0.13410278174E+04  0.83633496618E+02 0.  0.
         13    1    3    3    0    0 -0.37768622786E+02 -0.16946672510E+02 -0.20992786687E+03  0.21397048363E+03  0.00000000000E+00 0. -1.
        -13    1    3    3    0    0 -0.27905806853E+03  0.84324327785E+02 -0.10887030062E+04  0.11270573338E+04  0.00000000000E+00 0.  1.
         22    1    1    2    0    0  0.31682669131E+03 -0.67377655275E+02  0.11355223287E+03  0.34323899887E+03  0.00000000000E+00 0. -1.
<mgrwt>
<rscale>  0 0.11968055E+04</rscale>
<asrwt>0</asrwt>
<pdfrwt beam="1">  1        2 0.38399091E-01 0.11968055E+04</pdfrwt>
<pdfrwt beam="2">  1       -2 0.22071888E+00 0.11968055E+04</pdfrwt>
<totfact> 0.13022409E+01</totfact>
</mgrwt>
</event>
<event>
 6    1  0.1773638E-005  0.5021949E+03  0.7818608E-02  0.1013208E+00
         -1   -1    0    0    0  501 -0.00000000000E+00  0.00000000000E+00  0.12681614247E+03  0.12681614247E+03  0.00000000000E+00 0.  1.
          1   -1    0    0  501    0  0.00000000000E+00 -0.00000000000E+00 -0.49717588019E+03  0.49717588019E+03  0.00000000000E+00 0. -1.
         23    2    1    2    0    0  0.51038023634E+00  0.21558984398E+03 -0.33026909312E+03  0.40470567766E+03  0.90718081704E+02 0.  0.
         13    1    3    3    0    0  0.35302497525E+02  0.55485628477E+02 -0.13220386305E+03  0.14765765373E+03  0.00000000000E+00 0. -1.
        -13    1    3    3    0    0 -0.34792117288E+02  0.16010421550E+03 -0.19806523007E+03  0.25704802394E+03  0.00000000000E+00 0.  1.
         22    1    1    2    0    0 -0.51038023634E+00 -0.21558984398E+03 -0.40090644600E+02  0.21928634499E+03  0.00000000000E+00 0.  1.
<mgrwt>
<rscale>  0 0.50219489E+03</rscale>
<asrwt>0</asrwt>
<pdfrwt beam="1">  1        1 0.76488595E-01 0.50219489E+03</pdfrwt>
<pdfrwt beam="2">  1       -1 0.19510176E-01 0.50219489E+03</pdfrwt>
<totfact> 0.95642182E+02</totfact>
</mgrwt>
</event>
<event>
 6    1  0.1773638E-005  0.1607921E+04  0.7818608E-02  0.8815696E-01
         -1   -1    0    0    0  501 -0.00000000000E+00  0.00000000000E+00  0.10852949072E+04  0.10852949072E+04  0.00000000000E+00 0.  1.
          1   -1    0    0  501    0  0.00000000000E+00 -0.00000000000E+00 -0.59555488326E+03  0.59555488326E+03  0.00000000000E+00 0. -1.
         23    2    1    2    0    0  0.39407736891E+03 -0.43831144146E+02 -0.48237849657E+03  0.63097715066E+03  0.90691834353E+02 0.  0.
         13    1    3    3    0    0  0.20098458405E+03  0.20414656523E+02 -0.21581603498E+03  0.29561482064E+03  0.00000000000E+00 0.  1.
        -13    1    3    3    0    0  0.19309278486E+03 -0.64245800669E+02 -0.26656246159E+03  0.33536233002E+03  0.00000000000E+00 0. -1.
         22    1    1    2    0    0 -0.39407736891E+03  0.43831144146E+02  0.97211852054E+03  0.10498726398E+04  0.00000000000E+00 0.  1.
<mgrwt>
<rscale>  0 0.16079212E+04</rscale>
<asrwt>0</asrwt>
<pdfrwt beam="1">  1        1 0.91623828E-01 0.16079212E+04</pdfrwt>
<pdfrwt beam="2">  1       -1 0.16696845E+00 0.16079212E+04</pdfrwt>
<totfact> 0.86004353E+00</totfact>
</mgrwt>
</event>
<event>
 6    1  0.1773638E-005  0.5990425E+03  0.7818608E-02  0.9907395E-01
         -1   -1    0    0    0  501 -0.00000000000E+00  0.00000000000E+00  0.90056191639E+02  0.90056191639E+02  0.00000000000E+00 0.  1.
          1   -1    0    0  501    0  0.00000000000E+00 -0.00000000000E+00 -0.99618888279E+03  0.99618888279E+03  0.00000000000E+00 0. -1.
         23    2    1    2    0    0 -0.13442756756E+03  0.19190622937E+03 -0.13938580558E+03  0.28449725976E+03  0.81311230607E+02 0.  0.
         13    1    3    3    0    0 -0.25323701199E+00  0.58966443065E+02 -0.28785398917E+02  0.65617868965E+02  0.00000000000E+00 0. -1.
        -13    1    3    3    0    0 -0.13417433055E+03  0.13293978630E+03 -0.11060040666E+03  0.21887939079E+03  0.00000000000E+00 0.  1.
         22    1    1    2    0    0  0.13442756756E+03 -0.19190622937E+03 -0.76674688557E+03  0.80174781467E+03  0.00000000000E+00 0. -1.
<mgrwt>
<rscale>  0 0.59904249E+03</rscale>
<asrwt>0</asrwt>
<pdfrwt beam="1">  1        1 0.15325983E+00 0.59904249E+03</pdfrwt>
<pdfrwt beam="2">  1       -1 0.13854799E-01 0.59904249E+03</pdfrwt>
<totfact> 0.57850367E+02</totfact>
</mgrwt>
</event>
<event>
 6    1  0.1773638E-005  0.4168745E+04  0.7818608E-02  0.7971344E-01
          2   -1    0    0  501    0  0.00000000000E+00  0.00000000000E+00  0.98746674557E+03  0.98746674557E+03  0.00000000000E+00 0. -1.
         -2   -1    0    0    0  501 -0.00000000000E+00 -0.00000000000E+00 -0.43997511895E+04  0.43997511895E+04  0.00000000000E+00 0.  1.
         23    2    1    2    0    0  0.33152404585E+03  0.17060622043E+04 -0.31913975905E+04  0.36352626160E+04  0.97771510993E+02 0.  0.
         11    1    3    3    0    0  0.11600456253E+02  0.34256479420E+02 -0.98379207579E+02  0.10481672315E+03  0.00000000000E+00 0.  1.
        -11    1    3    3    0    0  0.31992358959E+03  0.16718057249E+04 -0.30930183830E+04  0.35304458928E+04  0.00000000000E+00 0. -1.
         22    1    1    2    0    0 -0.33152404585E+03 -0.17060622043E+04 -0.22088685340E+03  0.17519553191E+04  0.00000000000E+00 0. -1.
<mgrwt>
<rscale>  0 0.41687446E+04</rscale>
<asrwt>0</asrwt>
<pdfrwt beam="1">  1        2 0.15191796E+00 0.41687446E+04</pdfrwt>
<pdfrwt beam="2">  1       -2 0.67688479E+00 0.41687446E+04</pdfrwt>
<totfact> 0.54632492E-03</totfact>
</mgrwt>
</event>
<event>
 6    1  0.1773638E-005  0.2235279E+04  0.7818608E-02  0.8503886E-01
         -2   -1    0    0    0  501 -0.00000000000E+00  0.00000000000E+00  0.47954132216E+03  0.47954132216E+03  0.00000000000E+00 0.  1.
          2   -1    0    0  501    0  0.00000000000E+00 -0.00000000000E+00 -0.26048188978E+04  0.26048188978E+04  0.00000000000E+00 0. -1.
         23    2    1    2    0    0  0.58859830083E+03 -0.30196475624E+02  0.24328492596E+03  0.64357180002E+03  0.87391759892E+02 0.  0.
         11    1    3    3    0    0  0.54464220361E+03 -0.41787792184E+02  0.20272252092E+03  0.58264720888E+03  0.00000000000E+00 0. -1.
        -11    1    3    3    0    0  0.43956097227E+02  0.11591316560E+02  0.40562405044E+02  0.60924591143E+02  0.00000000000E+00 0.  1.
         22    1    1    2    0    0 -0.58859830083E+03  0.30196475624E+02 -0.23685625016E+04  0.24407884199E+04  0.00000000000E+00 0. -1.
<mgrwt>
<rscale>  0 0.22352792E+04</rscale>
<asrwt>0</asrwt>
<pdfrwt beam="1">  1        2 0.40074137E+00 0.22352792E+04</pdfrwt>
<pdfrwt beam="2">  1       -2 0.73775589E-01 0.22352792E+04</pdfrwt>
<totfact> 0.45643750E+00</totfact>
</mgrwt>
</event>
<event>
 6    1  0.1773638E-005  0.3119670E+04  0.7818608E-02  0.8210360E-01
         -1   -1    0    0    0  501 -0.00000000000E+00  0.00000000000E+00  0.91643668310E+03  0.91643668310E+03  0.00000000000E+00 0.  1.
          1   -1    0    0  501    0  0.00000000000E+00 -0.00000000000E+00 -0.26549402188E+04  0.26549402188E+04  0.00000000000E+00 0. -1.
         23    2    1    2    0    0 -0.40917722062E+02  0.10753066776E+04  0.42037015535E+03  0.11591799106E+04  0.95017297763E+02 0.  0.
         11    1    3    3    0    0 -0.63067187344E+02  0.44016205274E+03  0.16594821698E+03  0.47461448936E+03  0.00000000000E+00 0. -1.
        -11    1    3    3    0    0  0.22149465282E+02  0.63514462482E+03  0.25442193838E+03  0.68456542126E+03  0.00000000000E+00 0.  1.
         22    1    1    2    0    0  0.40917722062E+02 -0.10753066776E+04 -0.21588736911E+04  0.24121969913E+04  0.00000000000E+00 0.  1.
<mgrwt>
<rscale>  0 0.31196696E+04</rscale>
<asrwt>0</asrwt>
<pdfrwt beam="1">  1        1 0.40845234E+00 0.31196696E+04</pdfrwt>
<pdfrwt beam="2">  1       -1 0.14099026E+00 0.31196696E+04</pdfrwt>
<totfact> 0.36580844E-01</totfact>
</mgrwt>
</event>
<event>
 6    1  0.1773638E-005  0.1705264E+04  0.7818608E-02  0.8758368E-01
          2   -1    0    0  501    0  0.00000000000E+00  0.00000000000E+00  0.15581858239E+04  0.15581858239E+04  0.00000000000E+00 0. -1.
         -2   -1    0    0    0  501 -0.00000000000E+00 -0.00000000000E+00 -0.46655606535E+03  0.46655606535E+03  0.00000000000E+00 0.  1.
         23    2    1    2    0    0 -0.30255682968E+03  0.41873799382E+03  0.13492873959E+04  0.14474468167E+04  0.87428072972E+02 0.  0.
         13    1    3    3    0    0 -0.76078459949E+02  0.90301958762E+02  0.21878382168E+03  0.24861362886E+03  0.00000000000E+00 0. -1.
        -13    1    3    3    0    0 -0.22647836973E+03  0.32843603506E+03  0.11305035742E+04  0.11988331879E+04  0.00000000000E+00 0.  1.
         22    1    1    2    0    0  0.30255682968E+03 -0.41873799382E+03 -0.25765763734E+03  0.57729507250E+03  0.00000000000E+00 0.  1.
<mgrwt>
<rscale>  0 0.17052637E+04</rscale>
<asrwt>0</asrwt>
<pdfrwt beam="1">  1        2 0.23972089E+00 0.17052637E+04</pdfrwt>
<pdfrwt beam="2">  1       -2 0.71777857E-01 0.17052637E+04</pdfrwt>
<totfact> 0.19697144E+01</totfact>
</mgrwt>
</event>
<event>
 6    1  0.1773638E-005  0.1638208E+04  0.7818608E-02  0.8797413E-01
         -2   -1    0    0    0  501 -0.00000000000E+00  0.00000000000E+00  0.70673168697E+03  0.70673168697E+03  0.00000000000E+00 0.  1.
          2   -1    0    0  501    0  0.00000000000E+00 -0.00000000000E+00 -0.94934369778E+03  0.94934369778E+03  0.00000000000E+00 0. -1.
         23    2    1    2    0    0  0.10698441360E+03 -0.45686539573E+03 -0.79746454822E+03  0.92941659767E+03  0.87714604161E+02 0.  0.
         11    1    3    3    0    0 -0.51757791012E+01 -0.14281297392E+03 -0.26696074075E+03  0.30280417981E+03  0.00000000000E+00 0.  1.
        -11    1    3    3    0    0  0.11216019271E+03 -0.31405242181E+03 -0.53050380747E+03  0.62661241786E+03  0.00000000000E+00 0. -1.
         22    1    1    2    0    0 -0.10698441360E+03  0.45686539573E+03  0.55485253741E+03  0.72665878708E+03  0.00000000000E+00 0.  1.
<mgrwt>
<rscale>  0 0.16382079E+04</rscale>
<asrwt>0</asrwt>
<pdfrwt beam="1">  1        2 0.14605288E+00 0.16382079E+04</pdfrwt>
<pdfrwt beam="2">  1       -2 0.10872795E+00 0.16382079E+04</pdfrwt>
<totfact> 0.17562359E+01</totfact>
</mgrwt>
</event>
<event>
 6    1  0.1773638E-005  0.2983625E+04  0.7818608E-02  0.8248422E-01
         -1   -1    0    0    0  501 -0.00000000000E+00  0.00000000000E+00  0.12299990280E+04  0.12299990280E+04  0.00000000000E+00 0.  1.
          1   -1    0    0  501    0  0.00000000000E+00 -0.00000000000E+00 -0.18093541937E+04  0.18093541937E+04  0.00000000000E+00 0. -1.
         23    2    1    2    0    0 -0.10855576311E+04 -0.10176323394E+04 -0.37753415813E+03  0.15377731647E+04  0.90572163691E+02 0.  0.
         11    1    3    3    0    0 -0.29793094696E+03 -0.23560869734E+03 -0.72356570025E+02  0.38666494623E+03  0.00000000000E+00 0.  1.
        -11    1    3    3    0    0 -0.78762668415E+03 -0.78202364201E+03 -0.30517758810E+03  0.11511082184E+04  0.00000000000E+00 0. -1.
         22    1    1    2    0    0  0.10855576311E+04  0.10176323394E+04 -0.20182100765E+03  0.15015800570E+04  0.00000000000E+00 0. -1.
<mgrwt>
<rscale>  0 0.29836246E+04</rscale>
<asrwt>0</asrwt>
<pdfrwt beam="1">  1        1 0.27836218E+00 0.29836246E+04</pdfrwt>
<pdfrwt beam="2">  1       -1 0.18923062E+00 0.29836246E+04</pdfrwt>
<totfact> 0.61220029E-01</totfact>
</mgrwt>
</event>
<event>
 6    1  0.1773638E-005  0.3418587E+04  0.7818608E-02  0.8133359E-01
          2   -1    0    0  501    0  0.00000000000E+00  0.00000000000E+00  0.21057539124E+04  0.21057539124E+04  0.00000000000E+00 0. -1.
         -2   -1    0    0    0  501 -0.00000000000E+00 -0.00000000000E+00 -0.13874765553E+04  0.13874765553E+04  0.00000000000E+00 0.  1.
         23    2    1    2    0    0 -0.15127949586E+04  0.76531145943E+02  0.11650120033E+04  0.19139972844E+04  0.10829143128E+03 0.  0.
         11    1    3    3    0    0 -0.90107065623E+03 -0.71948811931E+01  0.70025984071E+03  0.11412028471E+04  0.00000000000E+00 0. -1.
        -11    1    3    3    0    0 -0.61172430235E+03  0.83726027136E+02  0.46475216257E+03  0.77279443729E+03  0.00000000000E+00 0.  1.
         22    1    1    2    0    0  0.15127949586E+04 -0.76531145943E+02 -0.44673464620E+03  0.15792331833E+04  0.00000000000E+00 0.  1.
<mgrwt>
<rscale>  0 0.34185870E+04</rscale>
<asrwt>0</asrwt>
<pdfrwt beam="1">  1        2 0.32396214E+00 0.34185870E+04</pdfrwt>
<pdfrwt beam="2">  1       -2 0.21345793E+00 0.34185870E+04</pdfrwt>
<totfact> 0.52491605E-01</totfact>
</mgrwt>
</event>
<event>
 6    1  0.1773638E-005  0.1394972E+04  0.7818608E-02  0.8957466E-01
          2   -1    0    0  501    0  0.00000000000E+00  0.00000000000E+00  0.61838325137E+03  0.61838325137E+03  0.00000000000E+00 0. -1.
         -2   -1    0    0    0  501 -0.00000000000E+00 -0.00000000000E+00 -0.78670799732E+03  0.78670799732E+03  0.00000000000E+00 0.  1.
         23    2    1    2    0    0 -0.58254903438E+03  0.15669869585E+03 -0.43146235481E+03  0.74694289160E+03  0.88577993648E+02 0.  0.
         13    1    3    3    0    0 -0.28375435071E+03  0.11808423566E+03 -0.24030396427E+03  0.39013640371E+03  0.00000000000E+00 0.  1.
        -13    1    3    3    0    0 -0.29879468367E+03  0.38614460190E+02 -0.19115839053E+03  0.35680648789E+03  0.00000000000E+00 0. -1.
         22    1    1    2    0    0  0.58254903438E+03 -0.15669869585E+03  0.26313760885E+03  0.65814835708E+03  0.00000000000E+00 0. -1.
<mgrwt>
<rscale>  0 0.13949725E+04</rscale>
<asrwt>0</asrwt>
<pdfrwt beam="1">  1        2 0.95135885E-01 0.13949725E+04</pdfrwt>
<pdfrwt beam="2">  1       -2 0.12103200E+00 0.13949725E+04</pdfrwt>
<totfact> 0.24190527E+01</totfact>
</mgrwt>
</event>
<event>
 6    1  0.1773638E-005  0.3013279E+04  0.7818608E-02  0.8239949E-01
          1   -1    0    0  501    0  0.00000000000E+00  0.00000000000E+00  0.36737487453E+04  0.36737487453E+04  0.00000000000E+00 0. -1.
         -1   -1    0    0    0  501 -0.00000000000E+00 -0.00000000000E+00 -0.61788711415E+03  0.61788711415E+03  0.00000000000E+00 0.  1.
         23    2    1    2    0    0 -0.91885650871E+03 -0.70652209803E+03  0.28975588601E+04  0.31217937650E+04  0.79235123610E+02 0.  0.
         11    1    3    3    0    0 -0.22692131313E+03 -0.17697970420E+03  0.63088154202E+03  0.69341662665E+03  0.00000000000E+00 0.  1.
        -11    1    3    3    0    0 -0.69193519559E+03 -0.52954239383E+03  0.22666773180E+04  0.24283771383E+04  0.00000000000E+00 0. -1.
         22    1    1    2    0    0  0.91885650871E+03  0.70652209803E+03  0.15830277106E+03  0.11698420944E+04  0.00000000000E+00 0.  1.
<mgrwt>
<rscale>  0 0.30132786E+04</rscale>
<asrwt>0</asrwt>
<pdfrwt beam="1">  1        1 0.56519210E+00 0.30132786E+04</pdfrwt>
<pdfrwt beam="2">  1       -1 0.95059558E-01 0.30132786E+04</pdfrwt>
<totfact> 0.16463283E-01</totfact>
</mgrwt>
</event>
<event>
 6    1  0.1773638E-005  0.1249343E+04  0.7818608E-02  0.9070730E-01
          1   -1    0    0  501    0  0.00000000000E+00  0.00000000000E+00  0.19678751845E+04  0.19678751845E+04  0.00000000000E+00 0. -1.
         -1   -1    0    0    0  501 -0.00000000000E+00 -0.00000000000E+00 -0.19829231936E+03  0.19829231936E+03  0.00000000000E+00 0.  1.
         23    2    1    2    0    0 -0.37719577087E+01  0.25738667392E+03  0.18699165539E+04  0.18898905112E+04  0.94000523171E+02 0.  0.
         13    1    3    3    0    0 -0.33189259243E+02  0.18194283468E+03  0.10679229487E+04  0.10838192406E+04  0.00000000000E+00 0. -1.
        -13    1    3    3    0    0  0.29417301534E+02  0.75443839241E+02  0.80199360519E+03  0.80607127060E+03  0.00000000000E+00 0.  1.
         22    1    1    2    0    0  0.37719577087E+01 -0.25738667392E+03 -0.10033368873E+03  0.27627699266E+03  0.00000000000E+00 0.  1.
<mgrwt>
<rscale>  0 0.12493431E+04</rscale>
<asrwt>0</asrwt>
<pdfrwt beam="1">  1        1 0.30275002E+00 0.12493431E+04</pdfrwt>
<pdfrwt beam="2">  1       -1 0.30506512E-01 0.12493431E+04</pdfrwt>
<totfact> 0.30658632E+01</totfact>
</mgrwt>
</event>
<event>
 6    1  0.1773638E-005  0.3449823E+04  0.7818608E-02  0.8125785E-01
          3   -1    0    0  501    0  0.00000000000E+00  0.00000000000E+00  0.11270415119E+04  0.11270415119E+04  0.00000000000E+00 0. -1.
         -3   -1    0    0    0  501 -0.00000000000E+00 -0.00000000000E+00 -0.26399383897E+04  0.26399383897E+04  0.00000000000E+00 0.  1.
         23    2    1    2    0    0  0.11815381301E+04  0.53209382181E+03 -0.19980978575E+04  0.23832977926E+04  0.92504767627E+02 0.  0.
         11    1    3    3    0    0  0.69388792532E+03  0.26339353426E+03 -0.11240433731E+04  0.13469707166E+04  0.00000000000E+00 0.  1.
        -11    1    3    3    0    0  0.48765020474E+03  0.26870028755E+03 -0.87405448448E+03  0.10363270761E+04  0.00000000000E+00 0. -1.
         22    1    1    2    0    0 -0.11815381301E+04 -0.53209382181E+03  0.48520097972E+03  0.13836821090E+04  0.00000000000E+00 0.  1.
<mgrwt>
<rscale>  0 0.34498233E+04</rscale>
<asrwt>0</asrwt>
<pdfrwt beam="1">  1        3 0.17339100E+00 0.34498233E+04</pdfrwt>
<pdfrwt beam="2">  1       -3 0.40614437E+00 0.34498233E+04</pdfrwt>
<totfact> 0.45936743E-03</totfact>
</mgrwt>
</event>
<event>
 6    1  0.1773638E-005  0.6594959E+03  0.7818608E-02  0.9789122E-01
         -4   -1    0    0    0  501 -0.00000000000E+00  0.00000000000E+00  0.14758424730E+04  0.14758424730E+04  0.00000000000E+00 0.  1.
          4   -1    0    0  501    0  0.00000000000E+00 -0.00000000000E+00 -0.73675688815E+02  0.73675688815E+02  0.00000000000E+00 0. -1.
         23    2    1    2    0    0  0.22211197353E+03 -0.80573971164E+02  0.12335369302E+04  0.12592391215E+04  0.90795998224E+02 0.  0.
         13    1    3    3    0    0  0.19174729872E+03 -0.40774599515E+02  0.10829330215E+04  0.11005332905E+04  0.00000000000E+00 0.  1.
        -13    1    3    3    0    0  0.30364674811E+02 -0.39799371649E+02  0.15060390871E+03  0.15870583096E+03  0.00000000000E+00 0. -1.
         22    1    1    2    0    0 -0.22211197353E+03  0.80573971164E+02  0.16862985405E+03  0.29027904039E+03  0.00000000000E+00 0. -1.
<mgrwt>
<rscale>  0 0.65949590E+03</rscale>
<asrwt>0</asrwt>
<pdfrwt beam="1">  1        4 0.11334722E-01 0.65949590E+03</pdfrwt>
<pdfrwt beam="2">  1       -4 0.22705267E+00 0.65949590E+03</pdfrwt>
<totfact> 0.11349565E+01</totfact>
</mgrwt>
</event>
<event>
 6    1  0.1773638E-005  0.4928764E+03  0.7818608E-02  0.1015655E+00
         -1   -1    0    0    0  501 -0.00000000000E+00  0.00000000000E+00  0.68990496053E+02  0.68990496053E+02  0.00000000000E+00 0.  1.
          1   -1    0    0  501    0  0.00000000000E+00 -0.00000000000E+00 -0.88029203792E+03  0.88029203792E+03  0.00000000000E+00 0. -1.
         23    2    1    2    0    0  0.18761913730E+03 -0.11380055699E+03 -0.24159088805E+03  0.33877312657E+03  0.90827125052E+02 0.  0.
         13    1    3    3    0    0  0.91175900601E+02 -0.73090022660E+01 -0.71324710549E+02  0.11599000258E+03  0.00000000000E+00 0. -1.
        -13    1    3    3    0    0  0.96443236700E+02 -0.10649155472E+03 -0.17026617750E+03  0.22278312399E+03  0.00000000000E+00 0.  1.
         22    1    1    2    0    0 -0.18761913730E+03  0.11380055699E+03 -0.56971065382E+03  0.61050940740E+03  0.00000000000E+00 0. -1.
<mgrwt>
<rscale>  0 0.49287639E+03</rscale>
<asrwt>0</asrwt>
<pdfrwt beam="1">  1        1 0.13542954E+00 0.49287639E+03</pdfrwt>
<pdfrwt beam="2">  1       -1 0.10613923E-01 0.49287639E+03</pdfrwt>
<totfact> 0.10961836E+03</totfact>
</mgrwt>
</event>
<event>
 6    1  0.1773638E-005  0.4189060E+04  0.7818608E-02  0.7967456E-01
         -1   -1    0    0    0  501 -0.00000000000E+00  0.00000000000E+00  0.11585616324E+04  0.11585616324E+04  0.00000000000E+00 0.  1.
          1   -1    0    0  501    0  0.00000000000E+00 -0.00000000000E+00 -0.37866403946E+04  0.37866403946E+04  0.00000000000E+00 0. -1.
         23    2    1    2    0    0  0.25132674837E+03  0.17780497472E+04 -0.25849072233E+04  0.31489587753E+04  0.97826262228E+02 0.  0.
         11    1    3    3    0    0  0.12496152821E+03  0.75226697671E+03 -0.10197009281E+04  0.12733070999E+04  0.00000000000E+00 0. -1.
        -11    1    3    3    0    0  0.12636522015E+03  0.10257827705E+04 -0.15652062952E+04  0.18756516754E+04  0.00000000000E+00 0.  1.
         22    1    1    2    0    0 -0.25132674837E+03 -0.17780497472E+04 -0.43171538959E+02  0.17962432518E+04  0.00000000000E+00 0.  1.
<mgrwt>
<rscale>  0 0.41890602E+04</rscale>
<asrwt>0</asrwt>
<pdfrwt beam="1">  1        1 0.58256006E+00 0.41890602E+04</pdfrwt>
<pdfrwt beam="2">  1       -1 0.17824025E+00 0.41890602E+04</pdfrwt>
<totfact> 0.24090912E-02</totfact>
</mgrwt>
</event>
<event>
 6    1  0.1773638E-005  0.5780583E+03  0.7818608E-02  0.9952004E-01
          1   -1    0    0  501    0  0.00000000000E+00  0.00000000000E+00  0.10216531031E+03  0.10216531031E+03  0.00000000000E+00 0. -1.
         -1   -1    0    0    0  501 -0.00000000000E+00 -0.00000000000E+00 -0.81767322664E+03  0.81767322664E+03  0.00000000000E+00 0.  1.
         23    2    1    2    0    0  0.17969521302E+03 -0.21709666856E+03 -0.36616822004E+03  0.47099607407E+03  0.91306096975E+02 0.  0.
         11    1    3    3    0    0  0.14067731616E+03 -0.10010914232E+03 -0.22320147703E+03  0.28218938146E+03  0.00000000000E+00 0.  1.
        -11    1    3    3    0    0  0.39017896859E+02 -0.11698752624E+03 -0.14296674301E+03  0.18880669262E+03  0.00000000000E+00 0. -1.
         22    1    1    2    0    0 -0.17969521302E+03  0.21709666856E+03 -0.34933969629E+03  0.44884246288E+03  0.00000000000E+00 0.  1.
<mgrwt>
<rscale>  0 0.57805826E+03</rscale>
<asrwt>0</asrwt>
<pdfrwt beam="1">  1        1 0.15717740E-01 0.57805826E+03</pdfrwt>
<pdfrwt beam="2">  1       -1 0.12579588E+00 0.57805826E+03</pdfrwt>
<totfact> 0.20364541E+02</totfact>
</mgrwt>
</event>
<event>
 6    1  0.1773638E-005  0.3257064E+04  0.7818608E-02  0.8173907E-01
         -1   -1    0    0    0  501 -0.00000000000E+00  0.00000000000E+00  0.10675679327E+04  0.10675679327E+04  0.00000000000E+00 0.  1.
          1   -1    0    0  501    0  0.00000000000E+00 -0.00000000000E+00 -0.24842608991E+04  0.24842608991E+04  0.00000000000E+00 0. -1.
         23    2    1    2    0    0 -0.56637509026E+02 -0.16119183662E+04 -0.94420319242E+03  0.18711339716E+04  0.90188938818E+02 0.  0.
         11    1    3    3    0    0 -0.54835770196E+02 -0.14264220765E+04 -0.86745981627E+03  0.16703812244E+04  0.00000000000E+00 0. -1.
        -11    1    3    3    0    0 -0.18017388301E+01 -0.18549628966E+03 -0.76743376151E+02  0.20075274724E+03  0.00000000000E+00 0.  1.
         22    1    1    2    0    0  0.56637509026E+02  0.16119183662E+04 -0.47248977395E+03  0.16806948602E+04  0.00000000000E+00 0.  1.
<mgrwt>
<rscale>  0 0.32570645E+04</rscale>
<asrwt>0</asrwt>
<pdfrwt beam="1">  1        1 0.38219398E+00 0.32570645E+04</pdfrwt>
<pdfrwt beam="2">  1       -1 0.16424122E+00 0.32570645E+04</pdfrwt>
<totfact> 0.31396620E-01</totfact>
</mgrwt>
</event>
<event>
 6    1  0.1773638E-005  0.3039889E+04  0.7818608E-02  0.8232431E-01
         -1   -1    0    0    0  501 -0.00000000000E+00  0.00000000000E+00  0.11242820571E+04  0.11242820571E+04  0.00000000000E+00 0.  1.
          1   -1    0    0  501    0  0.00000000000E+00 -0.00000000000E+00 -0.20548502264E+04  0.20548502264E+04  0.00000000000E+00 0. -1.
         23    2    1    2    0    0 -0.18861216478E+03  0.30482012160E+03  0.10777372369E+04  0.11390880535E+04  0.86684407597E+02 0.  0.
         11    1    3    3    0    0 -0.28124359371E+02  0.22349621356E+02  0.52546437934E+02  0.63652284361E+02  0.00000000000E+00 0. -1.
        -11    1    3    3    0    0 -0.16048780541E+03  0.28247050025E+03  0.10251907990E+04  0.10754357691E+04  0.00000000000E+00 0.  1.
         22    1    1    2    0    0  0.18861216478E+03 -0.30482012160E+03 -0.20083054063E+04  0.20400442300E+04  0.00000000000E+00 0. -1.
<mgrwt>
<rscale>  0 0.30398890E+04</rscale>
<asrwt>0</asrwt>
<pdfrwt beam="1">  1        1 0.31613080E+00 0.30398890E+04</pdfrwt>
<pdfrwt beam="2">  1       -1 0.17296647E+00 0.30398890E+04</pdfrwt>
<totfact> 0.54291933E-01</totfact>
</mgrwt>
</event>
<event>
 6    1  0.3397966E-005  0.3192312E+04  0.7818608E-02  0.8190851E-01
          2   -1    0    0  501    0  0.00000000000E+00  0.00000000000E+00  0.23087006812E+04  0.23087006812E+04  0.00000000000E+00 0.  1.
         -2   -1    0    0    0  501 -0.00000000000E+00 -0.00000000000E+00 -0.11035269179E+04  0.11035269179E+04  0.00000000000E+00 0. -1.
         23    2    1    2    0    0  0.51642064543E+03 -0.44001835603E+03 -0.93960060766E+03  0.11627024183E+04  0.93387230994E+02 0.  0.
         13    1    3    3    0    0  0.38937436043E+03 -0.31122975474E+03 -0.75090439970E+03  0.90129560650E+03  0.00000000000E+00 0.  1.
        -13    1    3    3    0    0  0.12704628500E+03 -0.12878860130E+03 -0.18869620796E+03  0.26140681180E+03  0.00000000000E+00 0. -1.
         22    1    1    2    0    0 -0.51642064543E+03  0.44001835603E+03  0.21447743710E+04  0.22495251808E+04  0.00000000000E+00 0.  1.
<mgrwt>
<rscale>  0 0.31923116E+04</rscale>
<asrwt>0</asrwt>
<pdfrwt beam="1">  1        2 0.35518472E+00 0.31923116E+04</pdfrwt>
<pdfrwt beam="2">  1       -2 0.16977337E+00 0.31923116E+04</pdfrwt>
<totfact> 0.80790636E-01</totfact>
</mgrwt>
</event>
<event>
 6    1  0.1773638E-005  0.1294493E+04  0.7818608E-02  0.9033944E-01
         -2   -1    0    0    0  501 -0.00000000000E+00  0.00000000000E+00  0.17795857018E+03  0.17795857018E+03  0.00000000000E+00 0.  1.
          2   -1    0    0  501    0  0.00000000000E+00 -0.00000000000E+00 -0.23540760600E+04  0.23540760600E+04  0.00000000000E+00 0. -1.
         23    2    1    2    0    0  0.55930760145E+03  0.29460326277E+03 -0.84978071521E+03  0.10627540868E+04  0.87766221304E+02 0.  0.
         13    1    3    3    0    0  0.28859263825E+03  0.13445201940E+03 -0.49576379635E+03  0.58918995082E+03  0.00000000000E+00 0.  1.
        -13    1    3    3    0    0  0.27071496320E+03  0.16015124337E+03 -0.35401691885E+03  0.47356413598E+03  0.00000000000E+00 0. -1.
         22    1    1    2    0    0 -0.55930760145E+03 -0.29460326277E+03 -0.13263367747E+04  0.14692805434E+04  0.00000000000E+00 0.  1.
<mgrwt>
<rscale>  0 0.12944930E+04</rscale>
<asrwt>0</asrwt>
<pdfrwt beam="1">  1        2 0.36216552E+00 0.12944930E+04</pdfrwt>
<pdfrwt beam="2">  1       -2 0.27378244E-01 0.12944930E+04</pdfrwt>
<totfact> 0.50488652E+01</totfact>
</mgrwt>
</event>
<event>
 6    1  0.1773638E-005  0.1333615E+04  0.7818608E-02  0.9003325E-01
         -2   -1    0    0    0  501 -0.00000000000E+00  0.00000000000E+00  0.41593593100E+03  0.41593593100E+03  0.00000000000E+00 0.  1.
          2   -1    0    0  501    0  0.00000000000E+00 -0.00000000000E+00 -0.10689927975E+04  0.10689927975E+04  0.00000000000E+00 0. -1.
         23    2    1    2    0    0  0.34220444967E+03 -0.29344182105E+03 -0.87020725114E+03  0.98456258533E+03  0.94291233805E+02 0.  0.
         11    1    3    3    0    0  0.22121173482E+03 -0.22988555922E+03 -0.54019292503E+03  0.62736783326E+03  0.00000000000E+00 0. -1.
        -11    1    3    3    0    0  0.12099271486E+03 -0.63556261836E+02 -0.33001432612E+03  0.35719475207E+03  0.00000000000E+00 0.  1.
         22    1    1    2    0    0 -0.34220444967E+03  0.29344182105E+03  0.21715038462E+03  0.50036614320E+03  0.00000000000E+00 0.  1.
<mgrwt>
<rscale>  0 0.13336154E+04</rscale>
<asrwt>0</asrwt>
<pdfrwt beam="1">  1        2 0.16446043E+00 0.13336154E+04</pdfrwt>
<pdfrwt beam="2">  1       -2 0.63990144E-01 0.13336154E+04</pdfrwt>
<totfact> 0.50292021E+01</totfact>
</mgrwt>
</event>
<event>
 6    1  0.1773638E-005  0.1227610E+04  0.7818608E-02  0.9089027E-01
          4   -1    0    0  501    0  0.00000000000E+00  0.00000000000E+00  0.51857986199E+04  0.51857986199E+04  0.00000000000E+00 0. -1.
         -4   -1    0    0    0  501 -0.00000000000E+00 -0.00000000000E+00 -0.72651632986E+02  0.72651632986E+02  0.00000000000E+00 0.  1.
         23    2    1    2    0    0 -0.60930951055E+03  0.37383443683E+02  0.25730450762E+04  0.26460235423E+04  0.90686385967E+02 0.  0.
         11    1    3    3    0    0 -0.51341733519E+03  0.18053030711E+02  0.20143110039E+04  0.20787910170E+04  0.00000000000E+00 0.  1.
        -11    1    3    3    0    0 -0.95892175356E+02  0.19330412972E+02  0.55873407232E+03  0.56723252527E+03  0.00000000000E+00 0. -1.
         22    1    1    2    0    0  0.60930951055E+03 -0.37383443683E+02  0.25401019107E+04  0.26124267106E+04  0.00000000000E+00 0.  1.
<mgrwt>
<rscale>  0 0.12276103E+04</rscale>
<asrwt>0</asrwt>
<pdfrwt beam="1">  1        4 0.79781488E+00 0.12276103E+04</pdfrwt>
<pdfrwt beam="2">  1       -4 0.11177178E-01 0.12276103E+04</pdfrwt>
<totfact> 0.15619732E-04</totfact>
</mgrwt>
</event>
<event>
 6    1  0.1773638E-005  0.1774017E+04  0.7818608E-02  0.8720240E-01
          1   -1    0    0  501    0  0.00000000000E+00  0.00000000000E+00  0.69476665225E+03  0.69476665225E+03  0.00000000000E+00 0. -1.
         -1   -1    0    0    0  501 -0.00000000000E+00 -0.00000000000E+00 -0.11324434481E+04  0.11324434481E+04  0.00000000000E+00 0.  1.
         23    2    1    2    0    0 -0.35966954698E+03 -0.67369481892E+03 -0.67962961142E+03  0.10261058268E+04  0.88146848920E+02 0.  0.
         13    1    3    3    0    0 -0.32312984311E+03 -0.55350916826E+03 -0.59585294826E+03  0.87511486720E+03  0.00000000000E+00 0. -1.
        -13    1    3    3    0    0 -0.36539703867E+02 -0.12018565066E+03 -0.83776663169E+02  0.15099095958E+03  0.00000000000E+00 0.  1.
         22    1    1    2    0    0  0.35966954698E+03  0.67369481892E+03  0.24195281562E+03  0.80110427352E+03  0.00000000000E+00 0.  1.
<mgrwt>
<rscale>  0 0.17740168E+04</rscale>
<asrwt>0</asrwt>
<pdfrwt beam="1">  1        1 0.10688718E+00 0.17740168E+04</pdfrwt>
<pdfrwt beam="2">  1       -1 0.17422207E+00 0.17740168E+04</pdfrwt>
<totfact> 0.59715786E+00</totfact>
</mgrwt>
</event>
<event>
 6    1  0.1773638E-005  0.3897529E+04  0.7818608E-02  0.8025543E-01
         -2   -1    0    0    0  501 -0.00000000000E+00  0.00000000000E+00  0.18983345948E+04  0.18983345948E+04  0.00000000000E+00 0.  1.
          2   -1    0    0  501    0  0.00000000000E+00 -0.00000000000E+00 -0.20005341711E+04  0.20005341711E+04  0.00000000000E+00 0. -1.
         23    2    1    2    0    0 -0.92871450742E+03 -0.12999617394E+04 -0.11655663282E+04  0.19797126989E+04  0.91139150013E+02 0.  0.
         11    1    3    3    0    0 -0.40479821757E+03 -0.50233155261E+03 -0.43987297712E+03  0.78082444999E+03  0.00000000000E+00 0. -1.
        -11    1    3    3    0    0 -0.52391628985E+03 -0.79763018675E+03 -0.72569335111E+03  0.11988882489E+04  0.00000000000E+00 0.  1.
         22    1    1    2    0    0  0.92871450742E+03  0.12999617394E+04  0.10633667520E+04  0.19191560670E+04  0.00000000000E+00 0.  1.
<mgrwt>
<rscale>  0 0.38975291E+04</rscale>
<asrwt>0</asrwt>
<pdfrwt beam="1">  1        2 0.30777449E+00 0.38975291E+04</pdfrwt>
<pdfrwt beam="2">  1       -2 0.29205147E+00 0.38975291E+04</pdfrwt>
<totfact> 0.18880025E-01</totfact>
</mgrwt>
</event>
<event>
 6    1  0.1773638E-005  0.2225960E+04  0.7818608E-02  0.8507700E-01
          1   -1    0    0  501    0  0.00000000000E+00  0.00000000000E+00  0.25915060237E+04  0.25915060237E+04  0.00000000000E+00 0. -1.
         -1   -1    0    0    0  501 -0.00000000000E+00 -0.00000000000E+00 -0.47799424699E+03  0.47799424699E+03  0.00000000000E+00 0.  1.
         23    2    1    2    0    0  0.30913899391E+03  0.93470944990E+03  0.34821442775E+03  0.10482324993E+04  0.91046206148E+02 0.  0.
         13    1    3    3    0    0  0.16622849993E+03  0.63501202890E+03  0.24277673477E+03  0.69986622578E+03  0.00000000000E+00 0. -1.
        -13    1    3    3    0    0  0.14291049398E+03  0.29969742100E+03  0.10543769297E+03  0.34836627354E+03  0.00000000000E+00 0.  1.
         22    1    1    2    0    0 -0.30913899391E+03 -0.93470944990E+03  0.17652973490E+04  0.20212677714E+04  0.00000000000E+00 0. -1.
<mgrwt>
<rscale>  0 0.22259604E+04</rscale>
<asrwt>0</asrwt>
<pdfrwt beam="1">  1        1 0.39869323E+00 0.22259604E+04</pdfrwt>
<pdfrwt beam="2">  1       -1 0.73537578E-01 0.22259604E+04</pdfrwt>
<totfact> 0.19825279E+00</totfact>
</mgrwt>
</event>
<event>
 6    1  0.1773638E-005  0.1364292E+04  0.7818608E-02  0.8980079E-01
         -2   -1    0    0    0  501 -0.00000000000E+00  0.00000000000E+00  0.24292709539E+03  0.24292709539E+03  0.00000000000E+00 0.  1.
          2   -1    0    0  501    0  0.00000000000E+00 -0.00000000000E+00 -0.19154860781E+04  0.19154860781E+04  0.00000000000E+00 0. -1.
         23    2    1    2    0    0  0.47845863209E+03 -0.23198677883E+03 -0.17238238639E+03  0.56678810824E+03  0.93768567947E+02 0.  0.
         13    1    3    3    0    0  0.41804252726E+03 -0.17887273140E+03 -0.11825341375E+03  0.46982856288E+03  0.00000000000E+00 0.  1.
        -13    1    3    3    0    0  0.60416104828E+02 -0.53114047429E+02 -0.54128972644E+02  0.96959545359E+02  0.00000000000E+00 0. -1.
         22    1    1    2    0    0 -0.47845863209E+03  0.23198677883E+03 -0.15001765963E+04  0.15916250653E+04  0.00000000000E+00 0. -1.
<mgrwt>
<rscale>  0 0.13642924E+04</rscale>
<asrwt>0</asrwt>
<pdfrwt beam="1">  1        2 0.29469015E+00 0.13642924E+04</pdfrwt>
<pdfrwt beam="2">  1       -2 0.37373401E-01 0.13642924E+04</pdfrwt>
<totfact> 0.49062153E+01</totfact>
</mgrwt>
</event>
<event>
 6    1  0.1773638E-005  0.1130867E+04  0.7818608E-02  0.9175618E-01
          1   -1    0    0  501    0  0.00000000000E+00  0.00000000000E+00  0.10098577000E+04  0.10098577000E+04  0.00000000000E+00 0. -1.
         -1   -1    0    0    0  501 -0.00000000000E+00 -0.00000000000E+00 -0.31659417925E+03  0.31659417925E+03  0.00000000000E+00 0.  1.
         23    2    1    2    0    0  0.17172401289E+02  0.26572316960E+03 -0.23122012574E+03  0.36438446641E+03  0.91703863505E+02 0.  0.
         11    1    3    3    0    0 -0.94562230821E+01  0.84560514026E+02 -0.12940409195E+03  0.15487194614E+03  0.00000000000E+00 0.  1.
        -11    1    3    3    0    0  0.26628624371E+02  0.18116265558E+03 -0.10181603378E+03  0.20951252026E+03  0.00000000000E+00 0. -1.
         22    1    1    2    0    0 -0.17172401289E+02 -0.26572316960E+03  0.92448364646E+03  0.96206741282E+03  0.00000000000E+00 0. -1.
<mgrwt>
<rscale>  0 0.11308670E+04</rscale>
<asrwt>0</asrwt>
<pdfrwt beam="1">  1        1 0.15536272E+00 0.11308670E+04</pdfrwt>
<pdfrwt beam="2">  1       -1 0.48706797E-01 0.11308670E+04</pdfrwt>
<totfact> 0.62344154E+01</totfact>
</mgrwt>
</event>
<event>
 6    1  0.1773638E-005  0.2433113E+04  0.7818608E-02  0.8427209E-01
         -1   -1    0    0    0  501 -0.00000000000E+00  0.00000000000E+00  0.11049645745E+04  0.11049645745E+04  0.00000000000E+00 0.  1.
          1   -1    0    0  501    0  0.00000000000E+00 -0.00000000000E+00 -0.13394185360E+04  0.13394185360E+04  0.00000000000E+00 0. -1.
         23    2    1    2    0    0  0.93316296840E+03  0.48600197881E+03  0.49232433298E+03  0.11656346058E+04  0.96590560082E+02 0.  0.
         13    1    3    3    0    0  0.80534467611E+03  0.43228481326E+03  0.39223516589E+03  0.99463492422E+03  0.00000000000E+00 0. -1.
        -13    1    3    3    0    0  0.12781829229E+03  0.53717165556E+02  0.10008916708E+03  0.17099968154E+03  0.00000000000E+00 0.  1.
         22    1    1    2    0    0 -0.93316296840E+03 -0.48600197881E+03 -0.72677829453E+03  0.12787485048E+04  0.00000000000E+00 0. -1.
<mgrwt>
<rscale>  0 0.24331133E+04</rscale>
<asrwt>0</asrwt>
<pdfrwt beam="1">  1        1 0.20606439E+00 0.24331133E+04</pdfrwt>
<pdfrwt beam="2">  1       -1 0.16999455E+00 0.24331133E+04</pdfrwt>
<totfact> 0.18645453E+00</totfact>
</mgrwt>
</event>
<event>
 6    1  0.1773638E-005  0.5119234E+04  0.7818608E-02  0.7810373E-01
          2   -1    0    0  501    0  0.00000000000E+00  0.00000000000E+00  0.31267426478E+04  0.31267426478E+04  0.00000000000E+00 0.  1.
         -2   -1    0    0    0  501 -0.00000000000E+00 -0.00000000000E+00 -0.20953562616E+04  0.20953562616E+04  0.00000000000E+00 0. -1.
         23    2    1    2    0    0  0.12861241370E+04  0.15248051906E+04 -0.11189739513E+04  0.22889784301E+04  0.90406773163E+02 0.  0.
         13    1    3    3    0    0  0.78477703305E+03  0.89072745779E+03 -0.70711495671E+03  0.13817676931E+04  0.00000000000E+00 0.  1.
        -13    1    3    3    0    0  0.50134710400E+03  0.63407773284E+03 -0.41185899455E+03  0.90721073702E+03  0.00000000000E+00 0. -1.
         22    1    1    2    0    0 -0.12861241370E+04 -0.15248051906E+04  0.21503603374E+04  0.29331204793E+04  0.00000000000E+00 0.  1.
<mgrwt>
<rscale>  0 0.51192342E+04</rscale>
<asrwt>0</asrwt>
<pdfrwt beam="1">  1        2 0.48103733E+00 0.51192342E+04</pdfrwt>
<pdfrwt beam="2">  1       -2 0.32236250E+00 0.51192342E+04</pdfrwt>
<totfact> 0.24134798E-02</totfact>
</mgrwt>
</event>
<event>
 6    1  0.1773638E-005  0.9694659E+03  0.7818608E-02  0.9342683E-01
         -1   -1    0    0    0  501 -0.00000000000E+00  0.00000000000E+00  0.37603613117E+03  0.37603613117E+03  0.00000000000E+00 0.  1.
          1   -1    0    0  501    0  0.00000000000E+00 -0.00000000000E+00 -0.62484964778E+03  0.62484964778E+03  0.00000000000E+00 0. -1.
         23    2    1    2    0    0  0.49351762553E+02 -0.47128492284E+03 -0.20806078299E+03  0.52527474011E+03  0.89884304647E+02 0.  0.
         13    1    3    3    0    0 -0.15398622116E+01 -0.32851437526E+03 -0.16545476405E+03  0.36783059263E+03  0.00000000000E+00 0.  1.
        -13    1    3    3    0    0  0.50891624765E+02 -0.14277054758E+03 -0.42606018942E+02  0.15744414749E+03  0.00000000000E+00 0. -1.
         22    1    1    2    0    0 -0.49351762553E+02  0.47128492284E+03 -0.40752733628E+02  0.47561103883E+03  0.00000000000E+00 0.  1.
<mgrwt>
<rscale>  0 0.96946592E+03</rscale>
<asrwt>0</asrwt>
<pdfrwt beam="1">  1        1 0.96130714E-01 0.96946592E+03</pdfrwt>
<pdfrwt beam="2">  1       -1 0.57851713E-01 0.96946592E+03</pdfrwt>
<totfact> 0.98141271E+01</totfact>
</mgrwt>
</event>
<event>
 6    1  0.1773638E-005  0.3022047E+04  0.7818608E-02  0.8237463E-01
          2   -1    0    0  501    0  0.00000000000E+00  0.00000000000E+00  0.14500738780E+04  0.14500738780E+04  0.00000000000E+00 0. -1.
         -2   -1    0    0    0  501 -0.00000000000E+00 -0.00000000000E+00 -0.15745345391E+04  0.15745345391E+04  0.00000000000E+00 0.  1.
         23    2    1    2    0    0  0.13008080549E+04  0.40449127397E+02  0.70340370265E+03  0.14821762038E+04  0.91278708959E+02 0.  0.
         13    1    3    3    0    0  0.68360150425E+03  0.56568053146E+02  0.40291567770E+03  0.79551995863E+03  0.00000000000E+00 0.  1.
        -13    1    3    3    0    0  0.61720655064E+03 -0.16118925749E+02  0.30048802495E+03  0.68665624519E+03  0.00000000000E+00 0. -1.
         22    1    1    2    0    0 -0.13008080549E+04 -0.40449127397E+02 -0.82786436376E+03  0.15424322132E+04  0.00000000000E+00 0.  1.
<mgrwt>
<rscale>  0 0.30220466E+04</rscale>
<asrwt>0</asrwt>
<pdfrwt beam="1">  1        2 0.22308829E+00 0.30220466E+04</pdfrwt>
<pdfrwt beam="2">  1       -2 0.24223608E+00 0.30220466E+04</pdfrwt>
<totfact> 0.83070343E-01</totfact>
</mgrwt>
</event>
<event>
 6    1  0.1773638E-005  0.2206663E+04  0.7818608E-02  0.8515660E-01
         -2   -1    0    0    0  501 -0.00000000000E+00  0.00000000000E+00  0.48205364647E+03  0.48205364647E+03  0.00000000000E+00 0.  1.
          2   -1    0    0  501    0  0.00000000000E+00 -0.00000000000E+00 -0.25253211090E+04  0.25253211090E+04  0.00000000000E+00 0. -1.
         23    2    1    2    0    0 -0.72390293715E+03 -0.41853998319E+02 -0.21534651322E+04  0.22739371330E+04  0.87125137104E+02 0.  0.
         13    1    3    3    0    0 -0.60039859106E+03 -0.12970228834E+02 -0.16945710800E+04  0.17978369893E+04  0.00000000000E+00 0. -1.
        -13    1    3    3    0    0 -0.12350434610E+03 -0.28883769484E+02 -0.45889405227E+03  0.47610014372E+03  0.00000000000E+00 0.  1.
         22    1    1    2    0    0  0.72390293715E+03  0.41853998319E+02  0.11019766973E+03  0.73343762244E+03  0.00000000000E+00 0.  1.
<mgrwt>
<rscale>  0 0.22066629E+04</rscale>
<asrwt>0</asrwt>
<pdfrwt beam="1">  1        2 0.38851094E+00 0.22066629E+04</pdfrwt>
<pdfrwt beam="2">  1       -2 0.74162100E-01 0.22066629E+04</pdfrwt>
<totfact> 0.50333326E+00</totfact>
</mgrwt>
</event>
<event>
 6    1  0.1773638E-005  0.3549793E+04  0.7818608E-02  0.8102090E-01
         -2   -1    0    0    0  501 -0.00000000000E+00  0.00000000000E+00  0.11380637173E+04  0.11380637173E+04  0.00000000000E+00 0.  1.
          2   -1    0    0  501    0  0.00000000000E+00 -0.00000000000E+00 -0.27680861912E+04  0.27680861912E+04  0.00000000000E+00 0. -1.
         23    2    1    2    0    0  0.12360500615E+04 -0.77154861466E+03  0.29751915938E+03  0.14898461678E+04  0.89537333603E+02 0.  0.
         11    1    3    3    0    0  0.95822760850E+03 -0.63454195080E+03  0.25430041441E+03  0.11770778809E+04  0.00000000000E+00 0. -1.
        -11    1    3    3    0    0  0.27782245304E+03 -0.13700666386E+03  0.43218744964E+02  0.31276828687E+03  0.00000000000E+00 0.  1.
         22    1    1    2    0    0 -0.12360500615E+04  0.77154861466E+03 -0.19275416333E+04  0.24163037407E+04  0.00000000000E+00 0. -1.
<mgrwt>
<rscale>  0 0.35497935E+04</rscale>
<asrwt>0</asrwt>
<pdfrwt beam="1">  1        2 0.42585941E+00 0.35497935E+04</pdfrwt>
<pdfrwt beam="2">  1       -2 0.17508673E+00 0.35497935E+04</pdfrwt>
<totfact> 0.38801141E-01</totfact>
</mgrwt>
</event>
<event>
 6    1  0.1773638E-005  0.1526371E+04  0.7818608E-02  0.8867103E-01
         -2   -1    0    0    0  501 -0.00000000000E+00  0.00000000000E+00  0.34259350691E+03  0.34259350691E+03  0.00000000000E+00 0.  1.
          2   -1    0    0  501    0  0.00000000000E+00 -0.00000000000E+00 -0.17001264677E+04  0.17001264677E+04  0.00000000000E+00 0. -1.
         23    2    1    2    0    0  0.72757339448E+03 -0.45414730107E+02 -0.97328925746E+03  0.12186636867E+04  0.80147741854E+02 0.  0.
         13    1    3    3    0    0  0.23491226496E+03 -0.25885446445E+02 -0.37675970618E+03  0.44474903572E+03  0.00000000000E+00 0. -1.
        -13    1    3    3    0    0  0.49266112952E+03 -0.19529283662E+02 -0.59652955128E+03  0.77391465098E+03  0.00000000000E+00 0.  1.
         22    1    1    2    0    0 -0.72757339448E+03  0.45414730107E+02 -0.38424370331E+03  0.82405628788E+03  0.00000000000E+00 0. -1.
<mgrwt>
<rscale>  0 0.15263712E+04</rscale>
<asrwt>0</asrwt>
<pdfrwt beam="1">  1        2 0.26155792E+00 0.15263712E+04</pdfrwt>
<pdfrwt beam="2">  1       -2 0.52706692E-01 0.15263712E+04</pdfrwt>
<totfact> 0.32104787E+01</totfact>
</mgrwt>
</event>
<event>
 6    1  0.1773638E-005  0.2635830E+04  0.7818608E-02  0.8356132E-01
          2   -1    0    0  501    0  0.00000000000E+00  0.00000000000E+00  0.24206142825E+04  0.24206142825E+04  0.00000000000E+00 0.  1.
         -2   -1    0    0    0  501 -0.00000000000E+00 -0.00000000000E+00 -0.71754491836E+03  0.71754491836E+03  0.00000000000E+00 0. -1.
         23    2    1    2    0    0 -0.92794460226E+03  0.59873066914E+03  0.38008731588E+01  0.11115677266E+04  0.12652574915E+03 0.  0.
         13    1    3    3    0    0 -0.85913676960E+03  0.54494366642E+03 -0.30225533545E+02  0.10178374975E+04  0.00000000000E+00 0. -1.
        -13    1    3    3    0    0 -0.68807832655E+02  0.53787002713E+02  0.34026406704E+02  0.93730229109E+02  0.00000000000E+00 0.  1.
         22    1    1    2    0    0  0.92794460226E+03 -0.59873066914E+03  0.16992684910E+04  0.20265914742E+04  0.00000000000E+00 0.  1.
<mgrwt>
<rscale>  0 0.26358296E+04</rscale>
<asrwt>0</asrwt>
<pdfrwt beam="1">  1        2 0.37240219E+00 0.26358296E+04</pdfrwt>
<pdfrwt beam="2">  1       -2 0.11039153E+00 0.26358296E+04</pdfrwt>
<totfact> 0.22220106E+00</totfact>
</mgrwt>
</event>
<event>
 6    1  0.1773638E-005  0.1311930E+04  0.7818608E-02  0.9020158E-01
         -2   -1    0    0    0  501 -0.00000000000E+00  0.00000000000E+00  0.67079125615E+03  0.67079125615E+03  0.00000000000E+00 0.  1.
          2   -1    0    0  501    0  0.00000000000E+00 -0.00000000000E+00 -0.64146647934E+03  0.64146647934E+03  0.00000000000E+00 0. -1.
         23    2    1    2    0    0  0.32652074605E+03  0.12218683618E+02 -0.55049624446E+03  0.64670720357E+03  0.91755098802E+02 0.  0.
         13    1    3    3    0    0  0.19259537535E+03 -0.77731717919E+01 -0.40150862421E+03  0.44537913750E+03  0.00000000000E+00 0. -1.
        -13    1    3    3    0    0  0.13392537070E+03  0.19991855410E+02 -0.14898762025E+03  0.20132806607E+03  0.00000000000E+00 0.  1.
         22    1    1    2    0    0 -0.32652074605E+03 -0.12218683618E+02  0.57982102127E+03  0.66555053192E+03  0.00000000000E+00 0.  1.
<mgrwt>
<rscale>  0 0.13119300E+04</rscale>
<asrwt>0</asrwt>
<pdfrwt beam="1">  1        2 0.98687151E-01 0.13119300E+04</pdfrwt>
<pdfrwt beam="2">  1       -2 0.10319865E+00 0.13119300E+04</pdfrwt>
<totfact> 0.34303475E+01</totfact>
</mgrwt>
</event>
<event>
 6    1  0.1773638E-005  0.2248679E+04  0.7818608E-02  0.8498436E-01
          1   -1    0    0  501    0  0.00000000000E+00  0.00000000000E+00  0.11063268885E+04  0.11063268885E+04  0.00000000000E+00 0. -1.
         -1   -1    0    0    0  501 -0.00000000000E+00 -0.00000000000E+00 -0.11426452570E+04  0.11426452570E+04  0.00000000000E+00 0.  1.
         23    2    1    2    0    0  0.21639885698E+03 -0.34336350258E+03 -0.10649633186E+04  0.11431523620E+04  0.89014001897E+02 0.  0.
         13    1    3    3    0    0  0.94746097110E+02 -0.14969250066E+03 -0.34645381153E+03  0.38912068976E+03  0.00000000000E+00 0.  1.
        -13    1    3    3    0    0  0.12165275987E+03 -0.19367100191E+03 -0.71850950712E+03  0.75403167227E+03  0.00000000000E+00 0. -1.
         22    1    1    2    0    0 -0.21639885698E+03  0.34336350258E+03  0.10286449501E+04  0.11058197835E+04  0.00000000000E+00 0. -1.
<mgrwt>
<rscale>  0 0.22486789E+04</rscale>
<asrwt>0</asrwt>
<pdfrwt beam="1">  1        1 0.17020414E+00 0.22486789E+04</pdfrwt>
<pdfrwt beam="2">  1       -1 0.17579158E+00 0.22486789E+04</pdfrwt>
<totfact> 0.25414046E+00</totfact>
</mgrwt>
</event>
<event>
 6    1  0.1773638E-005  0.2432564E+04  0.7818608E-02  0.8427412E-01
         -1   -1    0    0    0  501 -0.00000000000E+00  0.00000000000E+00  0.12976735252E+04  0.12976735252E+04  0.00000000000E+00 0.  1.
          1   -1    0    0  501    0  0.00000000000E+00 -0.00000000000E+00 -0.11399950192E+04  0.11399950192E+04  0.00000000000E+00 0. -1.
         23    2    1    2    0    0 -0.11689653995E+04  0.13748478229E+03  0.37915411156E+03  0.12399901174E+04  0.91844870600E+02 0.  0.
         11    1    3    3    0    0 -0.35107618752E+03  0.50593039707E+02  0.15788512128E+03  0.38825488616E+03  0.00000000000E+00 0. -1.
        -11    1    3    3    0    0 -0.81788921200E+03  0.86891742584E+02  0.22126899029E+03  0.85173523122E+03  0.00000000000E+00 0.  1.
         22    1    1    2    0    0  0.11689653995E+04 -0.13748478229E+03 -0.22147560560E+03  0.11976784270E+04  0.00000000000E+00 0. -1.
<mgrwt>
<rscale>  0 0.24325635E+04</rscale>
<asrwt>0</asrwt>
<pdfrwt beam="1">  1        1 0.17538385E+00 0.24325635E+04</pdfrwt>
<pdfrwt beam="2">  1       -1 0.19964208E+00 0.24325635E+04</pdfrwt>
<totfact> 0.16005756E+00</totfact>
</mgrwt>
</event>
<event>
 6    1  0.1773638E-005  0.8624816E+03  0.7818608E-02  0.9473736E-01
          2   -1    0    0  501    0  0.00000000000E+00  0.00000000000E+00  0.80532713973E+03  0.80532713973E+03  0.00000000000E+00 0. -1.
         -2   -1    0    0    0  501 -0.00000000000E+00 -0.00000000000E+00 -0.23092305939E+03  0.23092305939E+03  0.00000000000E+00 0.  1.
         23    2    1    2    0    0  0.13392741819E+03 -0.18123981009E+03 -0.14830301680E+03  0.27922313859E+03  0.72023289467E+02 0.  0.
         13    1    3    3    0    0  0.61016860903E+02 -0.57711181105E+02 -0.19006906053E+02  0.86109814868E+02  0.00000000000E+00 0. -1.
        -13    1    3    3    0    0  0.72910557283E+02 -0.12352862899E+03 -0.12929611075E+03  0.19311332372E+03  0.00000000000E+00 0.  1.
         22    1    1    2    0    0 -0.13392741819E+03  0.18123981009E+03  0.72270709715E+03  0.75702706053E+03  0.00000000000E+00 0. -1.
<mgrwt>
<rscale>  0 0.86248155E+03</rscale>
<asrwt>0</asrwt>
<pdfrwt beam="1">  1        2 0.12389648E+00 0.86248155E+03</pdfrwt>
<pdfrwt beam="2">  1       -2 0.35526625E-01 0.86248155E+03</pdfrwt>
<totfact> 0.25497688E+02</totfact>
</mgrwt>
</event>
<event>
 6    1  0.1773638E-005  0.1099291E+04  0.7818608E-02  0.9205883E-01
          2   -1    0    0  501    0  0.00000000000E+00  0.00000000000E+00  0.63962848024E+03  0.63962848024E+03  0.00000000000E+00 0. -1.
         -2   -1    0    0    0  501 -0.00000000000E+00 -0.00000000000E+00 -0.47232175109E+03  0.47232175109E+03  0.00000000000E+00 0.  1.
         23    2    1    2    0    0  0.42278916382E+02 -0.54304892543E+03  0.12084631628E+03  0.56528011861E+03  0.90819260925E+02 0.  0.
         11    1    3    3    0    0 -0.28805643210E+01 -0.31745100120E+03  0.10613881348E+03  0.33473703641E+03  0.00000000000E+00 0.  1.
        -11    1    3    3    0    0  0.45159480703E+02 -0.22559792423E+03  0.14707502805E+02  0.23054308220E+03  0.00000000000E+00 0. -1.
         22    1    1    2    0    0 -0.42278916382E+02  0.54304892543E+03  0.46460412870E+02  0.54667011272E+03  0.00000000000E+00 0.  1.
<mgrwt>
<rscale>  0 0.10992915E+04</rscale>
<asrwt>0</asrwt>
<pdfrwt beam="1">  1        2 0.98404381E-01 0.10992915E+04</pdfrwt>
<pdfrwt beam="2">  1       -2 0.72664885E-01 0.10992915E+04</pdfrwt>
<totfact> 0.78038816E+01</totfact>
</mgrwt>
</event>
<event>
 6    1  0.1773638E-005  0.2243302E+04  0.7818608E-02  0.8500618E-01
         -2   -1    0    0    0  501 -0.00000000000E+00  0.00000000000E+00  0.39237267403E+03  0.39237267403E+03  0.00000000000E+00 0. -1.
          2   -1    0    0  501    0  0.00000000000E+00 -0.00000000000E+00 -0.32063932816E+04  0.32063932816E+04  0.00000000000E+00 0.  1.
         23    2    1    2    0    0 -0.67684984253E+03 -0.62151065221E+03 -0.38267088346E+03  0.99956171567E+03  0.91024272842E+02 0.  0.
         13    1    3    3    0    0 -0.34750807766E+03 -0.28095517358E+03 -0.22451535560E+03  0.50010480751E+03  0.00000000000E+00 0. -1.
        -13    1    3    3    0    0 -0.32934176487E+03 -0.34055547863E+03 -0.15815552786E+03  0.49945690816E+03  0.00000000000E+00 0.  1.
         22    1    1    2    0    0  0.67684984253E+03  0.62151065221E+03 -0.24313497241E+04  0.25992042400E+04  0.00000000000E+00 0.  1.
<mgrwt>
<rscale>  0 0.22433021E+04</rscale>
<asrwt>0</asrwt>
<pdfrwt beam="1">  1        2 0.49329124E+00 0.22433021E+04</pdfrwt>
<pdfrwt beam="2">  1       -2 0.60365031E-01 0.22433021E+04</pdfrwt>
<totfact> 0.29962808E+00</totfact>
</mgrwt>
</event>
<event>
 6    1  0.1773638E-005  0.1301628E+04  0.7818608E-02  0.9028275E-01
         -2   -1    0    0    0  501 -0.00000000000E+00  0.00000000000E+00  0.30140852835E+03  0.30140852835E+03  0.00000000000E+00 0. -1.
          2   -1    0    0  501    0  0.00000000000E+00 -0.00000000000E+00 -0.14052658825E+04  0.14052658825E+04  0.00000000000E+00 0.  1.
         23    2    1    2    0    0 -0.47093637438E+03 -0.44445274120E+03 -0.53336694728E+03  0.84366884181E+03  0.89316887096E+02 0.  0.
         13    1    3    3    0    0 -0.13699686857E+03 -0.15945202946E+03 -0.21992471021E+03  0.30423670038E+03  0.00000000000E+00 0. -1.
        -13    1    3    3    0    0 -0.33393950580E+03 -0.28500071174E+03 -0.31344223707E+03  0.53943214143E+03  0.00000000000E+00 0.  1.
         22    1    1    2    0    0  0.47093637438E+03  0.44445274120E+03 -0.57049040689E+03  0.86300556906E+03  0.00000000000E+00 0. -1.
<mgrwt>
<rscale>  0 0.13016284E+04</rscale>
<asrwt>0</asrwt>
<pdfrwt beam="1">  1        2 0.21619475E+00 0.13016284E+04</pdfrwt>
<pdfrwt beam="2">  1       -2 0.46370542E-01 0.13016284E+04</pdfrwt>
<totfact> 0.62078726E+01</totfact>
</mgrwt>
</event>
<event>
 6    1  0.1773638E-005  0.1833272E+04  0.7818608E-02  0.8688803E-01
         -1   -1    0    0    0  501 -0.00000000000E+00  0.00000000000E+00  0.66945980027E+03  0.66945980027E+03  0.00000000000E+00 0.  1.
          1   -1    0    0  501    0  0.00000000000E+00 -0.00000000000E+00 -0.12550735511E+04  0.12550735511E+04  0.00000000000E+00 0. -1.
         23    2    1    2    0    0  0.66260699691E+02 -0.80038866703E+03 -0.75244658571E+03  0.11042616321E+04  0.90583602932E+02 0.  0.
         11    1    3    3    0    0  0.58664950407E+02 -0.31803188088E+03 -0.26069004685E+03  0.41538554884E+03  0.00000000000E+00 0.  1.
        -11    1    3    3    0    0  0.75957492844E+01 -0.48235678615E+03 -0.49175653886E+03  0.68887608324E+03  0.00000000000E+00 0. -1.
         22    1    1    2    0    0 -0.66260699691E+02  0.80038866703E+03  0.16683283489E+03  0.82027171927E+03  0.00000000000E+00 0. -1.
<mgrwt>
<rscale>  0 0.18332717E+04</rscale>
<asrwt>0</asrwt>
<pdfrwt beam="1">  1        1 0.19308823E+00 0.18332717E+04</pdfrwt>
<pdfrwt beam="2">  1       -1 0.10299382E+00 0.18332717E+04</pdfrwt>
<totfact> 0.81645949E+00</totfact>
</mgrwt>
</event>
<event>
 6    1  0.1773638E-005  0.1537483E+04  0.7818608E-02  0.8859903E-01
          2   -1    0    0  501    0  0.00000000000E+00  0.00000000000E+00  0.11012316526E+04  0.11012316526E+04  0.00000000000E+00 0. -1.
         -2   -1    0    0    0  501 -0.00000000000E+00 -0.00000000000E+00 -0.53663876525E+03  0.53663876525E+03  0.00000000000E+00 0.  1.
         23    2    1    2    0    0 -0.20031890695E+03  0.33007411307E+03 -0.42149366827E+03  0.57888822737E+03  0.91531867664E+02 0.  0.
         13    1    3    3    0    0 -0.11347028048E+03  0.23225709030E+03 -0.33032219173E+03  0.41944202328E+03  0.00000000000E+00 0.  1.
        -13    1    3    3    0    0 -0.86848626474E+02  0.97817022772E+02 -0.91171476537E+02  0.15944620409E+03  0.00000000000E+00 0. -1.
         22    1    1    2    0    0  0.20031890695E+03 -0.33007411307E+03  0.98608655566E+03  0.10589821905E+04  0.00000000000E+00 0. -1.
<mgrwt>
<rscale>  0 0.15374831E+04</rscale>
<asrwt>0</asrwt>
<pdfrwt beam="1">  1        2 0.16942025E+00 0.15374831E+04</pdfrwt>
<pdfrwt beam="2">  1       -2 0.82559810E-01 0.15374831E+04</pdfrwt>
<totfact> 0.26980389E+01</totfact>
</mgrwt>
</event>
<event>
 6    1  0.1773638E-005  0.2014408E+04  0.7818608E-02  0.8599914E-01
         -2   -1    0    0    0  501 -0.00000000000E+00  0.00000000000E+00  0.43157439682E+03  0.43157439682E+03  0.00000000000E+00 0.  1.
          2   -1    0    0  501    0  0.00000000000E+00 -0.00000000000E+00 -0.23506036830E+04  0.23506036830E+04  0.00000000000E+00 0. -1.
         23    2    1    2    0    0  0.48912539752E+03 -0.74767397544E+03 -0.32528487696E+03  0.95508167570E+03  0.90059580455E+02 0.  0.
         13    1    3    3    0    0  0.33734766443E+03 -0.54463135209E+03 -0.19268409881E+03  0.66899470724E+03  0.00000000000E+00 0. -1.
        -13    1    3    3    0    0  0.15177773309E+03 -0.20304262334E+03 -0.13260077815E+03  0.28608696846E+03  0.00000000000E+00 0.  1.
         22    1    1    2    0    0 -0.48912539752E+03  0.74767397544E+03 -0.15937444092E+04  0.18270964042E+04  0.00000000000E+00 0. -1.
<mgrwt>
<rscale>  0 0.20144085E+04</rscale>
<asrwt>0</asrwt>
<pdfrwt beam="1">  1        2 0.36163134E+00 0.20144085E+04</pdfrwt>
<pdfrwt beam="2">  1       -2 0.66396061E-01 0.20144085E+04</pdfrwt>
<totfact> 0.82119807E+00</totfact>
</mgrwt>
</event>
<event>
 6    1  0.1773638E-005  0.6937569E+03  0.7818608E-02  0.9727969E-01
         -2   -1    0    0    0  501 -0.00000000000E+00  0.00000000000E+00  0.11897747042E+03  0.11897747042E+03  0.00000000000E+00 0.  1.
          2   -1    0    0  501    0  0.00000000000E+00 -0.00000000000E+00 -0.10113231121E+04  0.10113231121E+04  0.00000000000E+00 0. -1.
         23    2    1    2    0    0  0.29099316326E+03 -0.13612290760E+03 -0.26724552050E+03  0.42748010150E+03  0.90069983430E+02 0.  0.
         13    1    3    3    0    0  0.19573913791E+03 -0.43964544952E+02 -0.14950299419E+03  0.25019559667E+03  0.00000000000E+00 0. -1.
        -13    1    3    3    0    0  0.95254025359E+02 -0.92158362646E+02 -0.11774252631E+03  0.17728450484E+03  0.00000000000E+00 0.  1.
         22    1    1    2    0    0 -0.29099316326E+03  0.13612290760E+03 -0.62510012118E+03  0.70282048102E+03  0.00000000000E+00 0. -1.
<mgrwt>
<rscale>  0 0.69375692E+03</rscale>
<asrwt>0</asrwt>
<pdfrwt beam="1">  1        2 0.15558817E+00 0.69375692E+03</pdfrwt>
<pdfrwt beam="2">  1       -2 0.18304227E-01 0.69375692E+03</pdfrwt>
<totfact> 0.62145447E+02</totfact>
</mgrwt>
</event>
<event>
 6    1  0.1773638E-005  0.2077926E+04  0.7818608E-02  0.8571030E-01
         -1   -1    0    0    0  501 -0.00000000000E+00  0.00000000000E+00  0.37616325377E+03  0.37616325377E+03  0.00000000000E+00 0.  1.
          1   -1    0    0  501    0  0.00000000000E+00 -0.00000000000E+00 -0.28696172957E+04  0.28696172957E+04  0.00000000000E+00 0. -1.
         23    2    1    2    0    0 -0.10312544142E+04 -0.53473056690E+02 -0.13942988753E+04  0.17376402659E+04  0.94759196807E+02 0.  0.
         11    1    3    3    0    0 -0.46489951908E+03 -0.59378433618E+01 -0.70078811303E+03  0.84099393588E+03  0.00000000000E+00 0. -1.
        -11    1    3    3    0    0 -0.56635489513E+03 -0.47535213329E+02 -0.69351076226E+03  0.89664633001E+03  0.00000000000E+00 0.  1.
         22    1    1    2    0    0  0.10312544142E+04  0.53473056690E+02 -0.10991551666E+04  0.15081402836E+04  0.00000000000E+00 0.  1.
<mgrwt>
<rscale>  0 0.20779264E+04</rscale>
<asrwt>0</asrwt>
<pdfrwt beam="1">  1        1 0.44147957E+00 0.20779264E+04</pdfrwt>
<pdfrwt beam="2">  1       -1 0.57871271E-01 0.20779264E+04</pdfrwt>
<totfact> 0.20730901E+00</totfact>
</mgrwt>
</event>
<event>
 6    1  0.1773638E-005  0.2912067E+04  0.7818608E-02  0.8269296E-01
         -2   -1    0    0    0  501 -0.00000000000E+00  0.00000000000E+00  0.87730526889E+03  0.87730526889E+03  0.00000000000E+00 0.  1.
          2   -1    0    0  501    0  0.00000000000E+00 -0.00000000000E+00 -0.24165292410E+04  0.24165292410E+04  0.00000000000E+00 0. -1.
         23    2    1    2    0    0  0.99585167859E+03  0.70783579288E+02  0.42642736940E+03  0.10891766958E+04  0.87947100375E+02 0.  0.
         13    1    3    3    0    0  0.29108595089E+03  0.40352129416E+02  0.87921799844E+02  0.30674022892E+03  0.00000000000E+00 0.  1.
        -13    1    3    3    0    0  0.70476572770E+03  0.30431449872E+02  0.33850556956E+03  0.78243646688E+03  0.00000000000E+00 0. -1.
         22    1    1    2    0    0 -0.99585167859E+03 -0.70783579288E+02 -0.19656513415E+04  0.22046578141E+04  0.00000000000E+00 0. -1.
<mgrwt>
<rscale>  0 0.29120672E+04</rscale>
<asrwt>0</asrwt>
<pdfrwt beam="1">  1        2 0.37177372E+00 0.29120672E+04</pdfrwt>
<pdfrwt beam="2">  1       -2 0.13497004E+00 0.29120672E+04</pdfrwt>
<totfact> 0.13235931E+00</totfact>
</mgrwt>
</event>
<event>
 6    1  0.1773638E-005  0.9955239E+03  0.7818608E-02  0.9313468E-01
          1   -1    0    0  501    0  0.00000000000E+00  0.00000000000E+00  0.11072435238E+04  0.11072435238E+04  0.00000000000E+00 0. -1.
         -1   -1    0    0    0  501 -0.00000000000E+00 -0.00000000000E+00 -0.22376915173E+03  0.22376915173E+03  0.00000000000E+00 0.  1.
         23    2    1    2    0    0 -0.18331599943E+03 -0.44947812246E+03  0.32863637398E+03  0.59380134738E+03  0.94672253754E+02 0.  0.
         11    1    3    3    0    0 -0.12155742660E+03 -0.17401730258E+03  0.14071089705E+03  0.25467191857E+03  0.00000000000E+00 0. -1.
        -11    1    3    3    0    0 -0.61758572828E+02 -0.27546081988E+03  0.18792547693E+03  0.33912942881E+03  0.00000000000E+00 0.  1.
         22    1    1    2    0    0  0.18331599943E+03  0.44947812246E+03  0.55483799805E+03  0.73721132812E+03  0.00000000000E+00 0. -1.
<mgrwt>
<rscale>  0 0.99552387E+03</rscale>
<asrwt>0</asrwt>
<pdfrwt beam="1">  1        1 0.17034515E+00 0.99552387E+03</pdfrwt>
<pdfrwt beam="2">  1       -1 0.34426024E-01 0.99552387E+03</pdfrwt>
<totfact> 0.10025296E+02</totfact>
</mgrwt>
</event>
<event>
 6    1  0.1773638E-005  0.3218621E+04  0.7818608E-02  0.8183917E-01
          1   -1    0    0  501    0  0.00000000000E+00  0.00000000000E+00  0.15482838595E+04  0.15482838595E+04  0.00000000000E+00 0. -1.
         -1   -1    0    0    0  501 -0.00000000000E+00 -0.00000000000E+00 -0.16727420847E+04  0.16727420847E+04  0.00000000000E+00 0.  1.
         23    2    1    2    0    0 -0.88489549297E+03 -0.96717995073E+03 -0.99422732665E+03  0.16478204966E+04  0.91363676858E+02 0.  0.
         13    1    3    3    0    0 -0.76537201653E+02 -0.12552803472E+03 -0.10505797914E+03  0.18069977786E+03  0.00000000000E+00 0.  1.
        -13    1    3    3    0    0 -0.80835829131E+03 -0.84165191602E+03 -0.88916934752E+03  0.14671207188E+04  0.00000000000E+00 0. -1.
         22    1    1    2    0    0  0.88489549297E+03  0.96717995073E+03  0.86976910148E+03  0.15732054476E+04  0.00000000000E+00 0. -1.
<mgrwt>
<rscale>  0 0.32186206E+04</rscale>
<asrwt>0</asrwt>
<pdfrwt beam="1">  1        1 0.23819752E+00 0.32186206E+04</pdfrwt>
<pdfrwt beam="2">  1       -1 0.25734494E+00 0.32186206E+04</pdfrwt>
<totfact> 0.31590499E-01</totfact>
</mgrwt>
</event>
<event>
 6    1  0.1773638E-005  0.8503939E+03  0.7818608E-02  0.9489808E-01
         -1   -1    0    0    0  501 -0.00000000000E+00  0.00000000000E+00  0.57812688676E+03  0.57812688676E+03  0.00000000000E+00 0.  1.
          1   -1    0    0  501    0  0.00000000000E+00 -0.00000000000E+00 -0.31272102834E+03  0.31272102834E+03  0.00000000000E+00 0. -1.
         23    2    1    2    0    0  0.69480695081E+02 -0.36829462038E+03 -0.64563888834E+02  0.39149981157E+03  0.92925305101E+02 0.  0.
         13    1    3    3    0    0  0.26969562917E+02 -0.77766705061E+02 -0.52504500131E+02  0.97630631842E+02  0.00000000000E+00 0. -1.
        -13    1    3    3    0    0  0.42511132164E+02 -0.29052791532E+03 -0.12059388703E+02  0.29386917973E+03  0.00000000000E+00 0.  1.
         22    1    1    2    0    0 -0.69480695081E+02  0.36829462038E+03  0.32996974725E+03  0.49934810352E+03  0.00000000000E+00 0. -1.
<mgrwt>
<rscale>  0 0.85039387E+03</rscale>
<asrwt>0</asrwt>
<pdfrwt beam="1">  1        1 0.48110927E-01 0.85039387E+03</pdfrwt>
<pdfrwt beam="2">  1       -1 0.88942598E-01 0.85039387E+03</pdfrwt>
<totfact> 0.10405989E+02</totfact>
</mgrwt>
</event>
<event>
 6    1  0.1773638E-005  0.1125303E+04  0.7818608E-02  0.9180875E-01
         -1   -1    0    0    0  501 -0.00000000000E+00  0.00000000000E+00  0.78816827455E+03  0.78816827455E+03  0.00000000000E+00 0.  1.
          1   -1    0    0  501    0  0.00000000000E+00 -0.00000000000E+00 -0.40166145466E+03  0.40166145466E+03  0.00000000000E+00 0. -1.
         23    2    1    2    0    0  0.10190462146E+03  0.27841590639E+03 -0.30662582487E+03  0.43595120317E+03  0.90189169311E+02 0.  0.
         11    1    3    3    0    0  0.29469383060E+02  0.85819304929E+02 -0.40014076731E+02  0.99169168461E+02  0.00000000000E+00 0.  1.
        -11    1    3    3    0    0  0.72435238401E+02  0.19259660146E+03 -0.26661174814E+03  0.33678203471E+03  0.00000000000E+00 0. -1.
         22    1    1    2    0    0 -0.10190462146E+03 -0.27841590639E+03  0.69313264476E+03  0.75387852605E+03  0.00000000000E+00 0.  1.
<mgrwt>
<rscale>  0 0.11253032E+04</rscale>
<asrwt>0</asrwt>
<pdfrwt beam="1">  1        1 0.61794070E-01 0.11253032E+04</pdfrwt>
<pdfrwt beam="2">  1       -1 0.12125666E+00 0.11253032E+04</pdfrwt>
<totfact> 0.35830305E+01</totfact>
</mgrwt>
</event>
<event>
 6    1  0.1773638E-005  0.1534587E+04  0.7818608E-02  0.8861773E-01
          3   -1    0    0  501    0  0.00000000000E+00  0.00000000000E+00  0.63039305626E+03  0.63039305626E+03  0.00000000000E+00 0. -1.
         -3   -1    0    0    0  501 -0.00000000000E+00 -0.00000000000E+00 -0.93392395715E+03  0.93392395715E+03  0.00000000000E+00 0.  1.
         23    2    1    2    0    0  0.38663565120E+03 -0.45424759639E+02  0.51852099784E+03  0.65474576289E+03  0.90980510298E+02 0.  0.
         11    1    3    3    0    0  0.27826553557E+03  0.70952241099E+00  0.40326360183E+03  0.48995279800E+03  0.00000000000E+00 0. -1.
        -11    1    3    3    0    0  0.10837011563E+03 -0.46134282050E+02  0.11525739601E+03  0.16479296489E+03  0.00000000000E+00 0.  1.
         22    1    1    2    0    0 -0.38663565120E+03  0.45424759639E+02 -0.82205189872E+03  0.90957125052E+03  0.00000000000E+00 0.  1.
<mgrwt>
<rscale>  0 0.15345868E+04</rscale>
<asrwt>0</asrwt>
<pdfrwt beam="1">  1        3 0.96983547E-01 0.15345868E+04</pdfrwt>
<pdfrwt beam="2">  1       -3 0.14368061E+00 0.15345868E+04</pdfrwt>
<totfact> 0.85461283E-01</totfact>
</mgrwt>
</event>
<event>
 6    1  0.2334999E-005  0.3140276E+04  0.7818608E-02  0.8204771E-01
         -1   -1    0    0    0  501 -0.00000000000E+00  0.00000000000E+00  0.17119263839E+04  0.17119263839E+04  0.00000000000E+00 0.  1.
          1   -1    0    0  501    0  0.00000000000E+00 -0.00000000000E+00 -0.14400926909E+04  0.14400926909E+04  0.00000000000E+00 0. -1.
         23    2    1    2    0    0 -0.11085431971E+04  0.75761207297E+03 -0.67840118554E+03  0.15070903842E+04  0.90825021949E+02 0.  0.
         13    1    3    3    0    0 -0.58528898520E+03  0.40087094330E+03 -0.30757344032E+03  0.77321544900E+03  0.00000000000E+00 0.  1.
        -13    1    3    3    0    0 -0.52325421188E+03  0.35674112967E+03 -0.37082774522E+03  0.73387493517E+03  0.00000000000E+00 0. -1.
         22    1    1    2    0    0  0.11085431971E+04 -0.75761207297E+03  0.95023487848E+03  0.16449286906E+04  0.00000000000E+00 0.  1.
<mgrwt>
<rscale>  0 0.31402756E+04</rscale>
<asrwt>0</asrwt>
<pdfrwt beam="1">  1        1 0.22155272E+00 0.31402756E+04</pdfrwt>
<pdfrwt beam="2">  1       -1 0.26337329E+00 0.31402756E+04</pdfrwt>
<totfact> 0.34546258E-01</totfact>
</mgrwt>
</event>
<event>
 6    1  0.1773638E-005  0.1120054E+04  0.7818608E-02  0.9185864E-01
          1   -1    0    0  501    0  0.00000000000E+00  0.00000000000E+00  0.34892796471E+03  0.34892796471E+03  0.00000000000E+00 0. -1.
         -1   -1    0    0    0  501 -0.00000000000E+00 -0.00000000000E+00 -0.89883915382E+03  0.89883915382E+03  0.00000000000E+00 0.  1.
         23    2    1    2    0    0 -0.29879604158E+03  0.45239848443E+03 -0.41555482664E+03  0.68920190719E+03  0.91487658953E+02 0.  0.
         13    1    3    3    0    0 -0.21430652903E+03  0.26220023577E+03 -0.22148883786E+03  0.40464003425E+03  0.00000000000E+00 0. -1.
        -13    1    3    3    0    0 -0.84489512552E+02  0.19019824866E+03 -0.19406598878E+03  0.28456187293E+03  0.00000000000E+00 0.  1.
         22    1    1    2    0    0  0.29879604158E+03 -0.45239848443E+03 -0.13435636247E+03  0.55856521134E+03  0.00000000000E+00 0.  1.
<mgrwt>
<rscale>  0 0.11200538E+04</rscale>
<asrwt>0</asrwt>
<pdfrwt beam="1">  1        1 0.53681226E-01 0.11200538E+04</pdfrwt>
<pdfrwt beam="2">  1       -1 0.13828294E+00 0.11200538E+04</pdfrwt>
<totfact> 0.30984246E+01</totfact>
</mgrwt>
</event>
<event>
 6    1  0.1773638E-005  0.5713123E+03  0.7818608E-02  0.9966779E-01
          1   -1    0    0  501    0  0.00000000000E+00  0.00000000000E+00  0.22927567131E+04  0.22927567131E+04  0.00000000000E+00 0. -1.
         -1   -1    0    0    0  501 -0.00000000000E+00 -0.00000000000E+00 -0.35590099419E+02  0.35590099419E+02  0.00000000000E+00 0.  1.
         23    2    1    2    0    0 -0.14356584085E+03 -0.22186677918E+03  0.15189030030E+04  0.15442108694E+04  0.87663324405E+02 0.  0.
         13    1    3    3    0    0 -0.70236057919E+02 -0.59922941361E+02  0.35496245366E+03  0.36677269015E+03  0.00000000000E+00 0.  1.
        -13    1    3    3    0    0 -0.73329782930E+02 -0.16194383782E+03  0.11639405493E+04  0.11774381793E+04  0.00000000000E+00 0. -1.
         22    1    1    2    0    0  0.14356584085E+03  0.22186677918E+03  0.73826361075E+03  0.78413594314E+03  0.00000000000E+00 0.  1.
<mgrwt>
<rscale>  0 0.57131231E+03</rscale>
<asrwt>0</asrwt>
<pdfrwt beam="1">  1        1 0.35273169E+00 0.57131231E+03</pdfrwt>
<pdfrwt beam="2">  1       -1 0.54754017E-02 0.57131231E+03</pdfrwt>
<totfact> 0.32025238E+02</totfact>
</mgrwt>
</event>
<event>
 6    1  0.1773638E-005  0.4185175E+04  0.7818608E-02  0.7968198E-01
         -1   -1    0    0    0  501 -0.00000000000E+00  0.00000000000E+00  0.16069391724E+04  0.16069391724E+04  0.00000000000E+00 0.  1.
          1   -1    0    0  501    0  0.00000000000E+00 -0.00000000000E+00 -0.27250084040E+04  0.27250084040E+04  0.00000000000E+00 0. -1.
         23    2    1    2    0    0  0.15311975720E+04 -0.90943148838E+03  0.57616163337E+03  0.18738894281E+04  0.88700192949E+02 0.  0.
         13    1    3    3    0    0  0.11895915651E+04 -0.68119323225E+03  0.47494989680E+03  0.14507686638E+04  0.00000000000E+00 0.  1.
        -13    1    3    3    0    0  0.34160600695E+03 -0.22823825613E+03  0.10121173657E+03  0.42312076428E+03  0.00000000000E+00 0. -1.
         22    1    1    2    0    0 -0.15311975720E+04  0.90943148838E+03 -0.16942308650E+04  0.24580581483E+04  0.00000000000E+00 0.  1.
<mgrwt>
<rscale>  0 0.41851751E+04</rscale>
<asrwt>0</asrwt>
<pdfrwt beam="1">  1        1 0.41923206E+00 0.41851751E+04</pdfrwt>
<pdfrwt beam="2">  1       -1 0.24722141E+00 0.41851751E+04</pdfrwt>
<totfact> 0.52802363E-02</totfact>
</mgrwt>
</event>
<event>
 6    1  0.1773638E-005  0.4511103E+04  0.7818608E-02  0.7908696E-01
          2   -1    0    0  501    0  0.00000000000E+00  0.00000000000E+00  0.27280875003E+04  0.27280875003E+04  0.00000000000E+00 0. -1.
         -2   -1    0    0    0  501 -0.00000000000E+00 -0.00000000000E+00 -0.18648642459E+04  0.18648642459E+04  0.00000000000E+00 0.  1.
         23    2    1    2    0    0 -0.19956949046E+04 -0.85164193851E+03 -0.19183714800E+03  0.21802261928E+04  0.92155395059E+02 0.  0.
         11    1    3    3    0    0 -0.41288391259E+03 -0.17303036425E+03 -0.23399208313E+01  0.44768080979E+03  0.00000000000E+00 0. -1.
        -11    1    3    3    0    0 -0.15828109920E+04 -0.67861157425E+03 -0.18949722717E+03  0.17325453830E+04  0.00000000000E+00 0.  1.
         22    1    1    2    0    0  0.19956949046E+04  0.85164193851E+03  0.10550604024E+04  0.24127255534E+04  0.00000000000E+00 0. -1.
<mgrwt>
<rscale>  0 0.45111031E+04</rscale>
<asrwt>0</asrwt>
<pdfrwt beam="1">  1        2 0.41970577E+00 0.45111031E+04</pdfrwt>
<pdfrwt beam="2">  1       -2 0.28690219E+00 0.45111031E+04</pdfrwt>
<totfact> 0.73910238E-02</totfact>
</mgrwt>
</event>
<event>
 6    1  0.1773638E-005  0.7337747E+03  0.7818608E-02  0.9661155E-01
         -2   -1    0    0    0  501 -0.00000000000E+00  0.00000000000E+00  0.12834171266E+03  0.12834171266E+03  0.00000000000E+00 0.  1.
          2   -1    0    0  501    0  0.00000000000E+00 -0.00000000000E+00 -0.10488119927E+04  0.10488119927E+04  0.00000000000E+00 0. -1.
         23    2    1    2    0    0  0.34937239606E+03  0.59987264158E+02 -0.35198060625E+03  0.50719844403E+03  0.87751760460E+02 0.  0.
         13    1    3    3    0    0  0.24577164509E+02  0.25948239181E+02 -0.56125681297E+02  0.66539012864E+02  0.00000000000E+00 0. -1.
        -13    1    3    3    0    0  0.32479523155E+03  0.34039024977E+02 -0.29585492495E+03  0.44065943117E+03  0.00000000000E+00 0.  1.
         22    1    1    2    0    0 -0.34937239606E+03 -0.59987264158E+02 -0.56848967378E+03  0.66995526133E+03  0.00000000000E+00 0.  1.
<mgrwt>
<rscale>  0 0.73377470E+03</rscale>
<asrwt>0</asrwt>
<pdfrwt beam="1">  1        2 0.16135570E+00 0.73377470E+03</pdfrwt>
<pdfrwt beam="2">  1       -2 0.19744878E-01 0.73377470E+03</pdfrwt>
<totfact> 0.51523940E+02</totfact>
</mgrwt>
</event>
<event>
 6    1  0.1773638E-005  0.1407791E+04  0.7818608E-02  0.8948198E-01
         -1   -1    0    0    0  501 -0.00000000000E+00  0.00000000000E+00  0.36201555948E+03  0.36201555948E+03  0.00000000000E+00 0.  1.
          1   -1    0    0  501    0  0.00000000000E+00 -0.00000000000E+00 -0.13686404132E+04  0.13686404132E+04  0.00000000000E+00 0. -1.
         23    2    1    2    0    0 -0.42191495862E+03 -0.28900363726E+03 -0.10943207665E+04  0.12117861357E+04  0.96707621328E+02 0.  0.
         11    1    3    3    0    0 -0.24713434551E+03 -0.12217873986E+03 -0.64933549518E+03  0.70543576214E+03  0.00000000000E+00 0.  1.
        -11    1    3    3    0    0 -0.17478061310E+03 -0.16682489741E+03 -0.44498527132E+03  0.50635037356E+03  0.00000000000E+00 0. -1.
         22    1    1    2    0    0  0.42191495862E+03  0.28900363726E+03  0.87695912750E+02  0.51886983702E+03  0.00000000000E+00 0.  1.
<mgrwt>
<rscale>  0 0.14077914E+04</rscale>
<asrwt>0</asrwt>
<pdfrwt beam="1">  1        1 0.21056007E+00 0.14077914E+04</pdfrwt>
<pdfrwt beam="2">  1       -1 0.55694700E-01 0.14077914E+04</pdfrwt>
<totfact> 0.25682342E+01</totfact>
</mgrwt>
</event>
<event>
 6    1  0.1773638E-005  0.2626285E+04  0.7818608E-02  0.8359327E-01
          1   -1    0    0  501    0  0.00000000000E+00  0.00000000000E+00  0.22639967830E+04  0.22639967830E+04  0.00000000000E+00 0. -1.
         -1   -1    0    0    0  501 -0.00000000000E+00 -0.00000000000E+00 -0.76163665218E+03  0.76163665218E+03  0.00000000000E+00 0.  1.
         23    2    1    2    0    0 -0.36730596274E+03 -0.49694238967E+03 -0.58066309080E+03  0.85288145884E+03  0.91497261648E+02 0.  0.
         11    1    3    3    0    0 -0.20189621753E+03 -0.31700892928E+03 -0.30137661925E+03  0.48175160667E+03  0.00000000000E+00 0. -1.
        -11    1    3    3    0    0 -0.16540974521E+03 -0.17993346040E+03 -0.27928647155E+03  0.37112985217E+03  0.00000000000E+00 0.  1.
         22    1    1    2    0    0  0.36730596274E+03  0.49694238967E+03  0.20830232216E+04  0.21727519763E+04  0.00000000000E+00 0. -1.
<mgrwt>
<rscale>  0 0.26262848E+04</rscale>
<asrwt>0</asrwt>
<pdfrwt beam="1">  1        1 0.34830719E+00 0.26262848E+04</pdfrwt>
<pdfrwt beam="2">  1       -1 0.11717487E+00 0.26262848E+04</pdfrwt>
<totfact> 0.11353549E+00</totfact>
</mgrwt>
</event>
<event>
 6    1  0.1773638E-005  0.2201522E+04  0.7818608E-02  0.8517795E-01
          1   -1    0    0  501    0  0.00000000000E+00  0.00000000000E+00  0.14517975711E+04  0.14517975711E+04  0.00000000000E+00 0. -1.
         -1   -1    0    0    0  501 -0.00000000000E+00 -0.00000000000E+00 -0.83460333926E+03  0.83460333926E+03  0.00000000000E+00 0.  1.
         23    2    1    2    0    0 -0.20509664193E+03  0.19659167149E+03 -0.79335873083E+03  0.84752197927E+03  0.90346619981E+02 0.  0.
         13    1    3    3    0    0 -0.69401533238E+02  0.10822754011E+03 -0.44803110221E+03  0.46611333579E+03  0.00000000000E+00 0.  1.
        -13    1    3    3    0    0 -0.13569510869E+03  0.88364131378E+02 -0.34532762862E+03  0.38140864348E+03  0.00000000000E+00 0. -1.
         22    1    1    2    0    0  0.20509664193E+03 -0.19659167149E+03  0.14105529627E+04  0.14388789311E+04  0.00000000000E+00 0. -1.
<mgrwt>
<rscale>  0 0.22015223E+04</rscale>
<asrwt>0</asrwt>
<pdfrwt beam="1">  1        1 0.22335347E+00 0.22015223E+04</pdfrwt>
<pdfrwt beam="2">  1       -1 0.12840051E+00 0.22015223E+04</pdfrwt>
<totfact> 0.33709349E+00</totfact>
</mgrwt>
</event>
<event>
 6    1  0.1773638E-005  0.8640459E+03  0.7818608E-02  0.9471677E-01
          2   -1    0    0  501    0  0.00000000000E+00  0.00000000000E+00  0.74275828791E+03  0.74275828791E+03  0.00000000000E+00 0. -1.
         -2   -1    0    0    0  501 -0.00000000000E+00 -0.00000000000E+00 -0.25128472414E+03  0.25128472414E+03  0.00000000000E+00 0.  1.
         23    2    1    2    0    0 -0.39847555893E+03  0.55655523598E+02  0.83025393927E+02  0.42071045950E+03  0.90684984038E+02 0.  0.
         13    1    3    3    0    0 -0.28005185277E+03  0.86810477873E-01  0.39372399924E+02  0.28280600003E+03  0.00000000000E+00 0.  1.
        -13    1    3    3    0    0 -0.11842370615E+03  0.55568713120E+02  0.43652994003E+02  0.13790445947E+03  0.00000000000E+00 0. -1.
         22    1    1    2    0    0  0.39847555893E+03 -0.55655523598E+02  0.40844816984E+03  0.57333255255E+03  0.00000000000E+00 0.  1.
<mgrwt>
<rscale>  0 0.86404586E+03</rscale>
<asrwt>0</asrwt>
<pdfrwt beam="1">  1        2 0.11427051E+00 0.86404586E+03</pdfrwt>
<pdfrwt beam="2">  1       -2 0.38659189E-01 0.86404586E+03</pdfrwt>
<totfact> 0.24092498E+02</totfact>
</mgrwt>
</event>
<event>
 6    1  0.1773638E-005  0.2751042E+04  0.7818608E-02  0.8318631E-01
          1   -1    0    0  501    0  0.00000000000E+00  0.00000000000E+00  0.14345708661E+04  0.14345708661E+04  0.00000000000E+00 0. -1.
         -1   -1    0    0    0  501 -0.00000000000E+00 -0.00000000000E+00 -0.13189019441E+04  0.13189019441E+04  0.00000000000E+00 0.  1.
         23    2    1    2    0    0  0.91688076941E+03  0.50778865161E+02 -0.96499650734E+03  0.13353449567E+04  0.93161450019E+02 0.  0.
         11    1    3    3    0    0  0.64778119498E+03  0.56632455341E+02 -0.62740079764E+03  0.90358146974E+03  0.00000000000E+00 0. -1.
        -11    1    3    3    0    0  0.26909957442E+03 -0.58535901794E+01 -0.33759570971E+03  0.43176348697E+03  0.00000000000E+00 0.  1.
         22    1    1    2    0    0 -0.91688076941E+03 -0.50778865161E+02  0.10806654294E+04  0.14181278535E+04  0.00000000000E+00 0. -1.
<mgrwt>
<rscale>  0 0.27510422E+04</rscale>
<asrwt>0</asrwt>
<pdfrwt beam="1">  1        1 0.22070321E+00 0.27510422E+04</pdfrwt>
<pdfrwt beam="2">  1       -1 0.20290799E+00 0.27510422E+04</pdfrwt>
<totfact> 0.90784895E-01</totfact>
</mgrwt>
</event>
<event>
 6    1  0.1773638E-005  0.1835995E+04  0.7818608E-02  0.8687388E-01
          1   -1    0    0  501    0  0.00000000000E+00  0.00000000000E+00  0.12501247301E+04  0.12501247301E+04  0.00000000000E+00 0. -1.
         -1   -1    0    0    0  501 -0.00000000000E+00 -0.00000000000E+00 -0.67410856815E+03  0.67410856815E+03  0.00000000000E+00 0.  1.
         23    2    1    2    0    0 -0.24328364693E+03 -0.82827671211E+03 -0.31220975231E+02  0.86878733306E+03  0.92668420258E+02 0.  0.
         13    1    3    3    0    0 -0.17711365960E+03 -0.45760907483E+03 -0.38426064428E+02  0.49219089407E+03  0.00000000000E+00 0. -1.
        -13    1    3    3    0    0 -0.66169987336E+02 -0.37066763728E+03  0.72050891973E+01  0.37659643899E+03  0.00000000000E+00 0.  1.
         22    1    1    2    0    0  0.24328364693E+03  0.82827671211E+03  0.60723713723E+03  0.10554459652E+04  0.00000000000E+00 0. -1.
<mgrwt>
<rscale>  0 0.18359954E+04</rscale>
<asrwt>0</asrwt>
<pdfrwt beam="1">  1        1 0.19232688E+00 0.18359954E+04</pdfrwt>
<pdfrwt beam="2">  1       -1 0.10370901E+00 0.18359954E+04</pdfrwt>
<totfact> 0.80991157E+00</totfact>
</mgrwt>
</event>
<event>
 6    1  0.1773638E-005  0.3595018E+04  0.7818608E-02  0.8091634E-01
          2   -1    0    0  501    0  0.00000000000E+00  0.00000000000E+00  0.24389454796E+04  0.24389454796E+04  0.00000000000E+00 0.  1.
         -2   -1    0    0    0  501 -0.00000000000E+00 -0.00000000000E+00 -0.13247690261E+04  0.13247690261E+04  0.00000000000E+00 0. -1.
         23    2    1    2    0    0 -0.74976464452E+03 -0.21569825838E+03 -0.11366458138E+04  0.13815151774E+04  0.89149978563E+02 0.  0.
         13    1    3    3    0    0 -0.96306241883E+02  0.23926052167E+01 -0.14304907570E+03  0.17246348844E+03  0.00000000000E+00 0.  1.
        -13    1    3    3    0    0 -0.65345840264E+03 -0.21809086359E+03 -0.99359673805E+03  0.12090516890E+04  0.00000000000E+00 0. -1.
         22    1    1    2    0    0  0.74976464452E+03  0.21569825838E+03  0.22508222672E+04  0.23821993282E+04  0.00000000000E+00 0.  1.
<mgrwt>
<rscale>  0 0.35950185E+04</rscale>
<asrwt>0</asrwt>
<pdfrwt beam="1">  1        2 0.37522238E+00 0.35950185E+04</pdfrwt>
<pdfrwt beam="2">  1       -2 0.20381062E+00 0.35950185E+04</pdfrwt>
<totfact> 0.38659168E-01</totfact>
</mgrwt>
</event>
<event>
 6    1  0.1773638E-005  0.2393859E+04  0.7818608E-02  0.8441806E-01
          1   -1    0    0  501    0  0.00000000000E+00  0.00000000000E+00  0.21208370325E+04  0.21208370325E+04  0.00000000000E+00 0. -1.
         -1   -1    0    0    0  501 -0.00000000000E+00 -0.00000000000E+00 -0.67550682707E+03  0.67550682707E+03  0.00000000000E+00 0.  1.
         23    2    1    2    0    0  0.29031999927E+03 -0.88863483607E+03 -0.14635705000E+03  0.95042243844E+03  0.89021635285E+02 0.  0.
         11    1    3    3    0    0  0.71187378956E+02 -0.32050840475E+03 -0.22945900471E+02  0.32911972713E+03  0.00000000000E+00 0. -1.
        -11    1    3    3    0    0  0.21913262032E+03 -0.56812643132E+03 -0.12341114953E+03  0.62130271131E+03  0.00000000000E+00 0.  1.
         22    1    1    2    0    0 -0.29031999927E+03  0.88863483607E+03  0.15916872554E+04  0.18459214211E+04  0.00000000000E+00 0. -1.
<mgrwt>
<rscale>  0 0.23938587E+04</rscale>
<asrwt>0</asrwt>
<pdfrwt beam="1">  1        1 0.32628262E+00 0.23938587E+04</pdfrwt>
<pdfrwt beam="2">  1       -1 0.10392413E+00 0.23938587E+04</pdfrwt>
<totfact> 0.19281021E+00</totfact>
</mgrwt>
</event>
<event>
 6    1  0.1773638E-005  0.9691533E+03  0.7818608E-02  0.9343039E-01
         -1   -1    0    0    0  501 -0.00000000000E+00  0.00000000000E+00  0.26109463050E+03  0.26109463050E+03  0.00000000000E+00 0.  1.
          1   -1    0    0  501    0  0.00000000000E+00 -0.00000000000E+00 -0.89934647576E+03  0.89934647576E+03  0.00000000000E+00 0. -1.
         23    2    1    2    0    0 -0.23292244456E+03 -0.22860697914E+03 -0.74372559451E+03  0.81745608053E+03  0.92696642722E+02 0.  0.
         13    1    3    3    0    0 -0.67514401913E+02 -0.12747511530E+03 -0.35090003305E+03  0.37939284743E+03  0.00000000000E+00 0. -1.
        -13    1    3    3    0    0 -0.16540804265E+03 -0.10113186384E+03 -0.39282556147E+03  0.43806323311E+03  0.00000000000E+00 0.  1.
         22    1    1    2    0    0  0.23292244456E+03  0.22860697914E+03  0.10547374925E+03  0.34298502573E+03  0.00000000000E+00 0.  1.
<mgrwt>
<rscale>  0 0.96915331E+03</rscale>
<asrwt>0</asrwt>
<pdfrwt beam="1">  1        1 0.13836100E+00 0.96915331E+03</pdfrwt>
<pdfrwt beam="2">  1       -1 0.40168405E-01 0.96915331E+03</pdfrwt>
<totfact> 0.11048778E+02</totfact>
</mgrwt>
</event>
<event>
 6    1  0.1773638E-005  0.1059511E+04  0.7818608E-02  0.9245579E-01
         -1   -1    0    0    0  501 -0.00000000000E+00  0.00000000000E+00  0.90689141698E+03  0.90689141698E+03  0.00000000000E+00 0.  1.
          1   -1    0    0  501    0  0.00000000000E+00 -0.00000000000E+00 -0.30945384975E+03  0.30945384975E+03  0.00000000000E+00 0. -1.
         23    2    1    2    0    0 -0.14381680601E+03 -0.50401724571E+03  0.35048127147E+03  0.63694551727E+03  0.90254155916E+02 0.  0.
         11    1    3    3    0    0 -0.23270712267E+02 -0.19828147383E+03  0.97314765990E+02  0.22209734936E+03  0.00000000000E+00 0.  1.
        -11    1    3    3    0    0 -0.12054609374E+03 -0.30573577188E+03  0.25316650548E+03  0.41484816791E+03  0.00000000000E+00 0. -1.
         22    1    1    2    0    0  0.14381680601E+03  0.50401724571E+03  0.24695629576E+03  0.57939974946E+03  0.00000000000E+00 0.  1.
<mgrwt>
<rscale>  0 0.10595113E+04</rscale>
<asrwt>0</asrwt>
<pdfrwt beam="1">  1        1 0.47608285E-01 0.10595113E+04</pdfrwt>
<pdfrwt beam="2">  1       -1 0.13952176E+00 0.10595113E+04</pdfrwt>
<totfact> 0.35578900E+01</totfact>
</mgrwt>
</event>
<event>
 6    1  0.1773638E-005  0.2308797E+04  0.7818608E-02  0.8474461E-01
          1   -1    0    0  501    0  0.00000000000E+00  0.00000000000E+00  0.20536454596E+04  0.20536454596E+04  0.00000000000E+00 0. -1.
         -1   -1    0    0    0  501 -0.00000000000E+00 -0.00000000000E+00 -0.64891234599E+03  0.64891234599E+03  0.00000000000E+00 0.  1.
         23    2    1    2    0    0 -0.46817859377E+03 -0.13935204450E+03  0.19254639834E+04  0.19885754341E+04  0.91708874212E+02 0.  0.
         11    1    3    3    0    0 -0.27133369437E+03 -0.48946161946E+02  0.94088807145E+03  0.98045298892E+03  0.00000000000E+00 0. -1.
        -11    1    3    3    0    0 -0.19684489940E+03 -0.90405882550E+02  0.98457591199E+03  0.10081224452E+04  0.00000000000E+00 0.  1.
         22    1    1    2    0    0  0.46817859377E+03  0.13935204450E+03 -0.52073086985E+03  0.71398237148E+03  0.00000000000E+00 0.  1.
<mgrwt>
<rscale>  0 0.23087970E+04</rscale>
<asrwt>0</asrwt>
<pdfrwt beam="1">  1        1 0.31594545E+00 0.23087970E+04</pdfrwt>
<pdfrwt beam="2">  1       -1 0.99832669E-01 0.23087970E+04</pdfrwt>
<totfact> 0.23675520E+00</totfact>
</mgrwt>
</event>
<event>
 6    1  0.1773638E-005  0.2814947E+04  0.7818608E-02  0.8298643E-01
         -2   -1    0    0    0  501 -0.00000000000E+00  0.00000000000E+00  0.10963158286E+04  0.10963158286E+04  0.00000000000E+00 0.  1.
          2   -1    0    0  501    0  0.00000000000E+00 -0.00000000000E+00 -0.18069441448E+04  0.18069441448E+04  0.00000000000E+00 0. -1.
         23    2    1    2    0    0  0.13560466590E+04  0.26850906500E+03 -0.90710458737E+02  0.13882491452E+04  0.89708652348E+02 0.  0.
         11    1    3    3    0    0  0.41154865543E+03  0.51485389295E+02 -0.55968033964E+02  0.41851578456E+03  0.00000000000E+00 0. -1.
        -11    1    3    3    0    0  0.94449800361E+03  0.21702367570E+03 -0.34742424773E+02  0.96973336063E+03  0.00000000000E+00 0.  1.
         22    1    1    2    0    0 -0.13560466590E+04 -0.26850906500E+03 -0.61991785743E+03  0.15150108282E+04  0.00000000000E+00 0. -1.
<mgrwt>
<rscale>  0 0.28149469E+04</rscale>
<asrwt>0</asrwt>
<pdfrwt beam="1">  1        2 0.27799140E+00 0.28149469E+04</pdfrwt>
<pdfrwt beam="2">  1       -2 0.16866398E+00 0.28149469E+04</pdfrwt>
<totfact> 0.16196088E+00</totfact>
</mgrwt>
</event>
<event>
 6    1  0.1773638E-005  0.2064205E+04  0.7818608E-02  0.8577177E-01
         -2   -1    0    0    0  501 -0.00000000000E+00  0.00000000000E+00  0.41616202130E+03  0.41616202130E+03  0.00000000000E+00 0.  1.
          2   -1    0    0  501    0  0.00000000000E+00 -0.00000000000E+00 -0.25596664595E+04  0.25596664595E+04  0.00000000000E+00 0. -1.
         23    2    1    2    0    0  0.96584370237E+03  0.14505991124E+03 -0.60181770264E+03  0.11508094601E+04  0.91002368432E+02 0.  0.
         11    1    3    3    0    0  0.67013781128E+03  0.12860112167E+03 -0.38229220082E+03  0.78215744029E+03  0.00000000000E+00 0.  1.
        -11    1    3    3    0    0  0.29570589109E+03  0.16458789568E+02 -0.21952550182E+03  0.36865201984E+03  0.00000000000E+00 0. -1.
         22    1    1    2    0    0 -0.96584370237E+03 -0.14505991124E+03 -0.15416867356E+04  0.18250190207E+04  0.00000000000E+00 0. -1.
<mgrwt>
<rscale>  0 0.20642054E+04</rscale>
<asrwt>0</asrwt>
<pdfrwt beam="1">  1        2 0.39379484E+00 0.20642054E+04</pdfrwt>
<pdfrwt beam="2">  1       -2 0.64024926E-01 0.20642054E+04</pdfrwt>
<totfact> 0.67015412E+00</totfact>
</mgrwt>
</event>
<event>
 6    1  0.1773638E-005  0.9082175E+03  0.7818608E-02  0.9415367E-01
         -2   -1    0    0    0  501 -0.00000000000E+00  0.00000000000E+00  0.48827977328E+03  0.48827977328E+03  0.00000000000E+00 0.  1.
          2   -1    0    0  501    0  0.00000000000E+00 -0.00000000000E+00 -0.42232907281E+03  0.42232907281E+03  0.00000000000E+00 0. -1.
         23    2    1    2    0    0 -0.20923998725E+03  0.45597953243E+02 -0.36319369413E+03  0.43099915371E+03  0.89387165966E+02 0.  0.
         11    1    3    3    0    0 -0.21699425981E+02  0.32827825962E+02 -0.10091145996E+03  0.10831276008E+03  0.00000000000E+00 0.  1.
        -11    1    3    3    0    0 -0.18754056127E+03  0.12770127281E+02 -0.26228223417E+03  0.32268639363E+03  0.00000000000E+00 0. -1.
         22    1    1    2    0    0  0.20923998725E+03 -0.45597953243E+02  0.42914439461E+03  0.47960969238E+03  0.00000000000E+00 0.  1.
<mgrwt>
<rscale>  0 0.90821747E+03</rscale>
<asrwt>0</asrwt>
<pdfrwt beam="1">  1        2 0.64973704E-01 0.90821747E+03</pdfrwt>
<pdfrwt beam="2">  1       -2 0.75119965E-01 0.90821747E+03</pdfrwt>
<totfact> 0.11940750E+02</totfact>
</mgrwt>
</event>
<event>
 6    1  0.1773638E-005  0.2382951E+04  0.7818608E-02  0.8445914E-01
          2   -1    0    0  501    0  0.00000000000E+00  0.00000000000E+00  0.33559888246E+04  0.33559888246E+04  0.00000000000E+00 0. -1.
         -2   -1    0    0    0  501 -0.00000000000E+00 -0.00000000000E+00 -0.42300915134E+03  0.42300915134E+03  0.00000000000E+00 0.  1.
         23    2    1    2    0    0 -0.10940911059E+04 -0.11459296174E+03  0.75012867173E+03  0.13346155611E+04  0.91316903723E+02 0.  0.
         11    1    3    3    0    0 -0.22285273977E+03  0.13468962063E+02  0.15201533372E+03  0.27009890456E+03  0.00000000000E+00 0. -1.
        -11    1    3    3    0    0 -0.87123836615E+03 -0.12806192380E+03  0.59811333801E+03  0.10645166566E+04  0.00000000000E+00 0.  1.
         22    1    1    2    0    0  0.10940911059E+04  0.11459296174E+03  0.21828510015E+04  0.24443824148E+04  0.00000000000E+00 0. -1.
<mgrwt>
<rscale>  0 0.23829511E+04</rscale>
<asrwt>0</asrwt>
<pdfrwt beam="1">  1        2 0.51630595E+00 0.23829511E+04</pdfrwt>
<pdfrwt beam="2">  1       -2 0.65078333E-01 0.23829511E+04</pdfrwt>
<totfact> 0.20058485E+00</totfact>
</mgrwt>
</event>
<event>
 6    1  0.1773638E-005  0.3232309E+04  0.7818608E-02  0.8180336E-01
          1   -1    0    0  501    0  0.00000000000E+00  0.00000000000E+00  0.24258352880E+04  0.24258352880E+04  0.00000000000E+00 0. -1.
         -1   -1    0    0    0  501 -0.00000000000E+00 -0.00000000000E+00 -0.10767244043E+04  0.10767244043E+04  0.00000000000E+00 0.  1.
         23    2    1    2    0    0  0.15158460575E+04  0.11818211130E+03  0.85067800442E+02  0.15252986580E+04  0.86851504602E+02 0.  0.
         13    1    3    3    0    0  0.77464903164E+03  0.10392697070E+03  0.42708768094E+02  0.78275537452E+03  0.00000000000E+00 0.  1.
        -13    1    3    3    0    0  0.74119702589E+03  0.14255140603E+02  0.42359032347E+02  0.74254328348E+03  0.00000000000E+00 0. -1.
         22    1    1    2    0    0 -0.15158460575E+04 -0.11818211130E+03  0.12640430833E+04  0.19772610344E+04  0.00000000000E+00 0. -1.
<mgrwt>
<rscale>  0 0.32323094E+04</rscale>
<asrwt>0</asrwt>
<pdfrwt beam="1">  1        1 0.37320543E+00 0.32323094E+04</pdfrwt>
<pdfrwt beam="2">  1       -1 0.16564991E+00 0.32323094E+04</pdfrwt>
<totfact> 0.33706979E-01</totfact>
</mgrwt>
</event>
<event>
 6    1  0.1773638E-005  0.1042352E+04  0.7818608E-02  0.9263276E-01
         -2   -1    0    0    0  501 -0.00000000000E+00  0.00000000000E+00  0.60595218973E+02  0.60595218973E+02  0.00000000000E+00 0. -1.
          2   -1    0    0  501    0  0.00000000000E+00 -0.00000000000E+00 -0.44826044139E+04  0.44826044139E+04  0.00000000000E+00 0.  1.
         23    2    1    2    0    0  0.15569953709E+03  0.24427679930E+03 -0.40955087271E+04  0.41067181831E+04  0.89604692952E+02 0.  0.
         13    1    3    3    0    0  0.29351449069E+02  0.11665736922E+03 -0.19499343175E+04  0.19536412905E+04  0.00000000000E+00 0.  1.
        -13    1    3    3    0    0  0.12634808802E+03  0.12761943009E+03 -0.21455744096E+04  0.21530768926E+04  0.00000000000E+00 0. -1.
         22    1    1    2    0    0 -0.15569953709E+03 -0.24427679930E+03 -0.32650046788E+03  0.43648144984E+03  0.00000000000E+00 0. -1.
<mgrwt>
<rscale>  0 0.10423519E+04</rscale>
<asrwt>0</asrwt>
<pdfrwt beam="1">  1        2 0.68963143E+00 0.10423519E+04</pdfrwt>
<pdfrwt beam="2">  1       -2 0.93223417E-02 0.10423519E+04</pdfrwt>
<totfact> 0.10572337E+01</totfact>
</mgrwt>
</event>
<event>
 6    1  0.1773638E-005  0.4296426E+04  0.7818608E-02  0.7947279E-01
         -1   -1    0    0    0  501 -0.00000000000E+00  0.00000000000E+00  0.29839610572E+04  0.29839610572E+04  0.00000000000E+00 0.  1.
          1   -1    0    0  501    0  0.00000000000E+00 -0.00000000000E+00 -0.15465412338E+04  0.15465412338E+04  0.00000000000E+00 0. -1.
         23    2    1    2    0    0  0.18919127876E+04 -0.51926258840E+03 -0.20133980891E+03  0.19742353323E+04  0.89998871998E+02 0.  0.
         11    1    3    3    0    0  0.15986519194E+03 -0.18365914808E+02 -0.15453050289E+02  0.16165699238E+03  0.00000000000E+00 0. -1.
        -11    1    3    3    0    0  0.17320475957E+04 -0.50089667359E+03 -0.18588675862E+03  0.18125783399E+04  0.00000000000E+00 0.  1.
         22    1    1    2    0    0 -0.18919127876E+04  0.51926258840E+03  0.16387596324E+04  0.25562669587E+04  0.00000000000E+00 0.  1.
<mgrwt>
<rscale>  0 0.42964259E+04</rscale>
<asrwt>0</asrwt>
<pdfrwt beam="1">  1        1 0.23792942E+00 0.42964259E+04</pdfrwt>
<pdfrwt beam="2">  1       -1 0.45907093E+00 0.42964259E+04</pdfrwt>
<totfact> 0.13015253E-02</totfact>
</mgrwt>
</event>
<event>
 6    1  0.1773638E-005  0.9887233E+03  0.7818608E-02  0.9321000E-01
         -2   -1    0    0    0  501 -0.00000000000E+00  0.00000000000E+00  0.26028643255E+03  0.26028643255E+03  0.00000000000E+00 0.  1.
          2   -1    0    0  501    0  0.00000000000E+00 -0.00000000000E+00 -0.93894040983E+03  0.93894040983E+03  0.00000000000E+00 0. -1.
         23    2    1    2    0    0 -0.39609562142E+02  0.22672863267E+03 -0.86709298156E+03  0.90176415798E+03  0.91397853693E+02 0.  0.
         13    1    3    3    0    0 -0.32551249532E+01  0.17971494251E+03 -0.53477869461E+03  0.56417755061E+03  0.00000000000E+00 0. -1.
        -13    1    3    3    0    0 -0.36354437188E+02  0.47013690155E+02 -0.33231428695E+03  0.33758660737E+03  0.00000000000E+00 0.  1.
         22    1    1    2    0    0  0.39609562142E+02 -0.22672863267E+03  0.18843900428E+03  0.29746268441E+03  0.00000000000E+00 0.  1.
<mgrwt>
<rscale>  0 0.98872332E+03</rscale>
<asrwt>0</asrwt>
<pdfrwt beam="1">  1        2 0.14445237E+00 0.98872332E+03</pdfrwt>
<pdfrwt beam="2">  1       -2 0.40044067E-01 0.98872332E+03</pdfrwt>
<totfact> 0.16263855E+02</totfact>
</mgrwt>
</event>
<event>
 6    1  0.1773638E-005  0.2145618E+04  0.7818608E-02  0.8541410E-01
          4   -1    0    0  501    0  0.00000000000E+00  0.00000000000E+00  0.47408786876E+03  0.47408786876E+03  0.00000000000E+00 0. -1.
         -4   -1    0    0    0  501 -0.00000000000E+00 -0.00000000000E+00 -0.24276492743E+04  0.24276492743E+04  0.00000000000E+00 0.  1.
         23    2    1    2    0    0  0.91560701054E+02 -0.63968460375E+03  0.17572274991E+03  0.67655607876E+03  0.96280260795E+02 0.  0.
         11    1    3    3    0    0  0.76630081320E+02 -0.22632579580E+03  0.80138301865E+02  0.25202714662E+03  0.00000000000E+00 0.  1.
        -11    1    3    3    0    0  0.14930619734E+02 -0.41335880795E+03  0.95584448041E+02  0.42452893214E+03  0.00000000000E+00 0. -1.
         22    1    1    2    0    0 -0.91560701054E+02  0.63968460375E+03 -0.21292841554E+04  0.22251810643E+04  0.00000000000E+00 0.  1.
<mgrwt>
<rscale>  0 0.21456179E+04</rscale>
<asrwt>0</asrwt>
<pdfrwt beam="1">  1        4 0.72936595E-01 0.21456179E+04</pdfrwt>
<pdfrwt beam="2">  1       -4 0.37348450E+00 0.21456179E+04</pdfrwt>
<totfact> 0.32585744E-02</totfact>
</mgrwt>
</event>
<event>
 6    1  0.1773638E-005  0.6291625E+03  0.7818608E-02  0.9846684E-01
          1   -1    0    0  501    0  0.00000000000E+00  0.00000000000E+00  0.12630517551E+04  0.12630517551E+04  0.00000000000E+00 0. -1.
         -1   -1    0    0    0  501 -0.00000000000E+00 -0.00000000000E+00 -0.78351000288E+02  0.78351000288E+02  0.00000000000E+00 0.  1.
         23    2    1    2    0    0  0.14530112177E+03 -0.89629283471E+02  0.11513941327E+04  0.11674626636E+04  0.90082172295E+02 0.  0.
         11    1    3    3    0    0  0.74419377617E+00  0.14674957242E+02  0.96876624110E+02  0.97984633966E+02  0.00000000000E+00 0.  1.
        -11    1    3    3    0    0  0.14455692800E+03 -0.10430424071E+03  0.10545175086E+04  0.10694780297E+04  0.00000000000E+00 0. -1.
         22    1    1    2    0    0 -0.14530112177E+03  0.89629283471E+02  0.33306622140E+02  0.17394009176E+03  0.00000000000E+00 0.  1.
<mgrwt>
<rscale>  0 0.62916252E+03</rscale>
<asrwt>0</asrwt>
<pdfrwt beam="1">  1        1 0.19431564E+00 0.62916252E+03</pdfrwt>
<pdfrwt beam="2">  1       -1 0.12054001E-01 0.62916252E+03</pdfrwt>
<totfact> 0.45924818E+02</totfact>
</mgrwt>
</event>
<event>
 6    1  0.1773638E-005  0.1889352E+04  0.7818608E-02  0.8660175E-01
         -2   -1    0    0    0  501 -0.00000000000E+00  0.00000000000E+00  0.31224325649E+03  0.31224325649E+03  0.00000000000E+00 0. -1.
          2   -1    0    0  501    0  0.00000000000E+00 -0.00000000000E+00 -0.28580683383E+04  0.28580683383E+04  0.00000000000E+00 0.  1.
         23    2    1    2    0    0 -0.13965559303E+03  0.85114847623E+03 -0.19133064851E+04  0.21007148538E+04  0.91125065998E+02 0.  0.
         11    1    3    3    0    0 -0.15157957001E+03  0.74031779938E+03 -0.16525970336E+04  0.18171746657E+04  0.00000000000E+00 0. -1.
        -11    1    3    3    0    0  0.11923976986E+02  0.11083067684E+03 -0.26070945153E+03  0.28354018811E+03  0.00000000000E+00 0.  1.
         22    1    1    2    0    0  0.13965559303E+03 -0.85114847623E+03 -0.63251859670E+03  0.10695967410E+04  0.00000000000E+00 0. -1.
<mgrwt>
<rscale>  0 0.18893518E+04</rscale>
<asrwt>0</asrwt>
<pdfrwt beam="1">  1        2 0.43970284E+00 0.18893518E+04</pdfrwt>
<pdfrwt beam="2">  1       -2 0.48037422E-01 0.18893518E+04</pdfrwt>
<totfact> 0.82230079E+00</totfact>
</mgrwt>
</event>
<event>
 6    1  0.2262087E-005  0.2094245E+04  0.7818608E-02  0.8563783E-01
          1   -1    0    0  501    0  0.00000000000E+00  0.00000000000E+00  0.19489799642E+04  0.19489799642E+04  0.00000000000E+00 0. -1.
         -1   -1    0    0    0  501 -0.00000000000E+00 -0.00000000000E+00 -0.56258438831E+03  0.56258438831E+03  0.00000000000E+00 0.  1.
         23    2    1    2    0    0  0.69027218197E+03  0.28581299284E+03  0.15716271818E+04  0.17418400513E+04  0.76354524958E+02 0.  0.
         13    1    3    3    0    0  0.48429538126E+03  0.21773963575E+03  0.10416337196E+04  0.11691678114E+04  0.00000000000E+00 0. -1.
        -13    1    3    3    0    0  0.20597680071E+03  0.68073357089E+02  0.52999346223E+03  0.57267223992E+03  0.00000000000E+00 0.  1.
         22    1    1    2    0    0 -0.69027218197E+03 -0.28581299284E+03 -0.18523160594E+03  0.76972430123E+03  0.00000000000E+00 0.  1.
<mgrwt>
<rscale>  0 0.20942452E+04</rscale>
<asrwt>0</asrwt>
<pdfrwt beam="1">  1        1 0.29984307E+00 0.20942452E+04</pdfrwt>
<pdfrwt beam="2">  1       -1 0.86551445E-01 0.20942452E+04</pdfrwt>
<totfact> 0.39081065E+00</totfact>
</mgrwt>
</event>
<event>
 6    1  0.1773638E-005  0.2287179E+04  0.7818608E-02  0.8482993E-01
          2   -1    0    0  501    0  0.00000000000E+00  0.00000000000E+00  0.89993992236E+03  0.89993992236E+03  0.00000000000E+00 0. -1.
         -2   -1    0    0    0  501 -0.00000000000E+00 -0.00000000000E+00 -0.14532052222E+04  0.14532052222E+04  0.00000000000E+00 0.  1.
         23    2    1    2    0    0 -0.56667076808E+03 -0.58281803458E+03  0.54779871197E+03  0.98452007578E+03  0.91671860146E+02 0.  0.
         11    1    3    3    0    0 -0.32010177489E+03 -0.27145701086E+03  0.30774036847E+03  0.52044038027E+03  0.00000000000E+00 0.  1.
        -11    1    3    3    0    0 -0.24656899319E+03 -0.31136102372E+03  0.24005834350E+03  0.46407969550E+03  0.00000000000E+00 0. -1.
         22    1    1    2    0    0  0.56667076808E+03  0.58281803458E+03 -0.11010640119E+04  0.13686250688E+04  0.00000000000E+00 0.  1.
<mgrwt>
<rscale>  0 0.22871794E+04</rscale>
<asrwt>0</asrwt>
<pdfrwt beam="1">  1        2 0.13845230E+00 0.22871794E+04</pdfrwt>
<pdfrwt beam="2">  1       -2 0.22357003E+00 0.22871794E+04</pdfrwt>
<totfact> 0.24964359E+00</totfact>
</mgrwt>
</event>
<event>
 6    1  0.1773638E-005  0.2611209E+04  0.7818608E-02  0.8364404E-01
         -1   -1    0    0    0  501 -0.00000000000E+00  0.00000000000E+00  0.61708268276E+03  0.61708268276E+03  0.00000000000E+00 0. -1.
          1   -1    0    0  501    0  0.00000000000E+00 -0.00000000000E+00 -0.27623582949E+04  0.27623582949E+04  0.00000000000E+00 0.  1.
         23    2    1    2    0    0 -0.57846046821E+03  0.10359899522E+04 -0.17744305410E+04  0.21362926514E+04  0.85151941976E+02 0.  0.
         11    1    3    3    0    0 -0.16408419098E+03  0.36717139614E+03 -0.56715300273E+03  0.69527043974E+03  0.00000000000E+00 0. -1.
        -11    1    3    3    0    0 -0.41437627722E+03  0.66881855605E+03 -0.12072775383E+04  0.14410222117E+04  0.00000000000E+00 0.  1.
         22    1    1    2    0    0  0.57846046821E+03 -0.10359899522E+04 -0.37084507113E+03  0.12431483263E+04  0.00000000000E+00 0. -1.
<mgrwt>
<rscale>  0 0.26112093E+04</rscale>
<asrwt>0</asrwt>
<pdfrwt beam="1">  1        1 0.42497820E+00 0.26112093E+04</pdfrwt>
<pdfrwt beam="2">  1       -1 0.94935797E-01 0.26112093E+04</pdfrwt>
<totfact> 0.83610763E-01</totfact>
</mgrwt>
</event>
<event>
 6    1  0.1773638E-005  0.5304357E+04  0.7818608E-02  0.7783199E-01
         -2   -1    0    0    0  501 -0.00000000000E+00  0.00000000000E+00  0.27493794489E+04  0.27493794489E+04  0.00000000000E+00 0.  1.
          2   -1    0    0  501    0  0.00000000000E+00 -0.00000000000E+00 -0.25584142257E+04  0.25584142257E+04  0.00000000000E+00 0. -1.
         23    2    1    2    0    0 -0.18638799216E+04 -0.15190420376E+04 -0.10224916715E+04  0.26144658613E+04  0.91681228698E+02 0.  0.
         11    1    3    3    0    0 -0.78257562356E+03 -0.69414103089E+03 -0.45817894354E+03  0.11420088974E+04  0.00000000000E+00 0. -1.
        -11    1    3    3    0    0 -0.10813042980E+04 -0.82490100671E+03 -0.56431272798E+03  0.14724569640E+04  0.00000000000E+00 0.  1.
         22    1    1    2    0    0  0.18638799216E+04  0.15190420376E+04  0.12134568947E+04  0.26933278132E+04  0.00000000000E+00 0.  1.
<mgrwt>
<rscale>  0 0.53043573E+04</rscale>
<asrwt>0</asrwt>
<pdfrwt beam="1">  1        2 0.39360219E+00 0.53043573E+04</pdfrwt>
<pdfrwt beam="2">  1       -2 0.42298145E+00 0.53043573E+04</pdfrwt>
<totfact> 0.12008763E-02</totfact>
</mgrwt>
</event>
<event>
 6    1  0.1773638E-005  0.5971823E+03  0.7818608E-02  0.9911269E-01
          1   -1    0    0  501    0  0.00000000000E+00  0.00000000000E+00  0.73335914478E+02  0.73335914478E+02  0.00000000000E+00 0. -1.
         -1   -1    0    0    0  501 -0.00000000000E+00 -0.00000000000E+00 -0.12157302377E+04  0.12157302377E+04  0.00000000000E+00 0.  1.
         23    2    1    2    0    0  0.18960715263E+03 -0.21217576319E+01 -0.10680332990E+03  0.23625843962E+03  0.91955015246E+02 0.  0.
         11    1    3    3    0    0  0.46493924669E+02 -0.29666531291E+02  0.70322935641E+00  0.55156891152E+02  0.00000000000E+00 0.  1.
        -11    1    3    3    0    0  0.14311322796E+03  0.27544773659E+02 -0.10750655926E+03  0.18110154847E+03  0.00000000000E+00 0. -1.
         22    1    1    2    0    0 -0.18960715263E+03  0.21217576319E+01 -0.10355909934E+04  0.10528077126E+04  0.00000000000E+00 0.  1.
<mgrwt>
<rscale>  0 0.59718235E+03</rscale>
<asrwt>0</asrwt>
<pdfrwt beam="1">  1        1 0.11282450E-01 0.59718235E+03</pdfrwt>
<pdfrwt beam="2">  1       -1 0.18703540E+00 0.59718235E+03</pdfrwt>
<totfact> 0.10853578E+02</totfact>
</mgrwt>
</event>
<event>
 6    1  0.1773638E-005  0.1391610E+04  0.7818608E-02  0.8959914E-01
          1   -1    0    0  501    0  0.00000000000E+00  0.00000000000E+00  0.18863158305E+04  0.18863158305E+04  0.00000000000E+00 0. -1.
         -1   -1    0    0    0  501 -0.00000000000E+00 -0.00000000000E+00 -0.25666133119E+03  0.25666133119E+03  0.00000000000E+00 0.  1.
         23    2    1    2    0    0 -0.50173174813E+03 -0.46933778622E+03  0.95818819426E+03  0.11823108807E+04  0.87873194502E+02 0.  0.
         13    1    3    3    0    0 -0.40252792530E+03 -0.40850107077E+03  0.83361723345E+03  0.10118396846E+04  0.00000000000E+00 0. -1.
        -13    1    3    3    0    0 -0.99203822826E+02 -0.60836715441E+02  0.12457096081E+03  0.17047119606E+03  0.00000000000E+00 0.  1.
         22    1    1    2    0    0  0.50173174813E+03  0.46933778622E+03  0.67146630508E+03  0.96066628103E+03  0.00000000000E+00 0.  1.
<mgrwt>
<rscale>  0 0.13916096E+04</rscale>
<asrwt>0</asrwt>
<pdfrwt beam="1">  1        1 0.29020243E+00 0.13916096E+04</pdfrwt>
<pdfrwt beam="2">  1       -1 0.39486360E-01 0.13916096E+04</pdfrwt>
<totfact> 0.21672513E+01</totfact>
</mgrwt>
</event>
<event>
 6    1  0.1773638E-005  0.3061846E+04  0.7818608E-02  0.8226288E-01
         -1   -1    0    0    0  501 -0.00000000000E+00  0.00000000000E+00  0.82814135189E+03  0.82814135189E+03  0.00000000000E+00 0.  1.
          1   -1    0    0  501    0  0.00000000000E+00 -0.00000000000E+00 -0.28301028393E+04  0.28301028393E+04  0.00000000000E+00 0. -1.
         23    2    1    2    0    0 -0.17246355583E+03 -0.15165428453E+04 -0.88270466309E+03  0.17655261143E+04  0.90934362529E+02 0.  0.
         13    1    3    3    0    0 -0.26773626373E+02 -0.33615264871E+03 -0.15422122016E+03  0.37080940529E+03  0.00000000000E+00 0. -1.
        -13    1    3    3    0    0 -0.14568992946E+03 -0.11803901966E+04 -0.72848344293E+03  0.13947167090E+04  0.00000000000E+00 0.  1.
         22    1    1    2    0    0  0.17246355583E+03  0.15165428453E+04 -0.11192568243E+04  0.18927180769E+04  0.00000000000E+00 0. -1.
<mgrwt>
<rscale>  0 0.30618460E+04</rscale>
<asrwt>0</asrwt>
<pdfrwt beam="1">  1        1 0.43540043E+00 0.30618460E+04</pdfrwt>
<pdfrwt beam="2">  1       -1 0.12740636E+00 0.30618460E+04</pdfrwt>
<totfact> 0.35801355E-01</totfact>
</mgrwt>
</event>
<event>
 6    1  0.1773638E-005  0.1159217E+04  0.7818608E-02  0.9149322E-01
          2   -1    0    0  501    0  0.00000000000E+00  0.00000000000E+00  0.98556875001E+03  0.98556875001E+03  0.00000000000E+00 0. -1.
         -2   -1    0    0    0  501 -0.00000000000E+00 -0.00000000000E+00 -0.34086537333E+03  0.34086537333E+03  0.00000000000E+00 0.  1.
         23    2    1    2    0    0  0.95522435209E+02 -0.21180380376E+03  0.92809316855E+03  0.95997108149E+03  0.78753799131E+02 0.  0.
         11    1    3    3    0    0  0.45642245841E+01 -0.10466411338E+03  0.40315702157E+03  0.41654650739E+03  0.00000000000E+00 0. -1.
        -11    1    3    3    0    0  0.90958210625E+02 -0.10713969038E+03  0.52493614697E+03  0.54342457410E+03  0.00000000000E+00 0.  1.
         22    1    1    2    0    0 -0.95522435209E+02  0.21180380376E+03 -0.28338979186E+03  0.36646304186E+03  0.00000000000E+00 0.  1.
<mgrwt>
<rscale>  0 0.11592174E+04</rscale>
<asrwt>0</asrwt>
<pdfrwt beam="1">  1        2 0.15162596E+00 0.11592174E+04</pdfrwt>
<pdfrwt beam="2">  1       -2 0.52440827E-01 0.11592174E+04</pdfrwt>
<totfact> 0.87358616E+01</totfact>
</mgrwt>
</event>
<event>
 6    1  0.1773638E-005  0.8810920E+03  0.7818608E-02  0.9449531E-01
          2   -1    0    0  501    0  0.00000000000E+00  0.00000000000E+00  0.40408934932E+03  0.40408934932E+03  0.00000000000E+00 0.  1.
         -2   -1    0    0    0  501 -0.00000000000E+00 -0.00000000000E+00 -0.48029175623E+03  0.48029175623E+03  0.00000000000E+00 0. -1.
         23    2    1    2    0    0 -0.20950677065E+03  0.55092764816E+02 -0.41784117103E+03  0.47985008717E+03  0.93469579372E+02 0.  0.
         13    1    3    3    0    0 -0.11912039936E+03 -0.13114638433E+02 -0.25192789617E+03  0.27897908193E+03  0.00000000000E+00 0. -1.
        -13    1    3    3    0    0 -0.90386371282E+02  0.68207403249E+02 -0.16591327486E+03  0.20087100524E+03  0.00000000000E+00 0.  1.
         22    1    1    2    0    0  0.20950677065E+03 -0.55092764816E+02  0.34163876412E+03  0.40453101838E+03  0.00000000000E+00 0.  1.
<mgrwt>
<rscale>  0 0.88109201E+03</rscale>
<asrwt>0</asrwt>
<pdfrwt beam="1">  1        2 0.62167593E-01 0.88109201E+03</pdfrwt>
<pdfrwt beam="2">  1       -2 0.73891039E-01 0.88109201E+03</pdfrwt>
<totfact> 0.13036393E+02</totfact>
</mgrwt>
</event>
<event>
 6    1  0.1773638E-005  0.3012445E+04  0.7818608E-02  0.8240186E-01
          2   -1    0    0  501    0  0.00000000000E+00  0.00000000000E+00  0.12008820151E+04  0.12008820151E+04  0.00000000000E+00 0. -1.
         -2   -1    0    0    0  501 -0.00000000000E+00 -0.00000000000E+00 -0.18891999824E+04  0.18891999824E+04  0.00000000000E+00 0.  1.
         23    2    1    2    0    0 -0.24269936008E+03 -0.64583844631E+03  0.10273519992E+04  0.12408838708E+04  0.91270874217E+02 0.  0.
         11    1    3    3    0    0 -0.66080100007E+02 -0.30015917735E+03  0.43282261038E+03  0.53084604493E+03  0.00000000000E+00 0.  1.
        -11    1    3    3    0    0 -0.17661926008E+03 -0.34567926896E+03  0.59452938878E+03  0.71003782585E+03  0.00000000000E+00 0. -1.
         22    1    1    2    0    0  0.24269936008E+03  0.64583844631E+03 -0.17156699664E+04  0.18491981267E+04  0.00000000000E+00 0.  1.
<mgrwt>
<rscale>  0 0.30124450E+04</rscale>
<asrwt>0</asrwt>
<pdfrwt beam="1">  1        2 0.18475108E+00 0.30124450E+04</pdfrwt>
<pdfrwt beam="2">  1       -2 0.29064615E+00 0.30124450E+04</pdfrwt>
<totfact> 0.58654026E-01</totfact>
</mgrwt>
</event>
<event>
 6    1  0.1773638E-005  0.2144581E+04  0.7818608E-02  0.8541855E-01
         -2   -1    0    0    0  501 -0.00000000000E+00  0.00000000000E+00  0.80039986374E+03  0.80039986374E+03  0.00000000000E+00 0.  1.
          2   -1    0    0  501    0  0.00000000000E+00 -0.00000000000E+00 -0.14365404877E+04  0.14365404877E+04  0.00000000000E+00 0. -1.
         23    2    1    2    0    0  0.98665691151E+03  0.10799361948E+03 -0.73649637561E+03  0.12393303276E+04  0.91423556756E+02 0.  0.
         11    1    3    3    0    0  0.78598597363E+03  0.10343339649E+03 -0.62658141321E+03  0.10104833921E+04  0.00000000000E+00 0. -1.
        -11    1    3    3    0    0  0.20067093788E+03  0.45602229944E+01 -0.10991496240E+03  0.22884693553E+03  0.00000000000E+00 0.  1.
         22    1    1    2    0    0 -0.98665691151E+03 -0.10799361948E+03  0.10035575161E+03  0.99761002389E+03  0.00000000000E+00 0.  1.
<mgrwt>
<rscale>  0 0.21445809E+04</rscale>
<asrwt>0</asrwt>
<pdfrwt beam="1">  1        2 0.22100623E+00 0.21445809E+04</pdfrwt>
<pdfrwt beam="2">  1       -2 0.12313844E+00 0.21445809E+04</pdfrwt>
<totfact> 0.63057167E+00</totfact>
</mgrwt>
</event>
<event>
 6    1  0.1773638E-005  0.3757359E+04  0.7818608E-02  0.8055368E-01
          2   -1    0    0  501    0  0.00000000000E+00  0.00000000000E+00  0.29893073364E+04  0.29893073364E+04  0.00000000000E+00 0. -1.
         -2   -1    0    0    0  501 -0.00000000000E+00 -0.00000000000E+00 -0.11806871492E+04  0.11806871492E+04  0.00000000000E+00 0.  1.
         23    2    1    2    0    0 -0.18765349785E+04  0.35340352079E+02  0.84622624734E+03  0.20607684282E+04  0.89639204595E+02 0.  0.
         13    1    3    3    0    0 -0.88541048567E+03  0.61103520060E+02  0.40565630294E+03  0.97582908566E+03  0.00000000000E+00 0. -1.
        -13    1    3    3    0    0 -0.99112449280E+03 -0.25763167981E+02  0.44056994440E+03  0.10849393425E+04  0.00000000000E+00 0.  1.
         22    1    1    2    0    0  0.18765349785E+04 -0.35340352079E+02  0.96239393978E+03  0.21092260574E+04  0.00000000000E+00 0. -1.
<mgrwt>
<rscale>  0 0.37573590E+04</rscale>
<asrwt>0</asrwt>
<pdfrwt beam="1">  1        2 0.45989343E+00 0.37573590E+04</pdfrwt>
<pdfrwt beam="2">  1       -2 0.18164418E+00 0.37573590E+04</pdfrwt>
<totfact> 0.25117237E-01</totfact>
</mgrwt>
</event>
<event>
 6    1  0.1773638E-005  0.6375786E+03  0.7818608E-02  0.9830370E-01
         -1   -1    0    0    0  501 -0.00000000000E+00  0.00000000000E+00  0.85207105791E+03  0.85207105791E+03  0.00000000000E+00 0.  1.
          1   -1    0    0  501    0  0.00000000000E+00 -0.00000000000E+00 -0.11927011208E+03  0.11927011208E+03  0.00000000000E+00 0. -1.
         23    2    1    2    0    0 -0.16924966668E+03 -0.76845295556E+02 -0.81898777670E+01  0.20739218624E+03  0.91617660405E+02 0.  0.
         11    1    3    3    0    0 -0.93141928072E+02 -0.86166279322E+02 -0.23914793058E+02  0.12911995889E+03  0.00000000000E+00 0.  1.
        -11    1    3    3    0    0 -0.76107738604E+02  0.93209837660E+01  0.15724915291E+02  0.78272227352E+02  0.00000000000E+00 0. -1.
         22    1    1    2    0    0  0.16924966668E+03  0.76845295556E+02  0.74099082359E+03  0.76394898375E+03  0.00000000000E+00 0.  1.
<mgrwt>
<rscale>  0 0.63757858E+03</rscale>
<asrwt>0</asrwt>
<pdfrwt beam="1">  1        1 0.18349249E-01 0.63757858E+03</pdfrwt>
<pdfrwt beam="2">  1       -1 0.13108785E+00 0.63757858E+03</pdfrwt>
<totfact> 0.14903458E+02</totfact>
</mgrwt>
</event>
<event>
 6    1  0.1773638E-005  0.2409384E+04  0.7818608E-02  0.8435999E-01
         -2   -1    0    0    0  501 -0.00000000000E+00  0.00000000000E+00  0.51275479085E+03  0.51275479085E+03  0.00000000000E+00 0.  1.
          2   -1    0    0  501    0  0.00000000000E+00 -0.00000000000E+00 -0.28303653256E+04  0.28303653256E+04  0.00000000000E+00 0. -1.
         23    2    1    2    0    0 -0.23038336639E+03  0.11177696485E+04 -0.16882434660E+04  0.20398210756E+04  0.90656149643E+02 0.  0.
         13    1    3    3    0    0 -0.68806063394E+02  0.17965978416E+03 -0.26067719031E+03  0.32398226796E+03  0.00000000000E+00 0. -1.
        -13    1    3    3    0    0 -0.16157730300E+03  0.93810986436E+03 -0.14275662757E+04  0.17158388077E+04  0.00000000000E+00 0.  1.
         22    1    1    2    0    0  0.23038336639E+03 -0.11177696485E+04 -0.62936706882E+03  0.13032990409E+04  0.00000000000E+00 0.  1.
<mgrwt>
<rscale>  0 0.24093845E+04</rscale>
<asrwt>0</asrwt>
<pdfrwt beam="1">  1        2 0.43544083E+00 0.24093845E+04</pdfrwt>
<pdfrwt beam="2">  1       -2 0.78885351E-01 0.24093845E+04</pdfrwt>
<totfact> 0.28414103E+00</totfact>
</mgrwt>
</event>
<event>
 6    1  0.1773638E-005  0.2485428E+04  0.7818608E-02  0.8408195E-01
          1   -1    0    0  501    0  0.00000000000E+00  0.00000000000E+00  0.15006907200E+04  0.15006907200E+04  0.00000000000E+00 0. -1.
         -1   -1    0    0    0  501 -0.00000000000E+00 -0.00000000000E+00 -0.10290850697E+04  0.10290850697E+04  0.00000000000E+00 0.  1.
         23    2    1    2    0    0  0.60304011985E+03 -0.56878851245E+03 -0.70362527128E+03  0.10916014341E+04  0.96578519681E+02 0.  0.
         11    1    3    3    0    0  0.15420511553E+03 -0.11865580971E+03 -0.11969886875E+03  0.22844307390E+03  0.00000000000E+00 0. -1.
        -11    1    3    3    0    0  0.44883500433E+03 -0.45013270274E+03 -0.58392640253E+03  0.86315836019E+03  0.00000000000E+00 0.  1.
         22    1    1    2    0    0 -0.60304011985E+03  0.56878851245E+03  0.11752309216E+04  0.14381743556E+04  0.00000000000E+00 0. -1.
<mgrwt>
<rscale>  0 0.24854283E+04</rscale>
<asrwt>0</asrwt>
<pdfrwt beam="1">  1        1 0.23087550E+00 0.24854283E+04</pdfrwt>
<pdfrwt beam="2">  1       -1 0.15832078E+00 0.24854283E+04</pdfrwt>
<totfact> 0.17494320E+00</totfact>
</mgrwt>
</event>
<event>
 6    1  0.1773638E-005  0.5931855E+03  0.7818608E-02  0.9919646E-01
         -2   -1    0    0    0  501 -0.00000000000E+00  0.00000000000E+00  0.28663014567E+03  0.28663014567E+03  0.00000000000E+00 0. -1.
          2   -1    0    0  501    0  0.00000000000E+00 -0.00000000000E+00 -0.30690163542E+03  0.30690163542E+03  0.00000000000E+00 0.  1.
         23    2    1    2    0    0 -0.24965436705E+01 -0.20278347226E+03 -0.21707523557E+03  0.31093828555E+03  0.91834580488E+02 0.  0.
         13    1    3    3    0    0  0.32203093295E+02 -0.23131615948E+02 -0.38976943393E+02  0.55599577250E+02  0.00000000000E+00 0.  1.
        -13    1    3    3    0    0 -0.34699636966E+02 -0.17965185631E+03 -0.17809829218E+03  0.25533870830E+03  0.00000000000E+00 0. -1.
         22    1    1    2    0    0  0.24965436705E+01  0.20278347226E+03  0.19680374582E+03  0.28259349553E+03  0.00000000000E+00 0. -1.
<mgrwt>
<rscale>  0 0.59318550E+03</rscale>
<asrwt>0</asrwt>
<pdfrwt beam="1">  1        2 0.47215636E-01 0.59318550E+03</pdfrwt>
<pdfrwt beam="2">  1       -2 0.44096946E-01 0.59318550E+03</pdfrwt>
<totfact> 0.52620710E+02</totfact>
</mgrwt>
</event>
<event>
 6    1  0.1773638E-005  0.7009228E+04  0.7818608E-02  0.7576484E-01
         -1   -1    0    0    0  501 -0.00000000000E+00  0.00000000000E+00  0.31125570659E+04  0.31125570659E+04  0.00000000000E+00 0.  1.
          1   -1    0    0  501    0  0.00000000000E+00 -0.00000000000E+00 -0.39460539035E+04  0.39460539035E+04  0.00000000000E+00 0. -1.
         23    2    1    2    0    0 -0.24831338993E+03  0.29171363630E+04 -0.23556889488E+04  0.37588514443E+04  0.91376456032E+02 0.  0.
         13    1    3    3    0    0 -0.10162197346E+03  0.10836687872E+04 -0.82064611686E+03  0.13631306302E+04  0.00000000000E+00 0.  1.
        -13    1    3    3    0    0 -0.14669141647E+03  0.18334675758E+04 -0.15350428320E+04  0.23957208141E+04  0.00000000000E+00 0. -1.
         22    1    1    2    0    0  0.24831338993E+03 -0.29171363630E+04  0.15221921113E+04  0.32997595251E+04  0.00000000000E+00 0.  1.
<mgrwt>
<rscale>  0 0.70092276E+04</rscale>
<asrwt>0</asrwt>
<pdfrwt beam="1">  1        1 0.60708521E+00 0.70092276E+04</pdfrwt>
<pdfrwt beam="2">  1       -1 0.47885494E+00 0.70092276E+04</pdfrwt>
<totfact> 0.13699869E-04</totfact>
</mgrwt>
</event>
<event>
 6    1  0.1773638E-005  0.3679573E+04  0.7818608E-02  0.8072504E-01
         -2   -1    0    0    0  501 -0.00000000000E+00  0.00000000000E+00  0.12597642625E+04  0.12597642625E+04  0.00000000000E+00 0. -1.
          2   -1    0    0  501    0  0.00000000000E+00 -0.00000000000E+00 -0.26868630557E+04  0.26868630557E+04  0.00000000000E+00 0.  1.
         23    2    1    2    0    0  0.27618194429E+03  0.10210094277E+04 -0.23270993425E+04  0.25578373029E+04  0.91671151840E+02 0.  0.
         13    1    3    3    0    0  0.44445654513E+02  0.14996093398E+03 -0.42829147572E+03  0.45595754857E+03  0.00000000000E+00 0. -1.
        -13    1    3    3    0    0  0.23173628978E+03  0.87104849377E+03 -0.18988078668E+04  0.21018797543E+04  0.00000000000E+00 0.  1.
         22    1    1    2    0    0 -0.27618194429E+03 -0.10210094277E+04  0.90000054927E+03  0.13887900153E+04  0.00000000000E+00 0. -1.
<mgrwt>
<rscale>  0 0.36795728E+04</rscale>
<asrwt>0</asrwt>
<pdfrwt beam="1">  1        2 0.41336354E+00 0.36795728E+04</pdfrwt>
<pdfrwt beam="2">  1       -2 0.19380989E+00 0.36795728E+04</pdfrwt>
<totfact> 0.31993075E-01</totfact>
</mgrwt>
</event>
<event>
 6    1  0.1773638E-005  0.3246016E+04  0.7818608E-02  0.8176769E-01
          1   -1    0    0  501    0  0.00000000000E+00  0.00000000000E+00  0.38901484364E+04  0.38901484364E+04  0.00000000000E+00 0. -1.
         -1   -1    0    0    0  501 -0.00000000000E+00 -0.00000000000E+00 -0.67713473981E+03  0.67713473981E+03  0.00000000000E+00 0.  1.
         23    2    1    2    0    0  0.81174875190E+03  0.27401768513E+02 -0.36767347618E+03  0.89563402053E+03  0.85379274525E+02 0.  0.
         13    1    3    3    0    0  0.77365540222E+03  0.11457171521E+02 -0.33579066348E+03  0.84346269499E+03  0.00000000000E+00 0.  1.
        -13    1    3    3    0    0  0.38093349684E+02  0.15944596991E+02 -0.31882812694E+02  0.52171325541E+02  0.00000000000E+00 0. -1.
         22    1    1    2    0    0 -0.81174875190E+03 -0.27401768513E+02  0.35806871728E+04  0.36716491557E+04  0.00000000000E+00 0. -1.
<mgrwt>
<rscale>  0 0.32460158E+04</rscale>
<asrwt>0</asrwt>
<pdfrwt beam="1">  1        1 0.59848436E+00 0.32460158E+04</pdfrwt>
<pdfrwt beam="2">  1       -1 0.10417458E+00 0.32460158E+04</pdfrwt>
<totfact> 0.86231159E-02</totfact>
</mgrwt>
</event>
<event>
 6    1  0.1773638E-005  0.1962268E+04  0.7818608E-02  0.8624468E-01
          1   -1    0    0  501    0  0.00000000000E+00  0.00000000000E+00  0.51324649884E+03  0.51324649884E+03  0.00000000000E+00 0. -1.
         -1   -1    0    0    0  501 -0.00000000000E+00 -0.00000000000E+00 -0.18755577762E+04  0.18755577762E+04  0.00000000000E+00 0.  1.
         23    2    1    2    0    0  0.12053449746E+03 -0.47730631509E+03  0.34756727547E+03  0.60946885166E+03  0.91100969592E+02 0.  0.
         11    1    3    3    0    0  0.32504182704E+02 -0.26592485776E+03  0.22438614385E+03  0.34945914414E+03  0.00000000000E+00 0. -1.
        -11    1    3    3    0    0  0.88030314755E+02 -0.21138145733E+03  0.12318113162E+03  0.26000970752E+03  0.00000000000E+00 0.  1.
         22    1    1    2    0    0 -0.12053449746E+03  0.47730631509E+03 -0.17098785528E+04  0.17793354233E+04  0.00000000000E+00 0.  1.
<mgrwt>
<rscale>  0 0.19622675E+04</rscale>
<asrwt>0</asrwt>
<pdfrwt beam="1">  1        1 0.78961001E-01 0.19622675E+04</pdfrwt>
<pdfrwt beam="2">  1       -1 0.28854735E+00 0.19622675E+04</pdfrwt>
<totfact> 0.15594167E+00</totfact>
</mgrwt>
</event>
<event>
 6    1  0.1773638E-005  0.1490739E+04  0.7818608E-02  0.8890635E-01
          2   -1    0    0  501    0  0.00000000000E+00  0.00000000000E+00  0.23960511324E+04  0.23960511324E+04  0.00000000000E+00 0. -1.
         -2   -1    0    0    0  501 -0.00000000000E+00 -0.00000000000E+00 -0.23187152147E+03  0.23187152147E+03  0.00000000000E+00 0.  1.
         23    2    1    2    0    0  0.69688254188E+03  0.25725920904E+03  0.10735887246E+04  0.13083711925E+04  0.86109523439E+02 0.  0.
         11    1    3    3    0    0  0.37386601641E+03  0.95137659765E+02  0.52752013689E+03  0.65353230016E+03  0.00000000000E+00 0.  1.
        -11    1    3    3    0    0  0.32301652547E+03  0.16212154927E+03  0.54606858772E+03  0.65483889237E+03  0.00000000000E+00 0. -1.
         22    1    1    2    0    0 -0.69688254188E+03 -0.25725920904E+03  0.10905908863E+04  0.13195514614E+04  0.00000000000E+00 0. -1.
<mgrwt>
<rscale>  0 0.14907394E+04</rscale>
<asrwt>0</asrwt>
<pdfrwt beam="1">  1        2 0.36862323E+00 0.14907394E+04</pdfrwt>
<pdfrwt beam="2">  1       -2 0.35672543E-01 0.14907394E+04</pdfrwt>
<totfact> 0.28600862E+01</totfact>
</mgrwt>
</event>
<event>
 6    1  0.1773638E-005  0.2943980E+04  0.7818608E-02  0.8259911E-01
          2   -1    0    0  501    0  0.00000000000E+00  0.00000000000E+00  0.12703146280E+04  0.12703146280E+04  0.00000000000E+00 0. -1.
         -2   -1    0    0    0  501 -0.00000000000E+00 -0.00000000000E+00 -0.17056828846E+04  0.17056828846E+04  0.00000000000E+00 0.  1.
         23    2    1    2    0    0  0.57625334725E+03  0.13507219880E+04 -0.29804581451E+03  0.15010821719E+04  0.88873899399E+02 0.  0.
         11    1    3    3    0    0  0.32781338871E+03  0.65520857705E+03 -0.14994835609E+03  0.74782645497E+03  0.00000000000E+00 0.  1.
        -11    1    3    3    0    0  0.24843995853E+03  0.69551341099E+03 -0.14809745843E+03  0.75325571691E+03  0.00000000000E+00 0. -1.
         22    1    1    2    0    0 -0.57625334725E+03 -0.13507219880E+04 -0.13732244209E+03  0.14749153407E+04  0.00000000000E+00 0.  1.
<mgrwt>
<rscale>  0 0.29439796E+04</rscale>
<asrwt>0</asrwt>
<pdfrwt beam="1">  1        2 0.19543302E+00 0.29439796E+04</pdfrwt>
<pdfrwt beam="2">  1       -2 0.26241275E+00 0.29439796E+04</pdfrwt>
<totfact> 0.79797901E-01</totfact>
</mgrwt>
</event>
<event>
 6    1  0.1773638E-005  0.3479424E+04  0.7818608E-02  0.8118684E-01
          2   -1    0    0  501    0  0.00000000000E+00  0.00000000000E+00  0.33031496548E+04  0.33031496548E+04  0.00000000000E+00 0. -1.
         -2   -1    0    0    0  501 -0.00000000000E+00 -0.00000000000E+00 -0.91627638796E+03  0.91627638796E+03  0.00000000000E+00 0.  1.
         23    2    1    2    0    0 -0.62650351208E+03  0.10727299633E+04 -0.28193524351E+03  0.12756537877E+04  0.67445382587E+02 0.  0.
         11    1    3    3    0    0 -0.44114049311E+03  0.75182795214E+03 -0.22926012836E+03  0.90133812231E+03  0.00000000000E+00 0. -1.
        -11    1    3    3    0    0 -0.18536301897E+03  0.32090201118E+03 -0.52675115145E+02  0.37431566537E+03  0.00000000000E+00 0.  1.
         22    1    1    2    0    0  0.62650351208E+03 -0.10727299633E+04  0.26688085104E+04  0.29437722551E+04  0.00000000000E+00 0. -1.
<mgrwt>
<rscale>  0 0.34794241E+04</rscale>
<asrwt>0</asrwt>
<pdfrwt beam="1">  1        2 0.50817686E+00 0.34794241E+04</pdfrwt>
<pdfrwt beam="2">  1       -2 0.14096560E+00 0.34794241E+04</pdfrwt>
<totfact> 0.32148330E-01</totfact>
</mgrwt>
</event>
<event>
 6    1  0.1773638E-005  0.1792759E+04  0.7818608E-02  0.8710160E-01
         -1   -1    0    0    0  501 -0.00000000000E+00  0.00000000000E+00  0.39108251641E+03  0.39108251641E+03  0.00000000000E+00 0.  1.
          1   -1    0    0  501    0  0.00000000000E+00 -0.00000000000E+00 -0.20545437738E+04  0.20545437738E+04  0.00000000000E+00 0. -1.
         23    2    1    2    0    0 -0.52632788233E+03  0.43666597888E+03 -0.48374737861E+02  0.69171560765E+03  0.91826737770E+02 0.  0.
         11    1    3    3    0    0 -0.25325745687E+03  0.20910194793E+03 -0.69232170526E+02  0.33564275282E+03  0.00000000000E+00 0.  1.
        -11    1    3    3    0    0 -0.27307042547E+03  0.22756403094E+03  0.20857432666E+02  0.35607285482E+03  0.00000000000E+00 0. -1.
         22    1    1    2    0    0  0.52632788233E+03 -0.43666597888E+03 -0.16150865195E+04  0.17539106825E+04  0.00000000000E+00 0. -1.
<mgrwt>
<rscale>  0 0.17927589E+04</rscale>
<asrwt>0</asrwt>
<pdfrwt beam="1">  1        1 0.31608366E+00 0.17927589E+04</pdfrwt>
<pdfrwt beam="2">  1       -1 0.60166540E-01 0.17927589E+04</pdfrwt>
<totfact> 0.72384111E+00</totfact>
</mgrwt>
</event>
<event>
 6    1  0.1773638E-005  0.2504500E+04  0.7818608E-02  0.8401384E-01
          2   -1    0    0  501    0  0.00000000000E+00  0.00000000000E+00  0.22697760032E+04  0.22697760032E+04  0.00000000000E+00 0. -1.
         -2   -1    0    0    0  501 -0.00000000000E+00 -0.00000000000E+00 -0.69087448801E+03  0.69087448801E+03  0.00000000000E+00 0.  1.
         23    2    1    2    0    0  0.68297757790E+02  0.58391297076E+03  0.20953810393E+04  0.21781097319E+04  0.89002038575E+02 0.  0.
         11    1    3    3    0    0  0.37214063738E+02  0.14225585893E+03  0.41104024789E+03  0.43654976958E+03  0.00000000000E+00 0. -1.
        -11    1    3    3    0    0  0.31083694052E+02  0.44165711183E+03  0.16843407915E+04  0.17415599623E+04  0.00000000000E+00 0.  1.
         22    1    1    2    0    0 -0.68297757790E+02 -0.58391297076E+03 -0.51647952416E+03  0.78254075933E+03  0.00000000000E+00 0.  1.
<mgrwt>
<rscale>  0 0.25045002E+04</rscale>
<asrwt>0</asrwt>
<pdfrwt beam="1">  1        2 0.34919631E+00 0.25045002E+04</pdfrwt>
<pdfrwt beam="2">  1       -2 0.10628838E+00 0.25045002E+04</pdfrwt>
<totfact> 0.30009344E+00</totfact>
</mgrwt>
</event>
<event>
 6    1  0.1773638E-005  0.1818729E+04  0.7818608E-02  0.8696402E-01
          2   -1    0    0  501    0  0.00000000000E+00  0.00000000000E+00  0.16835682441E+04  0.16835682441E+04  0.00000000000E+00 0. -1.
         -2   -1    0    0    0  501 -0.00000000000E+00 -0.00000000000E+00 -0.49118525704E+03  0.49118525704E+03  0.00000000000E+00 0.  1.
         23    2    1    2    0    0  0.43879857401E+02  0.62891067996E+03  0.13775322703E+04  0.15176885558E+04  0.91265062267E+02 0.  0.
         11    1    3    3    0    0  0.58250246707E+02  0.22705928730E+03  0.53632260407E+03  0.58531269150E+03  0.00000000000E+00 0. -1.
        -11    1    3    3    0    0 -0.14370389306E+02  0.40185139266E+03  0.84120966619E+03  0.93237586432E+03  0.00000000000E+00 0.  1.
         22    1    1    2    0    0 -0.43879857401E+02 -0.62891067996E+03 -0.18514928323E+03  0.65706494530E+03  0.00000000000E+00 0.  1.
<mgrwt>
<rscale>  0 0.18187291E+04</rscale>
<asrwt>0</asrwt>
<pdfrwt beam="1">  1        2 0.25901050E+00 0.18187291E+04</pdfrwt>
<pdfrwt beam="2">  1       -2 0.75566964E-01 0.18187291E+04</pdfrwt>
<totfact> 0.14824762E+01</totfact>
</mgrwt>
</event>
<event>
 6    1  0.1773638E-005  0.1110245E+04  0.7818608E-02  0.9195263E-01
         -2   -1    0    0    0  501 -0.00000000000E+00  0.00000000000E+00  0.39997092196E+03  0.39997092196E+03  0.00000000000E+00 0.  1.
          2   -1    0    0  501    0  0.00000000000E+00 -0.00000000000E+00 -0.77045879786E+03  0.77045879786E+03  0.00000000000E+00 0. -1.
         23    2    1    2    0    0  0.45751191026E+03 -0.29613743681E+03 -0.27631590558E+03  0.61736291599E+03  0.88158725306E+02 0.  0.
         13    1    3    3    0    0  0.36345786830E+03 -0.20387790019E+03 -0.17891042501E+03  0.45351599794E+03  0.00000000000E+00 0.  1.
        -13    1    3    3    0    0  0.94054041967E+02 -0.92259536617E+02 -0.97405480577E+02  0.16384691805E+03  0.00000000000E+00 0. -1.
         22    1    1    2    0    0 -0.45751191026E+03  0.29613743681E+03 -0.94171970322E+02  0.55306680384E+03  0.00000000000E+00 0.  1.
<mgrwt>
<rscale>  0 0.11102452E+04</rscale>
<asrwt>0</asrwt>
<pdfrwt beam="1">  1        2 0.11853212E+00 0.11102452E+04</pdfrwt>
<pdfrwt beam="2">  1       -2 0.61533990E-01 0.11102452E+04</pdfrwt>
<totfact> 0.88223438E+01</totfact>
</mgrwt>
</event>
<event>
 6    1  0.1773638E-005  0.4389187E+04  0.7818608E-02  0.7930329E-01
         -2   -1    0    0    0  501 -0.00000000000E+00  0.00000000000E+00  0.11617588727E+04  0.11617588727E+04  0.00000000000E+00 0.  1.
          2   -1    0    0  501    0  0.00000000000E+00 -0.00000000000E+00 -0.41456457771E+04  0.41456457771E+04  0.00000000000E+00 0. -1.
         23    2    1    2    0    0  0.13713615477E+04 -0.16233871639E+03  0.56841205489E+03  0.14961300271E+04  0.91249330487E+02 0.  0.
         13    1    3    3    0    0  0.92697938728E+03 -0.12893702167E+03  0.34345423359E+03  0.99693347349E+03  0.00000000000E+00 0.  1.
        -13    1    3    3    0    0  0.44438216045E+03 -0.33401694719E+02  0.22495782129E+03  0.49919655357E+03  0.00000000000E+00 0. -1.
         22    1    1    2    0    0 -0.13713615477E+04  0.16233871639E+03 -0.35522989593E+04  0.38112746227E+04  0.00000000000E+00 0. -1.
<mgrwt>
<rscale>  0 0.43891871E+04</rscale>
<asrwt>0</asrwt>
<pdfrwt beam="1">  1        2 0.63779166E+00 0.43891871E+04</pdfrwt>
<pdfrwt beam="2">  1       -2 0.17873213E+00 0.43891871E+04</pdfrwt>
<totfact> 0.36445864E-02</totfact>
</mgrwt>
</event>
<event>
 6    1  0.1773638E-005  0.1786816E+04  0.7818608E-02  0.8713342E-01
         -1   -1    0    0    0  501 -0.00000000000E+00  0.00000000000E+00  0.70376047660E+03  0.70376047660E+03  0.00000000000E+00 0.  1.
          1   -1    0    0  501    0  0.00000000000E+00 -0.00000000000E+00 -0.11341610019E+04  0.11341610019E+04  0.00000000000E+00 0. -1.
         23    2    1    2    0    0 -0.56512134577E+03 -0.63746831503E+03 -0.48413257077E+03  0.98433192791E+03  0.93792377698E+02 0.  0.
         11    1    3    3    0    0 -0.34685170398E+03 -0.34540595159E+03 -0.31745423689E+03  0.58342828905E+03  0.00000000000E+00 0. -1.
        -11    1    3    3    0    0 -0.21826964179E+03 -0.29206236344E+03 -0.16667833388E+03  0.40090363886E+03  0.00000000000E+00 0.  1.
         22    1    1    2    0    0  0.56512134577E+03  0.63746831503E+03  0.53732045507E+02  0.85358955056E+03  0.00000000000E+00 0.  1.
<mgrwt>
<rscale>  0 0.17868158E+04</rscale>
<asrwt>0</asrwt>
<pdfrwt beam="1">  1        1 0.17448631E+00 0.17868158E+04</pdfrwt>
<pdfrwt beam="2">  1       -1 0.10827084E+00 0.17868158E+04</pdfrwt>
<totfact> 0.89469550E+00</totfact>
</mgrwt>
</event>
<event>
 6    1  0.1773638E-005  0.2258900E+04  0.7818608E-02  0.8494305E-01
         -1   -1    0    0    0  501 -0.00000000000E+00  0.00000000000E+00  0.46305921930E+03  0.46305921930E+03  0.00000000000E+00 0.  1.
          1   -1    0    0  501    0  0.00000000000E+00 -0.00000000000E+00 -0.27548466494E+04  0.27548466494E+04  0.00000000000E+00 0. -1.
         23    2    1    2    0    0 -0.74665416581E+03  0.25788281678E+03 -0.15645550869E+01  0.79527985386E+03  0.92041336416E+02 0.  0.
         11    1    3    3    0    0 -0.41272432181E+03  0.14765862272E+03 -0.46357757125E+02  0.44078733685E+03  0.00000000000E+00 0. -1.
        -11    1    3    3    0    0 -0.33392984400E+03  0.11022419406E+03  0.44793202038E+02  0.35449251701E+03  0.00000000000E+00 0.  1.
         22    1    1    2    0    0  0.74665416581E+03 -0.25788281678E+03 -0.22902228751E+04  0.24226260149E+04  0.00000000000E+00 0. -1.
<mgrwt>
<rscale>  0 0.22588999E+04</rscale>
<asrwt>0</asrwt>
<pdfrwt beam="1">  1        1 0.42382257E+00 0.22588999E+04</pdfrwt>
<pdfrwt beam="2">  1       -1 0.71239879E-01 0.22588999E+04</pdfrwt>
<totfact> 0.16201958E+00</totfact>
</mgrwt>
</event>
<event>
 6    1  0.1773638E-005  0.3628206E+04  0.7818608E-02  0.8084061E-01
          1   -1    0    0  501    0  0.00000000000E+00  0.00000000000E+00  0.20390293098E+04  0.20390293098E+04  0.00000000000E+00 0.  1.
         -1   -1    0    0    0  501 -0.00000000000E+00 -0.00000000000E+00 -0.16139883681E+04  0.16139883681E+04  0.00000000000E+00 0. -1.
         23    2    1    2    0    0  0.45906238878E+03 -0.71403128252E+03 -0.14002345902E+04  0.16400075646E+04  0.91591239903E+02 0.  0.
         11    1    3    3    0    0  0.11342379648E+03 -0.21768751057E+03 -0.47390839100E+03  0.53370588617E+03  0.00000000000E+00 0.  1.
        -11    1    3    3    0    0  0.34563859230E+03 -0.49634377195E+03 -0.92632619915E+03  0.11063016784E+04  0.00000000000E+00 0. -1.
         22    1    1    2    0    0 -0.45906238878E+03  0.71403128252E+03  0.18252755318E+04  0.20130101133E+04  0.00000000000E+00 0.  1.
<mgrwt>
<rscale>  0 0.36282059E+04</rscale>
<asrwt>0</asrwt>
<pdfrwt beam="1">  1        1 0.31369681E+00 0.36282059E+04</pdfrwt>
<pdfrwt beam="2">  1       -1 0.24830590E+00 0.36282059E+04</pdfrwt>
<totfact> 0.16185755E-01</totfact>
</mgrwt>
</event>
<event>
 6    1  0.1773638E-005  0.3163938E+03  0.7818608E-02  0.1077321E+00
          2   -1    0    0  501    0  0.00000000000E+00  0.00000000000E+00  0.33596701860E+02  0.33596701860E+02  0.00000000000E+00 0.  1.
         -2   -1    0    0    0  501 -0.00000000000E+00 -0.00000000000E+00 -0.74490224244E+03  0.74490224244E+03  0.00000000000E+00 0. -1.
         23    2    1    2    0    0  0.78039452864E+02  0.11463036329E+03 -0.27554176690E+03  0.32120216666E+03  0.89539321897E+02 0.  0.
         13    1    3    3    0    0  0.43722323343E+02 -0.14350357641E+01 -0.81788327913E+02  0.92752528100E+02  0.00000000000E+00 0.  1.
        -13    1    3    3    0    0  0.34317129521E+02  0.11606539906E+03 -0.19375343899E+03  0.22844963856E+03  0.00000000000E+00 0. -1.
         22    1    1    2    0    0 -0.78039452864E+02 -0.11463036329E+03 -0.43576377367E+03  0.45729677764E+03  0.00000000000E+00 0. -1.
<mgrwt>
<rscale>  0 0.31639380E+03</rscale>
<asrwt>0</asrwt>
<pdfrwt beam="1">  1        2 0.51687235E-02 0.31639380E+03</pdfrwt>
<pdfrwt beam="2">  1       -2 0.11460034E+00 0.31639380E+03</pdfrwt>
<totfact> 0.93721282E+02</totfact>
</mgrwt>
</event>
<event>
 6    1  0.1773638E-005  0.6361290E+04  0.7818608E-02  0.7647152E-01
          1   -1    0    0  501    0  0.00000000000E+00  0.00000000000E+00  0.33819063224E+04  0.33819063224E+04  0.00000000000E+00 0. -1.
         -1   -1    0    0    0  501 -0.00000000000E+00 -0.00000000000E+00 -0.29913608687E+04  0.29913608687E+04  0.00000000000E+00 0.  1.
         23    2    1    2    0    0  0.27011869860E+04  0.16716391641E+04  0.34277087836E+03  0.31963077897E+04  0.90016572716E+02 0.  0.
         11    1    3    3    0    0  0.13156635951E+04  0.80290219945E+03  0.21052053510E+03  0.15556161265E+04  0.00000000000E+00 0. -1.
        -11    1    3    3    0    0  0.13855233909E+04  0.86873696467E+03  0.13225034326E+03  0.16406916632E+04  0.00000000000E+00 0.  1.
         22    1    1    2    0    0 -0.27011869860E+04 -0.16716391641E+04  0.47774575281E+02  0.31769594014E+04  0.00000000000E+00 0. -1.
<mgrwt>
<rscale>  0 0.63612899E+04</rscale>
<asrwt>0</asrwt>
<pdfrwt beam="1">  1        1 0.52029328E+00 0.63612899E+04</pdfrwt>
<pdfrwt beam="2">  1       -1 0.46020936E+00 0.63612899E+04</pdfrwt>
<totfact> 0.55563347E-04</totfact>
</mgrwt>
</event>
<event>
 6    1  0.1773638E-005  0.3981422E+04  0.7818608E-02  0.8008305E-01
          2   -1    0    0  501    0  0.00000000000E+00  0.00000000000E+00  0.27340675677E+04  0.27340675677E+04  0.00000000000E+00 0. -1.
         -2   -1    0    0    0  501 -0.00000000000E+00 -0.00000000000E+00 -0.14494635251E+04  0.14494635251E+04  0.00000000000E+00 0.  1.
         23    2    1    2    0    0  0.70796165602E+03  0.13509235710E+04 -0.69991175245E+03  0.16806313462E+04  0.91875237829E+02 0.  0.
         11    1    3    3    0    0  0.46816922826E+03  0.89903062826E+03 -0.51237072331E+03  0.11357650527E+04  0.00000000000E+00 0. -1.
        -11    1    3    3    0    0  0.23979242776E+03  0.45189294277E+03 -0.18754102915E+03  0.54486629346E+03  0.00000000000E+00 0.  1.
         22    1    1    2    0    0 -0.70796165602E+03 -0.13509235710E+04  0.19845157951E+04  0.25028997467E+04  0.00000000000E+00 0. -1.
<mgrwt>
<rscale>  0 0.39814225E+04</rscale>
<asrwt>0</asrwt>
<pdfrwt beam="1">  1        2 0.42062578E+00 0.39814225E+04</pdfrwt>
<pdfrwt beam="2">  1       -2 0.22299439E+00 0.39814225E+04</pdfrwt>
<totfact> 0.18937859E-01</totfact>
</mgrwt>
</event>
<event>
 6    1  0.1773638E-005  0.2063009E+04  0.7818608E-02  0.8577715E-01
          1   -1    0    0  501    0  0.00000000000E+00  0.00000000000E+00  0.23980144157E+04  0.23980144157E+04  0.00000000000E+00 0. -1.
         -1   -1    0    0    0  501 -0.00000000000E+00 -0.00000000000E+00 -0.44370114302E+03  0.44370114302E+03  0.00000000000E+00 0.  1.
         23    2    1    2    0    0 -0.20569780449E+02  0.14527980129E+03  0.23826719318E+04  0.23889236889E+04  0.91112679178E+02 0.  0.
         13    1    3    3    0    0  0.11556503939E+02  0.13478721803E+03  0.16792729003E+04  0.16847132162E+04  0.00000000000E+00 0.  1.
        -13    1    3    3    0    0 -0.32126284388E+02  0.10492583256E+02  0.70339903146E+03  0.70421047273E+03  0.00000000000E+00 0. -1.
         22    1    1    2    0    0  0.20569780449E+02 -0.14527980129E+03 -0.42835865912E+03  0.45279186982E+03  0.00000000000E+00 0.  1.
<mgrwt>
<rscale>  0 0.20630092E+04</rscale>
<asrwt>0</asrwt>
<pdfrwt beam="1">  1        1 0.36892529E+00 0.20630092E+04</pdfrwt>
<pdfrwt beam="2">  1       -1 0.68261716E-01 0.20630092E+04</pdfrwt>
<totfact> 0.31949195E+00</totfact>
</mgrwt>
</event>
<event>
 6    1  0.1773638E-005  0.3320991E+04  0.7818608E-02  0.8157575E-01
          2   -1    0    0  501    0  0.00000000000E+00  0.00000000000E+00  0.29589755957E+04  0.29589755957E+04  0.00000000000E+00 0. -1.
         -2   -1    0    0    0  501 -0.00000000000E+00 -0.00000000000E+00 -0.93182449005E+03  0.93182449005E+03  0.00000000000E+00 0.  1.
         23    2    1    2    0    0  0.89595664547E+03 -0.50096899519E+03 -0.51293152109E+03  0.11511417137E+04  0.91215432207E+02 0.  0.
         11    1    3    3    0    0  0.52820756664E+03 -0.34617602890E+03 -0.31680046633E+03  0.70654342535E+03  0.00000000000E+00 0. -1.
        -11    1    3    3    0    0  0.36774907883E+03 -0.15479296629E+03 -0.19613105476E+03  0.44459828838E+03  0.00000000000E+00 0.  1.
         22    1    1    2    0    0 -0.89595664547E+03  0.50096899519E+03  0.25400826267E+04  0.27396583720E+04  0.00000000000E+00 0. -1.
<mgrwt>
<rscale>  0 0.33209914E+04</rscale>
<asrwt>0</asrwt>
<pdfrwt beam="1">  1        2 0.45522701E+00 0.33209914E+04</pdfrwt>
<pdfrwt beam="2">  1       -2 0.14335761E+00 0.33209914E+04</pdfrwt>
<totfact> 0.51958742E-01</totfact>
</mgrwt>
</event>
<event>
 6    1  0.1773638E-005  0.3362794E+04  0.7818608E-02  0.8147099E-01
         -1   -1    0    0    0  501 -0.00000000000E+00  0.00000000000E+00  0.95885946603E+03  0.95885946603E+03  0.00000000000E+00 0.  1.
          1   -1    0    0  501    0  0.00000000000E+00 -0.00000000000E+00 -0.29483952574E+04  0.29483952574E+04  0.00000000000E+00 0. -1.
         23    2    1    2    0    0  0.70612049583E+03 -0.15147267108E+04 -0.79541657003E+03  0.18532528058E+04  0.94102493910E+02 0.  0.
         11    1    3    3    0    0  0.41922132808E+03 -0.85354957318E+03 -0.40537950003E+03  0.10337436504E+04  0.00000000000E+00 0. -1.
        -11    1    3    3    0    0  0.28689916775E+03 -0.66117713758E+03 -0.39003707000E+03  0.81950915534E+03  0.00000000000E+00 0.  1.
         22    1    1    2    0    0 -0.70612049583E+03  0.15147267108E+04 -0.11941192213E+04  0.20540019176E+04  0.00000000000E+00 0. -1.
<mgrwt>
<rscale>  0 0.33627945E+04</rscale>
<asrwt>0</asrwt>
<pdfrwt beam="1">  1        1 0.45359926E+00 0.33627945E+04</pdfrwt>
<pdfrwt beam="2">  1       -1 0.14751684E+00 0.33627945E+04</pdfrwt>
<totfact> 0.19613467E-01</totfact>
</mgrwt>
</event>
<event>
 6    1  0.1773638E-005  0.6979418E+03  0.7818608E-02  0.9720758E-01
         -1   -1    0    0    0  501 -0.00000000000E+00  0.00000000000E+00  0.20505032503E+03  0.20505032503E+03  0.00000000000E+00 0.  1.
          1   -1    0    0  501    0  0.00000000000E+00 -0.00000000000E+00 -0.59390636956E+03  0.59390636956E+03  0.00000000000E+00 0. -1.
         23    2    1    2    0    0 -0.23381419892E+03 -0.33787207796E+02 -0.48250162626E+03  0.54483044644E+03  0.90673816499E+02 0.  0.
         13    1    3    3    0    0 -0.67457834045E+02 -0.32899708946E+02 -0.82051543241E+02  0.11119984699E+03  0.00000000000E+00 0. -1.
        -13    1    3    3    0    0 -0.16635636487E+03 -0.88749885023E+00 -0.40045008302E+03  0.43363059945E+03  0.00000000000E+00 0.  1.
         22    1    1    2    0    0  0.23381419892E+03  0.33787207796E+02  0.93645581731E+02  0.25412624816E+03  0.00000000000E+00 0.  1.
<mgrwt>
<rscale>  0 0.69794181E+03</rscale>
<asrwt>0</asrwt>
<pdfrwt beam="1">  1        1 0.91370210E-01 0.69794181E+03</pdfrwt>
<pdfrwt beam="2">  1       -1 0.31546204E-01 0.69794181E+03</pdfrwt>
<totfact> 0.32833851E+02</totfact>
</mgrwt>
</event>
<event>
 6    1  0.1773638E-005  0.2490337E+04  0.7818608E-02  0.8406436E-01
          1   -1    0    0  501    0  0.00000000000E+00  0.00000000000E+00  0.22791588553E+04  0.22791588553E+04  0.00000000000E+00 0. -1.
         -1   -1    0    0    0  501 -0.00000000000E+00 -0.00000000000E+00 -0.68027042918E+03  0.68027042918E+03  0.00000000000E+00 0.  1.
         23    2    1    2    0    0  0.11934221923E+04 -0.34554337160E+03  0.86199940534E+03  0.15149009256E+04  0.90692276404E+02 0.  0.
         13    1    3    3    0    0  0.57574253635E+03 -0.12953238333E+03  0.37492136451E+03  0.69915959270E+03  0.00000000000E+00 0. -1.
        -13    1    3    3    0    0  0.61767965591E+03 -0.21601098827E+03  0.48707804083E+03  0.81574133292E+03  0.00000000000E+00 0.  1.
         22    1    1    2    0    0 -0.11934221923E+04  0.34554337160E+03  0.73688902079E+03  0.14445283589E+04  0.00000000000E+00 0. -1.
<mgrwt>
<rscale>  0 0.24903368E+04</rscale>
<asrwt>0</asrwt>
<pdfrwt beam="1">  1        1 0.35063982E+00 0.24903368E+04</pdfrwt>
<pdfrwt beam="2">  1       -1 0.10465699E+00 0.24903368E+04</pdfrwt>
<totfact> 0.14666780E+00</totfact>
</mgrwt>
</event>
<event>
 6    1  0.1773638E-005  0.4021076E+04  0.7818608E-02  0.8000308E-01
         -1   -1    0    0    0  501 -0.00000000000E+00  0.00000000000E+00  0.19514279877E+04  0.19514279877E+04  0.00000000000E+00 0.  1.
          1   -1    0    0  501    0  0.00000000000E+00 -0.00000000000E+00 -0.20714389610E+04  0.20714389610E+04  0.00000000000E+00 0. -1.
         23    2    1    2    0    0  0.16683266930E+04 -0.92120382684E+03  0.57753726350E+03  0.19934571853E+04  0.91606843548E+02 0.  0.
         13    1    3    3    0    0  0.31946249260E+02 -0.32336281683E+02  0.19222185301E+02  0.49352713832E+02  0.00000000000E+00 0. -1.
        -13    1    3    3    0    0  0.16363804438E+04 -0.88886754516E+03  0.55831507820E+03  0.19441044715E+04  0.00000000000E+00 0.  1.
         22    1    1    2    0    0 -0.16683266930E+04  0.92120382684E+03 -0.69754823682E+03  0.20294097634E+04  0.00000000000E+00 0. -1.
<mgrwt>
<rscale>  0 0.40210765E+04</rscale>
<asrwt>0</asrwt>
<pdfrwt beam="1">  1        1 0.31868292E+00 0.40210765E+04</pdfrwt>
<pdfrwt beam="2">  1       -1 0.30021969E+00 0.40210765E+04</pdfrwt>
<totfact> 0.68537397E-02</totfact>
</mgrwt>
</event>
<event>
 6    1  0.1773638E-005  0.2354213E+04  0.7818608E-02  0.8456847E-01
         -2   -1    0    0    0  501 -0.00000000000E+00  0.00000000000E+00  0.67901716274E+03  0.67901716274E+03  0.00000000000E+00 0.  1.
          2   -1    0    0  501    0  0.00000000000E+00 -0.00000000000E+00 -0.20405662212E+04  0.20405662212E+04  0.00000000000E+00 0. -1.
         23    2    1    2    0    0 -0.43790919537E+02 -0.96733666333E+03  0.88043272950E+02  0.97631754301E+03  0.88240931590E+02 0.  0.
         13    1    3    3    0    0  0.10549635903E+02 -0.52479709979E+03  0.75259250117E+02  0.53027091707E+03  0.00000000000E+00 0.  1.
        -13    1    3    3    0    0 -0.54340555440E+02 -0.44253956354E+03  0.12784022834E+02  0.44604662593E+03  0.00000000000E+00 0. -1.
         22    1    1    2    0    0  0.43790919537E+02  0.96733666333E+03 -0.14495923314E+04  0.17432658409E+04  0.00000000000E+00 0. -1.
<mgrwt>
<rscale>  0 0.23542128E+04</rscale>
<asrwt>0</asrwt>
<pdfrwt beam="1">  1        2 0.31393326E+00 0.23542128E+04</pdfrwt>
<pdfrwt beam="2">  1       -2 0.10446418E+00 0.23542128E+04</pdfrwt>
<totfact> 0.42599011E+00</totfact>
</mgrwt>
</event>
<event>
 6    1  0.1773638E-005  0.3211936E+04  0.7818608E-02  0.8185672E-01
         -1   -1    0    0    0  501 -0.00000000000E+00  0.00000000000E+00  0.79523916930E+03  0.79523916930E+03  0.00000000000E+00 0.  1.
          1   -1    0    0  501    0  0.00000000000E+00 -0.00000000000E+00 -0.32432169146E+04  0.32432169146E+04  0.00000000000E+00 0. -1.
         23    2    1    2    0    0  0.60740158347E+03 -0.11084392928E+04 -0.24680965892E+04  0.27743440963E+04  0.88938413320E+02 0.  0.
         13    1    3    3    0    0  0.20949827558E+03 -0.42066224137E+03 -0.10035300893E+04  0.11081150161E+04  0.00000000000E+00 0.  1.
        -13    1    3    3    0    0  0.39790330789E+03 -0.68777705139E+03 -0.14645664999E+04  0.16662290802E+04  0.00000000000E+00 0. -1.
         22    1    1    2    0    0 -0.60740158347E+03  0.11084392928E+04  0.20118843959E+02  0.12641119876E+04  0.00000000000E+00 0. -1.
<mgrwt>
<rscale>  0 0.32119359E+04</rscale>
<asrwt>0</asrwt>
<pdfrwt beam="1">  1        1 0.49895644E+00 0.32119359E+04</pdfrwt>
<pdfrwt beam="2">  1       -1 0.12234449E+00 0.32119359E+04</pdfrwt>
<totfact> 0.19435941E-01</totfact>
</mgrwt>
</event>
<event>
 6    1  0.1773638E-005  0.1190384E+04  0.7818608E-02  0.9121315E-01
          2   -1    0    0  501    0  0.00000000000E+00  0.00000000000E+00  0.45575996904E+03  0.45575996904E+03  0.00000000000E+00 0. -1.
         -2   -1    0    0    0  501 -0.00000000000E+00 -0.00000000000E+00 -0.77728135932E+03  0.77728135932E+03  0.00000000000E+00 0.  1.
         23    2    1    2    0    0 -0.16798811635E+02  0.32542995086E+03 -0.67329985516E+03  0.75352600916E+03  0.91004936822E+02 0.  0.
         13    1    3    3    0    0 -0.91426539848E+01  0.32606334782E+03 -0.66995984933E+03  0.74514904189E+03  0.00000000000E+00 0.  1.
        -13    1    3    3    0    0 -0.76561576503E+01 -0.63339695598E+00 -0.33400058302E+01  0.83769672684E+01  0.00000000000E+00 0. -1.
         22    1    1    2    0    0  0.16798811635E+02 -0.32542995086E+03  0.35177846489E+03  0.47951531920E+03  0.00000000000E+00 0. -1.
<mgrwt>
<rscale>  0 0.11903844E+04</rscale>
<asrwt>0</asrwt>
<pdfrwt beam="1">  1        2 0.70116919E-01 0.11903844E+04</pdfrwt>
<pdfrwt beam="2">  1       -2 0.11958175E+00 0.11903844E+04</pdfrwt>
<totfact> 0.36236475E+01</totfact>
</mgrwt>
</event>
<event>
 6    1  0.1773638E-005  0.3104431E+04  0.7818608E-02  0.8214523E-01
         -1   -1    0    0    0  501 -0.00000000000E+00  0.00000000000E+00  0.11129499093E+04  0.11129499093E+04  0.00000000000E+00 0.  1.
          1   -1    0    0  501    0  0.00000000000E+00 -0.00000000000E+00 -0.21648536548E+04  0.21648536548E+04  0.00000000000E+00 0. -1.
         23    2    1    2    0    0  0.10156668137E+04 -0.65761971013E+03  0.49795510301E+03  0.13115621726E+04  0.90516785393E+02 0.  0.
         13    1    3    3    0    0  0.59645559876E+03 -0.36214929995E+03  0.32998623025E+03  0.77188231545E+03  0.00000000000E+00 0.  1.
        -13    1    3    3    0    0  0.41921121492E+03 -0.29547041018E+03  0.16796887275E+03  0.53967985716E+03  0.00000000000E+00 0. -1.
         22    1    1    2    0    0 -0.10156668137E+04  0.65761971013E+03 -0.15498588484E+04  0.19662413915E+04  0.00000000000E+00 0. -1.
<mgrwt>
<rscale>  0 0.31044315E+04</rscale>
<asrwt>0</asrwt>
<pdfrwt beam="1">  1        1 0.33305441E+00 0.31044315E+04</pdfrwt>
<pdfrwt beam="2">  1       -1 0.17122306E+00 0.31044315E+04</pdfrwt>
<totfact> 0.46799685E-01</totfact>
</mgrwt>
</event>
<event>
 6    1  0.1773638E-005  0.9311073E+03  0.7818608E-02  0.9387510E-01
          2   -1    0    0  501    0  0.00000000000E+00  0.00000000000E+00  0.26745805374E+03  0.26745805374E+03  0.00000000000E+00 0. -1.
         -2   -1    0    0    0  501 -0.00000000000E+00 -0.00000000000E+00 -0.81037080540E+03  0.81037080540E+03  0.00000000000E+00 0.  1.
         23    2    1    2    0    0 -0.14940546518E+03  0.42032589422E+03 -0.13163849654E+03  0.47108149549E+03  0.74787908457E+02 0.  0.
         13    1    3    3    0    0 -0.12573499856E+03  0.28815411779E+03 -0.11920699714E+03  0.33623264807E+03  0.00000000000E+00 0.  1.
        -13    1    3    3    0    0 -0.23670466620E+02  0.13217177642E+03 -0.12431499396E+02  0.13484884742E+03  0.00000000000E+00 0. -1.
         22    1    1    2    0    0  0.14940546518E+03 -0.42032589422E+03 -0.41127425512E+03  0.60674736365E+03  0.00000000000E+00 0.  1.
<mgrwt>
<rscale>  0 0.93110729E+03</rscale>
<asrwt>0</asrwt>
<pdfrwt beam="1">  1        2 0.41147393E-01 0.93110729E+03</pdfrwt>
<pdfrwt beam="2">  1       -2 0.12467243E+00 0.93110729E+03</pdfrwt>
<totfact> 0.60312033E+01</totfact>
</mgrwt>
</event>
<event>
 6    1  0.1773638E-005  0.1184180E+04  0.7818608E-02  0.9126817E-01
          2   -1    0    0  501    0  0.00000000000E+00  0.00000000000E+00  0.62579369891E+03  0.62579369891E+03  0.00000000000E+00 0.  1.
         -2   -1    0    0    0  501 -0.00000000000E+00 -0.00000000000E+00 -0.56020195033E+03  0.56020195033E+03  0.00000000000E+00 0. -1.
         23    2    1    2    0    0  0.26587642496E+03  0.49497512534E+03  0.20863161410E+03  0.60621030001E+03  0.90956744593E+02 0.  0.
         11    1    3    3    0    0  0.26024261717E+03  0.42738890508E+03  0.19495654239E+03  0.53702471954E+03  0.00000000000E+00 0. -1.
        -11    1    3    3    0    0  0.56338077894E+01  0.67586220259E+02  0.13675071708E+02  0.69185580472E+02  0.00000000000E+00 0.  1.
         22    1    1    2    0    0 -0.26587642496E+03 -0.49497512534E+03 -0.14303986552E+03  0.57978534923E+03  0.00000000000E+00 0. -1.
<mgrwt>
<rscale>  0 0.11841805E+04</rscale>
<asrwt>0</asrwt>
<pdfrwt beam="1">  1        2 0.96275953E-01 0.11841805E+04</pdfrwt>
<pdfrwt beam="2">  1       -2 0.86184916E-01 0.11841805E+04</pdfrwt>
<totfact> 0.54356504E+01</totfact>
</mgrwt>
</event>
<event>
 6    1  0.1773638E-005  0.1192863E+04  0.7818608E-02  0.9119126E-01
         -2   -1    0    0    0  501 -0.00000000000E+00  0.00000000000E+00  0.50429110733E+03  0.50429110733E+03  0.00000000000E+00 0. -1.
          2   -1    0    0  501    0  0.00000000000E+00 -0.00000000000E+00 -0.70540721087E+03  0.70540721087E+03  0.00000000000E+00 0.  1.
         23    2    1    2    0    0  0.17022305937E+03 -0.13515594520E+03 -0.66057138217E+03  0.70142460008E+03  0.91645508244E+02 0.  0.
         13    1    3    3    0    0  0.75140491890E+02 -0.11411609399E+03 -0.42826465856E+03  0.44953219485E+03  0.00000000000E+00 0. -1.
        -13    1    3    3    0    0  0.95082567479E+02 -0.21039851202E+02 -0.23230672361E+03  0.25189240523E+03  0.00000000000E+00 0.  1.
         22    1    1    2    0    0 -0.17022305937E+03  0.13515594520E+03  0.45945527864E+03  0.50827371812E+03  0.00000000000E+00 0. -1.
<mgrwt>
<rscale>  0 0.11928631E+04</rscale>
<asrwt>0</asrwt>
<pdfrwt beam="1">  1        2 0.10852419E+00 0.11928631E+04</pdfrwt>
<pdfrwt beam="2">  1       -2 0.77583248E-01 0.11928631E+04</pdfrwt>
<totfact> 0.59343718E+01</totfact>
</mgrwt>
</event>
<event>
 6    1  0.1773638E-005  0.2694113E+04  0.7818608E-02  0.8336918E-01
         -1   -1    0    0    0  501 -0.00000000000E+00  0.00000000000E+00  0.57280280132E+03  0.57280280132E+03  0.00000000000E+00 0.  1.
          1   -1    0    0  501    0  0.00000000000E+00 -0.00000000000E+00 -0.31678626140E+04  0.31678626140E+04  0.00000000000E+00 0. -1.
         23    2    1    2    0    0  0.59387443354E+01  0.12236103068E+04 -0.20761000816E+04  0.24115391406E+04  0.89844457149E+02 0.  0.
         13    1    3    3    0    0  0.46307594167E+02  0.50400092239E+03 -0.84533380838E+03  0.98526675100E+03  0.00000000000E+00 0. -1.
        -13    1    3    3    0    0 -0.40368849832E+02  0.71960938438E+03 -0.12307662732E+04  0.14262723896E+04  0.00000000000E+00 0.  1.
         22    1    1    2    0    0 -0.59387443354E+01 -0.12236103068E+04 -0.51895973107E+03  0.13291262747E+04  0.00000000000E+00 0.  1.
<mgrwt>
<rscale>  0 0.26941125E+04</rscale>
<asrwt>0</asrwt>
<pdfrwt beam="1">  1        1 0.48736348E+00 0.26941125E+04</pdfrwt>
<pdfrwt beam="2">  1       -1 0.88123508E-01 0.26941125E+04</pdfrwt>
<totfact> 0.49647641E-01</totfact>
</mgrwt>
</event>
<event>
 6    1  0.1773638E-005  0.2990021E+04  0.7818608E-02  0.8246586E-01
          1   -1    0    0  501    0  0.00000000000E+00  0.00000000000E+00  0.30989374600E+04  0.30989374600E+04  0.00000000000E+00 0. -1.
         -1   -1    0    0    0  501 -0.00000000000E+00 -0.00000000000E+00 -0.72123306850E+03  0.72123306850E+03  0.00000000000E+00 0.  1.
         23    2    1    2    0    0 -0.77630331105E+03 -0.74935063215E+03 -0.13030110341E+03  0.10899205833E+04  0.82312208999E+02 0.  0.
         13    1    3    3    0    0 -0.45138089749E+03 -0.48823561681E+03 -0.66715759559E+02  0.66825872588E+03  0.00000000000E+00 0. -1.
        -13    1    3    3    0    0 -0.32492241357E+03 -0.26111501534E+03 -0.63585343852E+02  0.42166185745E+03  0.00000000000E+00 0.  1.
         22    1    1    2    0    0  0.77630331105E+03  0.74935063215E+03  0.25080054949E+04  0.27302499452E+04  0.00000000000E+00 0. -1.
<mgrwt>
<rscale>  0 0.29900209E+04</rscale>
<asrwt>0</asrwt>
<pdfrwt beam="1">  1        1 0.47675960E+00 0.29900209E+04</pdfrwt>
<pdfrwt beam="2">  1       -1 0.11095894E+00 0.29900209E+04</pdfrwt>
<totfact> 0.32170328E-01</totfact>
</mgrwt>
</event>
<event>
 6    1  0.1773638E-005  0.2485197E+04  0.7818608E-02  0.8408278E-01
          2   -1    0    0  501    0  0.00000000000E+00  0.00000000000E+00  0.23144214706E+04  0.23144214706E+04  0.00000000000E+00 0. -1.
         -2   -1    0    0    0  501 -0.00000000000E+00 -0.00000000000E+00 -0.66714349715E+03  0.66714349715E+03  0.00000000000E+00 0.  1.
         23    2    1    2    0    0  0.25506132916E+03 -0.58651185351E+03  0.21005628585E+04  0.21976519478E+04  0.90869825813E+02 0.  0.
         13    1    3    3    0    0  0.23347017424E+03 -0.57585804780E+03  0.20036209338E+04  0.20977649200E+04  0.00000000000E+00 0.  1.
        -13    1    3    3    0    0  0.21591154925E+02 -0.10653805708E+02  0.96941924730E+02  0.99887027773E+02  0.00000000000E+00 0. -1.
         22    1    1    2    0    0 -0.25506132916E+03  0.58651185351E+03 -0.45328488500E+03  0.78391301999E+03  0.00000000000E+00 0.  1.
<mgrwt>
<rscale>  0 0.24851972E+04</rscale>
<asrwt>0</asrwt>
<pdfrwt beam="1">  1        2 0.35606484E+00 0.24851972E+04</pdfrwt>
<pdfrwt beam="2">  1       -2 0.10263746E+00 0.24851972E+04</pdfrwt>
<totfact> 0.30835068E+00</totfact>
</mgrwt>
</event>
<event>
 6    1  0.1773638E-005  0.1325681E+04  0.7818608E-02  0.9009444E-01
          3   -1    0    0  501    0  0.00000000000E+00  0.00000000000E+00  0.95731605320E+03  0.95731605320E+03  0.00000000000E+00 0. -1.
         -3   -1    0    0    0  501 -0.00000000000E+00 -0.00000000000E+00 -0.45894721444E+03  0.45894721444E+03  0.00000000000E+00 0.  1.
         23    2    1    2    0    0 -0.21347860838E+03  0.15731374379E+03 -0.39498419803E+03  0.48438324395E+03  0.91070742304E+02 0.  0.
         11    1    3    3    0    0 -0.17043813104E+03  0.14657803415E+03 -0.37142691612E+03  0.43415691936E+03  0.00000000000E+00 0.  1.
        -11    1    3    3    0    0 -0.43040477339E+02  0.10735709647E+02 -0.23557281912E+02  0.50226324594E+02  0.00000000000E+00 0. -1.
         22    1    1    2    0    0  0.21347860838E+03 -0.15731374379E+03  0.89335303679E+03  0.93188002370E+03  0.00000000000E+00 0. -1.
<mgrwt>
<rscale>  0 0.13256810E+04</rscale>
<asrwt>0</asrwt>
<pdfrwt beam="1">  1        3 0.14727939E+00 0.13256810E+04</pdfrwt>
<pdfrwt beam="2">  1       -3 0.70607264E-01 0.13256810E+04</pdfrwt>
<totfact> 0.16656698E+00</totfact>
</mgrwt>
</event>
<event>
 6    1  0.1773638E-005  0.3305717E+04  0.7818608E-02  0.8161442E-01
         -1   -1    0    0    0  501 -0.00000000000E+00  0.00000000000E+00  0.15653666473E+04  0.15653666473E+04  0.00000000000E+00 0.  1.
          1   -1    0    0  501    0  0.00000000000E+00 -0.00000000000E+00 -0.17452409512E+04  0.17452409512E+04  0.00000000000E+00 0. -1.
         23    2    1    2    0    0  0.14786922456E+04  0.60337896268E+03 -0.51075753035E+03  0.16796322340E+04  0.98459417841E+02 0.  0.
         13    1    3    3    0    0  0.88157658613E+03  0.31755873496E+03 -0.32944085922E+03  0.99325329453E+03  0.00000000000E+00 0. -1.
        -13    1    3    3    0    0  0.59711565949E+03  0.28582022772E+03 -0.18131667113E+03  0.68637893952E+03  0.00000000000E+00 0.  1.
         22    1    1    2    0    0 -0.14786922456E+04 -0.60337896268E+03  0.33088322640E+03  0.16309753644E+04  0.00000000000E+00 0. -1.
<mgrwt>
<rscale>  0 0.33057175E+04</rscale>
<asrwt>0</asrwt>
<pdfrwt beam="1">  1        1 0.26849861E+00 0.33057175E+04</pdfrwt>
<pdfrwt beam="2">  1       -1 0.24082564E+00 0.33057175E+04</pdfrwt>
<totfact> 0.29474242E-01</totfact>
</mgrwt>
</event>
<event>
 6    1  0.1773638E-005  0.2767427E+04  0.7818608E-02  0.8313453E-01
         -1   -1    0    0    0  501 -0.00000000000E+00  0.00000000000E+00  0.11855922146E+04  0.11855922146E+04  0.00000000000E+00 0.  1.
          1   -1    0    0  501    0  0.00000000000E+00 -0.00000000000E+00 -0.16149420418E+04  0.16149420418E+04  0.00000000000E+00 0. -1.
         23    2    1    2    0    0 -0.35859734904E+03  0.11725651020E+04 -0.86061151872E+03  0.15007313392E+04  0.89673792183E+02 0.  0.
         11    1    3    3    0    0 -0.24655121046E+03  0.68414019487E+03 -0.47781690046E+03  0.87014038866E+03  0.00000000000E+00 0. -1.
        -11    1    3    3    0    0 -0.11204613858E+03  0.48842490714E+03 -0.38279461826E+03  0.63059095050E+03  0.00000000000E+00 0.  1.
         22    1    1    2    0    0  0.35859734904E+03 -0.11725651020E+04  0.43126169155E+03  0.12998029173E+04  0.00000000000E+00 0.  1.
<mgrwt>
<rscale>  0 0.27674268E+04</rscale>
<asrwt>0</asrwt>
<pdfrwt beam="1">  1        1 0.24845262E+00 0.27674268E+04</pdfrwt>
<pdfrwt beam="2">  1       -1 0.18239880E+00 0.27674268E+04</pdfrwt>
<totfact> 0.94642452E-01</totfact>
</mgrwt>
</event>
<event>
 6    1  0.1773638E-005  0.5786368E+04  0.7818608E-02  0.7717469E-01
         -2   -1    0    0    0  501 -0.00000000000E+00  0.00000000000E+00  0.22878307383E+04  0.22878307383E+04  0.00000000000E+00 0. -1.
          2   -1    0    0  501    0  0.00000000000E+00 -0.00000000000E+00 -0.36587116184E+04  0.36587116184E+04  0.00000000000E+00 0.  1.
         23    2    1    2    0    0 -0.83130488825E+03 -0.15671528936E+04  0.16621806241E+04  0.24327839562E+04  0.92505900253E+02 0.  0.
         13    1    3    3    0    0 -0.59120706682E+03 -0.11985638205E+04  0.12594191866E+04  0.18363599090E+04  0.00000000000E+00 0.  1.
        -13    1    3    3    0    0 -0.24009782143E+03 -0.36858907311E+03  0.40276143744E+03  0.59642404727E+03  0.00000000000E+00 0. -1.
         22    1    1    2    0    0  0.83130488825E+03  0.15671528936E+04 -0.30330615041E+04  0.35137584005E+04  0.00000000000E+00 0.  1.
<mgrwt>
<rscale>  0 0.57863677E+04</rscale>
<asrwt>0</asrwt>
<pdfrwt beam="1">  1        2 0.56287870E+00 0.57863677E+04</pdfrwt>
<pdfrwt beam="2">  1       -2 0.35197396E+00 0.57863677E+04</pdfrwt>
<totfact> 0.64575640E-03</totfact>
</mgrwt>
</event>
<event>
 6    1  0.1773638E-005  0.3593985E+04  0.7818608E-02  0.8091871E-01
          2   -1    0    0  501    0  0.00000000000E+00  0.00000000000E+00  0.38095720741E+04  0.38095720741E+04  0.00000000000E+00 0. -1.
         -2   -1    0    0    0  501 -0.00000000000E+00 -0.00000000000E+00 -0.84764946891E+03  0.84764946891E+03  0.00000000000E+00 0.  1.
         23    2    1    2    0    0 -0.60620335119E+03 -0.11098582561E+04 -0.17030291936E+03  0.12793369108E+04  0.91825897180E+02 0.  0.
         11    1    3    3    0    0 -0.40595628985E+03 -0.71077595927E+03 -0.15148672890E+03  0.83243690606E+03  0.00000000000E+00 0.  1.
        -11    1    3    3    0    0 -0.20024706134E+03 -0.39908229685E+03 -0.18816190458E+02  0.44690000476E+03  0.00000000000E+00 0. -1.
         22    1    1    2    0    0  0.60620335119E+03  0.11098582561E+04  0.31322255245E+04  0.33778846322E+04  0.00000000000E+00 0. -1.
<mgrwt>
<rscale>  0 0.35939848E+04</rscale>
<asrwt>0</asrwt>
<pdfrwt beam="1">  1        2 0.58608800E+00 0.35939848E+04</pdfrwt>
<pdfrwt beam="2">  1       -2 0.13040761E+00 0.35939848E+04</pdfrwt>
<totfact> 0.16927090E-01</totfact>
</mgrwt>
</event>
<event>
 6    1  0.1773638E-005  0.7270394E+03  0.7818608E-02  0.9672077E-01
          2   -1    0    0  501    0  0.00000000000E+00  0.00000000000E+00  0.80779364438E+03  0.80779364438E+03  0.00000000000E+00 0.  1.
         -2   -1    0    0    0  501 -0.00000000000E+00 -0.00000000000E+00 -0.16358953645E+03  0.16358953645E+03  0.00000000000E+00 0. -1.
         23    2    1    2    0    0 -0.23859162558E+03 -0.19762267676E+03  0.87232756125E+02  0.33404671327E+03  0.89425761030E+02 0.  0.
         13    1    3    3    0    0 -0.19151931572E+03 -0.14948056199E+03  0.10460384343E+03  0.26451096531E+03  0.00000000000E+00 0. -1.
        -13    1    3    3    0    0 -0.47072309861E+02 -0.48142114766E+02 -0.17371087307E+02  0.69535747957E+02  0.00000000000E+00 0.  1.
         22    1    1    2    0    0  0.23859162558E+03  0.19762267676E+03  0.55697135180E+03  0.63733646756E+03  0.00000000000E+00 0.  1.
<mgrwt>
<rscale>  0 0.72703944E+03</rscale>
<asrwt>0</asrwt>
<pdfrwt beam="1">  1        2 0.12427594E+00 0.72703944E+03</pdfrwt>
<pdfrwt beam="2">  1       -2 0.25167622E-01 0.72703944E+03</pdfrwt>
<totfact> 0.48427033E+02</totfact>
</mgrwt>
</event>
<event>
 6    1  0.2700161E-005  0.4235680E+04  0.7818608E-02  0.7958620E-01
         -2   -1    0    0    0  501 -0.00000000000E+00  0.00000000000E+00  0.19264957897E+04  0.19264957897E+04  0.00000000000E+00 0.  1.
          2   -1    0    0  501    0  0.00000000000E+00 -0.00000000000E+00 -0.23281885425E+04  0.23281885425E+04  0.00000000000E+00 0. -1.
         23    2    1    2    0    0 -0.13806198685E+04  0.13396237178E+04  0.68643537581E+03  0.20445427642E+04  0.90877186175E+02 0.  0.
         11    1    3    3    0    0 -0.87515916424E+03  0.79507428732E+03  0.39899563249E+03  0.12478959091E+04  0.00000000000E+00 0. -1.
        -11    1    3    3    0    0 -0.50546070422E+03  0.54454943046E+03  0.28743974332E+03  0.79664685511E+03  0.00000000000E+00 0.  1.
         22    1    1    2    0    0  0.13806198685E+04 -0.13396237178E+04 -0.10881281286E+04  0.22101415680E+04  0.00000000000E+00 0. -1.
<mgrwt>
<rscale>  0 0.42356796E+04</rscale>
<asrwt>0</asrwt>
<pdfrwt beam="1">  1        2 0.35818285E+00 0.42356796E+04</pdfrwt>
<pdfrwt beam="2">  1       -2 0.29638397E+00 0.42356796E+04</pdfrwt>
<totfact> 0.11311738E-01</totfact>
</mgrwt>
</event>
<event>
 6    1  0.1773638E-005  0.3737104E+04  0.7818608E-02  0.8059789E-01
          2   -1    0    0  501    0  0.00000000000E+00  0.00000000000E+00  0.23959809025E+04  0.23959809025E+04  0.00000000000E+00 0. -1.
         -2   -1    0    0    0  501 -0.00000000000E+00 -0.00000000000E+00 -0.14572264145E+04  0.14572264145E+04  0.00000000000E+00 0.  1.
         23    2    1    2    0    0 -0.13509164380E+04  0.11161159583E+03 -0.85475220479E+03  0.16050750638E+04  0.90731791399E+02 0.  0.
         11    1    3    3    0    0 -0.73985309263E+02 -0.14554681140E+02 -0.47252332692E+02  0.88985659938E+02  0.00000000000E+00 0.  1.
        -11    1    3    3    0    0 -0.12769311288E+04  0.12616627697E+03 -0.80749987210E+03  0.15160894039E+04  0.00000000000E+00 0. -1.
         22    1    1    2    0    0  0.13509164380E+04 -0.11161159583E+03  0.17935066928E+04  0.22481322532E+04  0.00000000000E+00 0. -1.
<mgrwt>
<rscale>  0 0.37371040E+04</rscale>
<asrwt>0</asrwt>
<pdfrwt beam="1">  1        2 0.36861245E+00 0.37371040E+04</pdfrwt>
<pdfrwt beam="2">  1       -2 0.22418868E+00 0.37371040E+04</pdfrwt>
<totfact> 0.29953538E-01</totfact>
</mgrwt>
</event>
<event>
 6    1  0.1773638E-005  0.1613652E+04  0.7818608E-02  0.8812204E-01
          1   -1    0    0  501    0  0.00000000000E+00  0.00000000000E+00  0.81431243953E+03  0.81431243953E+03  0.00000000000E+00 0. -1.
         -1   -1    0    0    0  501 -0.00000000000E+00 -0.00000000000E+00 -0.79940887300E+03  0.79940887300E+03  0.00000000000E+00 0.  1.
         23    2    1    2    0    0 -0.12435015474E+03 -0.10049749893E+03 -0.78075930955E+03  0.80215361934E+03  0.91118720854E+02 0.  0.
         13    1    3    3    0    0 -0.11253394792E+03 -0.48038808640E+02 -0.42179555408E+03  0.43918459219E+03  0.00000000000E+00 0. -1.
        -13    1    3    3    0    0 -0.11816206818E+02 -0.52458690294E+02 -0.35896375547E+03  0.36296902715E+03  0.00000000000E+00 0.  1.
         22    1    1    2    0    0  0.12435015474E+03  0.10049749893E+03  0.79566287607E+03  0.81156769319E+03  0.00000000000E+00 0. -1.
<mgrwt>
<rscale>  0 0.16136525E+04</rscale>
<asrwt>0</asrwt>
<pdfrwt beam="1">  1        1 0.12527884E+00 0.16136525E+04</pdfrwt>
<pdfrwt beam="2">  1       -1 0.12298598E+00 0.16136525E+04</pdfrwt>
<totfact> 0.12001826E+01</totfact>
</mgrwt>
</event>
<event>
 6    1  0.1773638E-005  0.3574993E+04  0.7818608E-02  0.8096244E-01
         -2   -1    0    0    0  501 -0.00000000000E+00  0.00000000000E+00  0.98044484610E+03  0.98044484610E+03  0.00000000000E+00 0.  1.
          2   -1    0    0  501    0  0.00000000000E+00 -0.00000000000E+00 -0.32588720242E+04  0.32588720242E+04  0.00000000000E+00 0. -1.
         23    2    1    2    0    0  0.10208932124E+04  0.85871959843E+03  0.26890998048E+03  0.13638084110E+04  0.89657707351E+02 0.  0.
         13    1    3    3    0    0  0.27706591023E+03  0.18281926965E+03  0.62181117837E+02  0.33772014359E+03  0.00000000000E+00 0.  1.
        -13    1    3    3    0    0  0.74382730217E+03  0.67590032878E+03  0.20672886264E+03  0.10260882674E+04  0.00000000000E+00 0. -1.
         22    1    1    2    0    0 -0.10208932124E+04 -0.85871959843E+03 -0.25473371586E+04  0.28755084593E+04  0.00000000000E+00 0. -1.
<mgrwt>
<rscale>  0 0.35749933E+04</rscale>
<asrwt>0</asrwt>
<pdfrwt beam="1">  1        2 0.50136492E+00 0.35749933E+04</pdfrwt>
<pdfrwt beam="2">  1       -2 0.15083767E+00 0.35749933E+04</pdfrwt>
<totfact> 0.28566987E-01</totfact>
</mgrwt>
</event>
<event>
 6    1  0.1773638E-005  0.4171784E+04  0.7818608E-02  0.7970761E-01
         -1   -1    0    0    0  501 -0.00000000000E+00  0.00000000000E+00  0.40418902119E+04  0.40418902119E+04  0.00000000000E+00 0.  1.
          1   -1    0    0  501    0  0.00000000000E+00 -0.00000000000E+00 -0.10764632934E+04  0.10764632934E+04  0.00000000000E+00 0. -1.
         23    2    1    2    0    0  0.16250687551E+04  0.90383687535E+03  0.32660626116E+03  0.18901738298E+04  0.91191563548E+02 0.  0.
         13    1    3    3    0    0  0.25920063912E+03  0.10804472120E+03  0.57578695209E+02  0.28665997147E+03  0.00000000000E+00 0.  1.
        -13    1    3    3    0    0  0.13658681159E+04  0.79579215415E+03  0.26902756595E+03  0.16035138584E+04  0.00000000000E+00 0. -1.
         22    1    1    2    0    0 -0.16250687551E+04 -0.90383687535E+03  0.26388206573E+04  0.32281796755E+04  0.00000000000E+00 0.  1.
<mgrwt>
<rscale>  0 0.41717845E+04</rscale>
<asrwt>0</asrwt>
<pdfrwt beam="1">  1        1 0.16560974E+00 0.41717845E+04</pdfrwt>
<pdfrwt beam="2">  1       -1 0.62182926E+00 0.41717845E+04</pdfrwt>
<totfact> 0.37273155E-03</totfact>
</mgrwt>
</event>
<event>
 6    1  0.1773638E-005  0.5679599E+04  0.7818608E-02  0.7731448E-01
          2   -1    0    0  501    0  0.00000000000E+00  0.00000000000E+00  0.46652824387E+04  0.46652824387E+04  0.00000000000E+00 0. -1.
         -2   -1    0    0    0  501 -0.00000000000E+00 -0.00000000000E+00 -0.17286116088E+04  0.17286116088E+04  0.00000000000E+00 0.  1.
         23    2    1    2    0    0  0.22499251391E+04 -0.55572986095E+02 -0.47894446460E+03  0.23034565002E+04  0.10617230998E+03 0.  0.
         13    1    3    3    0    0  0.16809031026E+04 -0.87485649936E+02 -0.35359174810E+03  0.17199174700E+04  0.00000000000E+00 0. -1.
        -13    1    3    3    0    0  0.56902203657E+03  0.31912663841E+02 -0.12535271649E+03  0.58353903018E+03  0.00000000000E+00 0.  1.
         22    1    1    2    0    0 -0.22499251391E+04  0.55572986095E+02  0.34156152945E+04  0.40904375473E+04  0.00000000000E+00 0. -1.
<mgrwt>
<rscale>  0 0.56795991E+04</rscale>
<asrwt>0</asrwt>
<pdfrwt beam="1">  1        2 0.71773575E+00 0.56795991E+04</pdfrwt>
<pdfrwt beam="2">  1       -2 0.26594025E+00 0.56795991E+04</pdfrwt>
<totfact> 0.29182024E-03</totfact>
</mgrwt>
</event>
<event>
 6    1  0.1773638E-005  0.1227733E+04  0.7818608E-02  0.9088923E-01
          2   -1    0    0  501    0  0.00000000000E+00  0.00000000000E+00  0.55775911339E+03  0.55775911339E+03  0.00000000000E+00 0. -1.
         -2   -1    0    0    0  501 -0.00000000000E+00 -0.00000000000E+00 -0.67561767502E+03  0.67561767502E+03  0.00000000000E+00 0.  1.
         23    2    1    2    0    0  0.54336512268E+03  0.27130272307E+03 -0.87289477666E+01  0.61631917626E+03  0.10450984838E+03 0.  0.
         11    1    3    3    0    0  0.29855291665E+03  0.90785055205E+02 -0.10883750861E+01  0.31205280779E+03  0.00000000000E+00 0.  1.
        -11    1    3    3    0    0  0.24481220603E+03  0.18051766787E+03 -0.76405726805E+01  0.30426636848E+03  0.00000000000E+00 0. -1.
         22    1    1    2    0    0 -0.54336512268E+03 -0.27130272307E+03 -0.10912961387E+03  0.61705761215E+03  0.00000000000E+00 0.  1.
<mgrwt>
<rscale>  0 0.12277327E+04</rscale>
<asrwt>0</asrwt>
<pdfrwt beam="1">  1        2 0.85809095E-01 0.12277327E+04</pdfrwt>
<pdfrwt beam="2">  1       -2 0.10394118E+00 0.12277327E+04</pdfrwt>
<totfact> 0.40171837E+01</totfact>
</mgrwt>
</event>
<event>
 6    1  0.1773638E-005  0.1648381E+04  0.7818608E-02  0.8791365E-01
         -2   -1    0    0    0  501 -0.00000000000E+00  0.00000000000E+00  0.28263235041E+03  0.28263235041E+03  0.00000000000E+00 0. -1.
          2   -1    0    0  501    0  0.00000000000E+00 -0.00000000000E+00 -0.24034402504E+04  0.24034402504E+04  0.00000000000E+00 0.  1.
         23    2    1    2    0    0  0.62777620986E+03  0.28903353165E+03 -0.33932058769E+03  0.77522451789E+03  0.90505468516E+02 0.  0.
         13    1    3    3    0    0  0.23406185073E+03  0.14053930064E+03 -0.17021623378E+03  0.32172940685E+03  0.00000000000E+00 0. -1.
        -13    1    3    3    0    0  0.39371435913E+03  0.14849423100E+03 -0.16910435391E+03  0.45349511104E+03  0.00000000000E+00 0.  1.
         22    1    1    2    0    0 -0.62777620986E+03 -0.28903353165E+03 -0.17814873123E+04  0.19108480829E+04  0.00000000000E+00 0. -1.
<mgrwt>
<rscale>  0 0.16483810E+04</rscale>
<asrwt>0</asrwt>
<pdfrwt beam="1">  1        2 0.36976004E+00 0.16483810E+04</pdfrwt>
<pdfrwt beam="2">  1       -2 0.43481900E-01 0.16483810E+04</pdfrwt>
<totfact> 0.18989204E+01</totfact>
</mgrwt>
</event>
<event>
 6    1  0.1773638E-005  0.2042541E+04  0.7818608E-02  0.8586986E-01
          2   -1    0    0  501    0  0.00000000000E+00  0.00000000000E+00  0.21972117265E+04  0.21972117265E+04  0.00000000000E+00 0. -1.
         -2   -1    0    0    0  501 -0.00000000000E+00 -0.00000000000E+00 -0.47468951645E+03  0.47468951645E+03  0.00000000000E+00 0.  1.
         23    2    1    2    0    0 -0.53255435301E+03 -0.85523329650E+03  0.66091199012E+03  0.12083253517E+04  0.90594517300E+02 0.  0.
         13    1    3    3    0    0 -0.20406162230E+03 -0.27835863257E+03  0.26741618930E+03  0.43661893262E+03  0.00000000000E+00 0. -1.
        -13    1    3    3    0    0 -0.32849273070E+03 -0.57687466393E+03  0.39349580082E+03  0.77170641910E+03  0.00000000000E+00 0.  1.
         22    1    1    2    0    0  0.53255435301E+03  0.85523329650E+03  0.10616102200E+04  0.14635758913E+04  0.00000000000E+00 0.  1.
<mgrwt>
<rscale>  0 0.20425409E+04</rscale>
<asrwt>0</asrwt>
<pdfrwt beam="1">  1        2 0.33803257E+00 0.20425409E+04</pdfrwt>
<pdfrwt beam="2">  1       -2 0.73029158E-01 0.20425409E+04</pdfrwt>
<totfact> 0.81269773E+00</totfact>
</mgrwt>
</event>
<event>
 6    1  0.1773638E-005  0.1830674E+04  0.7818608E-02  0.8690155E-01
         -2   -1    0    0    0  501 -0.00000000000E+00  0.00000000000E+00  0.31548835405E+03  0.31548835405E+03  0.00000000000E+00 0.  1.
          2   -1    0    0  501    0  0.00000000000E+00 -0.00000000000E+00 -0.26556988714E+04  0.26556988714E+04  0.00000000000E+00 0. -1.
         23    2    1    2    0    0  0.48850407340E+03 -0.16902876904E+03 -0.23945414190E+04  0.24514191989E+04  0.91763431295E+02 0.  0.
         13    1    3    3    0    0  0.62753978176E+02  0.22151112972E+01 -0.20944190166E+03  0.21865241518E+03  0.00000000000E+00 0. -1.
        -13    1    3    3    0    0  0.42575009522E+03 -0.17124388033E+03 -0.21850995173E+04  0.22327667838E+04  0.00000000000E+00 0.  1.
         22    1    1    2    0    0 -0.48850407340E+03  0.16902876904E+03  0.54330901633E+02  0.51976802649E+03  0.00000000000E+00 0.  1.
<mgrwt>
<rscale>  0 0.18306743E+04</rscale>
<asrwt>0</asrwt>
<pdfrwt beam="1">  1        2 0.40856906E+00 0.18306743E+04</pdfrwt>
<pdfrwt beam="2">  1       -2 0.48536669E-01 0.18306743E+04</pdfrwt>
<totfact> 0.10700522E+01</totfact>
</mgrwt>
</event>
<event>
 6    1  0.1773638E-005  0.1534039E+04  0.7818608E-02  0.8862128E-01
          2   -1    0    0  501    0  0.00000000000E+00  0.00000000000E+00  0.13100592886E+04  0.13100592886E+04  0.00000000000E+00 0. -1.
         -2   -1    0    0    0  501 -0.00000000000E+00 -0.00000000000E+00 -0.44907815893E+03  0.44907815893E+03  0.00000000000E+00 0.  1.
         23    2    1    2    0    0  0.55151999557E+03 -0.24639621661E+03 -0.10496076434E+03  0.61987051495E+03  0.91308773891E+02 0.  0.
         11    1    3    3    0    0  0.46242236651E+03 -0.22376168181E+03 -0.58997041337E+02  0.51709224147E+03  0.00000000000E+00 0. -1.
        -11    1    3    3    0    0  0.89097629053E+02 -0.22634534794E+02 -0.45963723005E+02  0.10277827349E+03  0.00000000000E+00 0.  1.
         22    1    1    2    0    0 -0.55151999557E+03  0.24639621661E+03  0.96594189404E+03  0.11392669326E+04  0.00000000000E+00 0. -1.
<mgrwt>
<rscale>  0 0.15340391E+04</rscale>
<asrwt>0</asrwt>
<pdfrwt beam="1">  1        2 0.20154758E+00 0.15340391E+04</pdfrwt>
<pdfrwt beam="2">  1       -2 0.69088948E-01 0.15340391E+04</pdfrwt>
<totfact> 0.30066707E+01</totfact>
</mgrwt>
</event>
<event>
 6    1  0.1773638E-005  0.1428825E+04  0.7818608E-02  0.8933214E-01
          2   -1    0    0  501    0  0.00000000000E+00  0.00000000000E+00  0.10133886380E+04  0.10133886380E+04  0.00000000000E+00 0. -1.
         -2   -1    0    0    0  501 -0.00000000000E+00 -0.00000000000E+00 -0.50364236213E+03  0.50364236213E+03  0.00000000000E+00 0.  1.
         23    2    1    2    0    0  0.36864917931E+03  0.34728584807E+03 -0.27462643200E+03  0.58335534845E+03  0.91510150998E+02 0.  0.
         11    1    3    3    0    0  0.24927351343E+03  0.28937184353E+03 -0.20745705556E+03  0.43463982587E+03  0.00000000000E+00 0. -1.
        -11    1    3    3    0    0  0.11937566588E+03  0.57914004538E+02 -0.67169376441E+02  0.14871552258E+03  0.00000000000E+00 0.  1.
         22    1    1    2    0    0 -0.36864917931E+03 -0.34728584807E+03  0.78437270791E+03  0.93367565171E+03  0.00000000000E+00 0. -1.
<mgrwt>
<rscale>  0 0.14288253E+04</rscale>
<asrwt>0</asrwt>
<pdfrwt beam="1">  1        2 0.15590594E+00 0.14288253E+04</pdfrwt>
<pdfrwt beam="2">  1       -2 0.77483440E-01 0.14288253E+04</pdfrwt>
<totfact> 0.35628833E+01</totfact>
</mgrwt>
</event>
<event>
 6    1  0.1773638E-005  0.3312159E+04  0.7818608E-02  0.8159809E-01
          2   -1    0    0  501    0  0.00000000000E+00  0.00000000000E+00  0.24128898310E+04  0.24128898310E+04  0.00000000000E+00 0. -1.
         -2   -1    0    0    0  501 -0.00000000000E+00 -0.00000000000E+00 -0.11366447697E+04  0.11366447697E+04  0.00000000000E+00 0.  1.
         23    2    1    2    0    0 -0.15086147031E+04 -0.30907715231E+03  0.12877585458E+04  0.20095412342E+04  0.92124325354E+02 0.  0.
         13    1    3    3    0    0 -0.13603678994E+04 -0.26578837639E+03  0.11893343053E+04  0.18264064095E+04  0.00000000000E+00 0. -1.
        -13    1    3    3    0    0 -0.14824680367E+03 -0.43288775924E+02  0.98424240464E+02  0.18313482473E+03  0.00000000000E+00 0.  1.
         22    1    1    2    0    0  0.15086147031E+04  0.30907715231E+03 -0.11513484421E+02  0.15399933665E+04  0.00000000000E+00 0.  1.
<mgrwt>
<rscale>  0 0.33121586E+04</rscale>
<asrwt>0</asrwt>
<pdfrwt beam="1">  1        2 0.37121382E+00 0.33121586E+04</pdfrwt>
<pdfrwt beam="2">  1       -2 0.17486843E+00 0.33121586E+04</pdfrwt>
<totfact> 0.64203098E-01</totfact>
</mgrwt>
</event>
<event>
 6    1  0.1773638E-005  0.2859677E+04  0.7818608E-02  0.8284977E-01
         -1   -1    0    0    0  501 -0.00000000000E+00  0.00000000000E+00  0.87372433054E+03  0.87372433054E+03  0.00000000000E+00 0.  1.
          1   -1    0    0  501    0  0.00000000000E+00 -0.00000000000E+00 -0.23399120531E+04  0.23399120531E+04  0.00000000000E+00 0. -1.
         23    2    1    2    0    0  0.15374035508E+03  0.76946558750E+03 -0.20751023273E+04  0.22204141612E+04  0.92065149479E+02 0.  0.
         13    1    3    3    0    0  0.36475960059E+02  0.25639338004E+03 -0.57386504780E+03  0.62959443619E+03  0.00000000000E+00 0. -1.
        -13    1    3    3    0    0  0.11726439502E+03  0.51307220746E+03 -0.15012372795E+04  0.15908197251E+04  0.00000000000E+00 0.  1.
         22    1    1    2    0    0 -0.15374035508E+03 -0.76946558750E+03  0.60891460474E+03  0.99322222236E+03  0.00000000000E+00 0.  1.
<mgrwt>
<rscale>  0 0.28596770E+04</rscale>
<asrwt>0</asrwt>
<pdfrwt beam="1">  1        1 0.35998646E+00 0.28596770E+04</pdfrwt>
<pdfrwt beam="2">  1       -1 0.13441913E+00 0.28596770E+04</pdfrwt>
<totfact> 0.70079715E-01</totfact>
</mgrwt>
</event>
<event>
 6    1  0.1773638E-005  0.1094164E+04  0.7818608E-02  0.9210899E-01
         -1   -1    0    0    0  501 -0.00000000000E+00  0.00000000000E+00  0.38248400966E+03  0.38248400966E+03  0.00000000000E+00 0.  1.
          1   -1    0    0  501    0  0.00000000000E+00 -0.00000000000E+00 -0.78251295438E+03  0.78251295438E+03  0.00000000000E+00 0. -1.
         23    2    1    2    0    0  0.43684440030E+03  0.99916350313E+02  0.12523938587E+03  0.47454557092E+03  0.93232440571E+02 0.  0.
         11    1    3    3    0    0  0.17430101256E+02  0.21135089879E+02  0.22877868829E+02  0.35691698420E+02  0.00000000000E+00 0.  1.
        -11    1    3    3    0    0  0.41941429904E+03  0.78781260435E+02  0.10236151704E+03  0.43885387250E+03  0.00000000000E+00 0. -1.
         22    1    1    2    0    0 -0.43684440030E+03 -0.99916350313E+02 -0.52526833059E+03  0.69045139312E+03  0.00000000000E+00 0. -1.
<mgrwt>
<rscale>  0 0.10941640E+04</rscale>
<asrwt>0</asrwt>
<pdfrwt beam="1">  1        1 0.12038661E+00 0.10941640E+04</pdfrwt>
<pdfrwt beam="2">  1       -1 0.58843694E-01 0.10941640E+04</pdfrwt>
<totfact> 0.66839435E+01</totfact>
</mgrwt>
</event>
<event>
 6    1  0.1773638E-005  0.3358797E+04  0.7818608E-02  0.8148094E-01
          2   -1    0    0  501    0  0.00000000000E+00  0.00000000000E+00  0.39743332917E+04  0.39743332917E+04  0.00000000000E+00 0.  1.
         -2   -1    0    0    0  501 -0.00000000000E+00 -0.00000000000E+00 -0.70964845589E+03  0.70964845589E+03  0.00000000000E+00 0. -1.
         23    2    1    2    0    0 -0.12145523709E+04 -0.10047020441E+04  0.83409023916E+03  0.17870258017E+04  0.11485220925E+03 0.  0.
         13    1    3    3    0    0 -0.73642396556E+03 -0.60262662705E+03  0.56633998043E+03  0.11073482208E+04  0.00000000000E+00 0. -1.
        -13    1    3    3    0    0 -0.47812840529E+03 -0.40207541707E+03  0.26775025873E+03  0.67967758092E+03  0.00000000000E+00 0.  1.
         22    1    1    2    0    0  0.12145523709E+04  0.10047020441E+04  0.24305945967E+04  0.28969559459E+04  0.00000000000E+00 0.  1.
<mgrwt>
<rscale>  0 0.33587971E+04</rscale>
<asrwt>0</asrwt>
<pdfrwt beam="1">  1        2 0.61143588E+00 0.33587971E+04</pdfrwt>
<pdfrwt beam="2">  1       -2 0.10917669E+00 0.33587971E+04</pdfrwt>
<totfact> 0.19912201E-01</totfact>
</mgrwt>
</event>
<event>
 6    1  0.1773638E-005  0.5538485E+04  0.7818608E-02  0.7750416E-01
         -2   -1    0    0    0  501 -0.00000000000E+00  0.00000000000E+00  0.24588804799E+04  0.24588804799E+04  0.00000000000E+00 0.  1.
          2   -1    0    0  501    0  0.00000000000E+00 -0.00000000000E+00 -0.31187782340E+04  0.31187782340E+04  0.00000000000E+00 0. -1.
         23    2    1    2    0    0  0.56592263631E+03  0.12938390555E+04  0.20680836681E+04  0.25058236645E+04  0.88849577995E+02 0.  0.
         13    1    3    3    0    0  0.15330117936E+03  0.26506727491E+03  0.47069971622E+03  0.56153373422E+03  0.00000000000E+00 0. -1.
        -13    1    3    3    0    0  0.41262145695E+03  0.10287717806E+04  0.15973839518E+04  0.19442899302E+04  0.00000000000E+00 0.  1.
         22    1    1    2    0    0 -0.56592263631E+03 -0.12938390555E+04 -0.27279814221E+04  0.30718350494E+04  0.00000000000E+00 0. -1.
<mgrwt>
<rscale>  0 0.55384846E+04</rscale>
<asrwt>0</asrwt>
<pdfrwt beam="1">  1        2 0.47981204E+00 0.55384846E+04</pdfrwt>
<pdfrwt beam="2">  1       -2 0.37828930E+00 0.55384846E+04</pdfrwt>
<totfact> 0.10485365E-02</totfact>
</mgrwt>
</event>
<event>
 6    1  0.1773638E-005  0.3894686E+04  0.7818608E-02  0.8026135E-01
          2   -1    0    0  501    0  0.00000000000E+00  0.00000000000E+00  0.26369701618E+04  0.26369701618E+04  0.00000000000E+00 0. -1.
         -2   -1    0    0    0  501 -0.00000000000E+00 -0.00000000000E+00 -0.14380691864E+04  0.14380691864E+04  0.00000000000E+00 0.  1.
         23    2    1    2    0    0 -0.29946661588E+03  0.18599797021E+04  0.11110224497E+04  0.21890575399E+04  0.91636691427E+02 0.  0.
         11    1    3    3    0    0 -0.76376132492E+02  0.28556161197E+03  0.19105435302E+03  0.35196663713E+03  0.00000000000E+00 0. -1.
        -11    1    3    3    0    0 -0.22309048339E+03  0.15744180901E+04  0.91996809668E+03  0.18370909028E+04  0.00000000000E+00 0.  1.
         22    1    1    2    0    0  0.29946661588E+03 -0.18599797021E+04  0.87878525727E+02  0.18859818084E+04  0.00000000000E+00 0. -1.
<mgrwt>
<rscale>  0 0.38946864E+04</rscale>
<asrwt>0</asrwt>
<pdfrwt beam="1">  1        2 0.40568772E+00 0.38946864E+04</pdfrwt>
<pdfrwt beam="2">  1       -2 0.22124141E+00 0.38946864E+04</pdfrwt>
<totfact> 0.22348865E-01</totfact>
</mgrwt>
</event>
<event>
 6    1  0.1773638E-005  0.1771882E+04  0.7818608E-02  0.8721397E-01
          1   -1    0    0  501    0  0.00000000000E+00  0.00000000000E+00  0.19963193120E+04  0.19963193120E+04  0.00000000000E+00 0. -1.
         -1   -1    0    0    0  501 -0.00000000000E+00 -0.00000000000E+00 -0.39316937963E+03  0.39316937963E+03  0.00000000000E+00 0.  1.
         23    2    1    2    0    0  0.44836150426E+03  0.66596856476E+03  0.13015405533E+04  0.15318696706E+04  0.89859379434E+02 0.  0.
         13    1    3    3    0    0  0.27008513691E+03  0.45465287854E+03  0.79564004926E+03  0.95535245283E+03  0.00000000000E+00 0.  1.
        -13    1    3    3    0    0  0.17827636735E+03  0.21131568622E+03  0.50590050401E+03  0.57651721775E+03  0.00000000000E+00 0. -1.
         22    1    1    2    0    0 -0.44836150426E+03 -0.66596856476E+03  0.30160937914E+03  0.85761902109E+03  0.00000000000E+00 0.  1.
<mgrwt>
<rscale>  0 0.17718822E+04</rscale>
<asrwt>0</asrwt>
<pdfrwt beam="1">  1        1 0.30712604E+00 0.17718822E+04</pdfrwt>
<pdfrwt beam="2">  1       -1 0.60487598E-01 0.17718822E+04</pdfrwt>
<totfact> 0.78586568E+00</totfact>
</mgrwt>
</event>
<event>
 6    1  0.1773638E-005  0.1587415E+04  0.7818608E-02  0.8828317E-01
         -2   -1    0    0    0  501 -0.00000000000E+00  0.00000000000E+00  0.59929176589E+03  0.59929176589E+03  0.00000000000E+00 0. -1.
          2   -1    0    0  501    0  0.00000000000E+00 -0.00000000000E+00 -0.10511936879E+04  0.10511936879E+04  0.00000000000E+00 0.  1.
         23    2    1    2    0    0 -0.18255348933E+03  0.45830668174E+02  0.57127082414E+03  0.61014479079E+03  0.10246992049E+03 0.  0.
         13    1    3    3    0    0 -0.13486304396E+03  0.12866011720E+02  0.25649381154E+03  0.29007352558E+03  0.00000000000E+00 0. -1.
        -13    1    3    3    0    0 -0.47690445373E+02  0.32964656454E+02  0.31477701259E+03  0.32007126521E+03  0.00000000000E+00 0.  1.
         22    1    1    2    0    0  0.18255348933E+03 -0.45830668174E+02 -0.10231727462E+04  0.10403406630E+04  0.00000000000E+00 0.  1.
<mgrwt>
<rscale>  0 0.15874152E+04</rscale>
<asrwt>0</asrwt>
<pdfrwt beam="1">  1        2 0.16172210E+00 0.15874152E+04</pdfrwt>
<pdfrwt beam="2">  1       -2 0.92198734E-01 0.15874152E+04</pdfrwt>
<totfact> 0.22419867E+01</totfact>
</mgrwt>
</event>
<event>
 6    1  0.1773638E-005  0.3034194E+04  0.7818608E-02  0.8234033E-01
         -1   -1    0    0    0  501 -0.00000000000E+00  0.00000000000E+00  0.16458300071E+04  0.16458300071E+04  0.00000000000E+00 0.  1.
          1   -1    0    0  501    0  0.00000000000E+00 -0.00000000000E+00 -0.13984335564E+04  0.13984335564E+04  0.00000000000E+00 0. -1.
         23    2    1    2    0    0 -0.50669313777E+03 -0.83808850791E+03 -0.10368966434E+04  0.14291663421E+04  0.90727620665E+02 0.  0.
         13    1    3    3    0    0 -0.30176661605E+03 -0.46051916479E+03 -0.64062590790E+03  0.84471447577E+03  0.00000000000E+00 0.  1.
        -13    1    3    3    0    0 -0.20492652172E+03 -0.37756934312E+03 -0.39627073554E+03  0.58445186629E+03  0.00000000000E+00 0. -1.
         22    1    1    2    0    0  0.50669313777E+03  0.83808850791E+03  0.12842930942E+04  0.16150972215E+04  0.00000000000E+00 0.  1.
<mgrwt>
<rscale>  0 0.30341944E+04</rscale>
<asrwt>0</asrwt>
<pdfrwt beam="1">  1        1 0.21514362E+00 0.30341944E+04</pdfrwt>
<pdfrwt beam="2">  1       -1 0.25320462E+00 0.30341944E+04</pdfrwt>
<totfact> 0.43423887E-01</totfact>
</mgrwt>
</event>
<event>
 6    1  0.1773638E-005  0.3208951E+04  0.7818608E-02  0.8186457E-01
          2   -1    0    0  501    0  0.00000000000E+00  0.00000000000E+00  0.28809839648E+04  0.28809839648E+04  0.00000000000E+00 0. -1.
         -2   -1    0    0    0  501 -0.00000000000E+00 -0.00000000000E+00 -0.89356329346E+03  0.89356329346E+03  0.00000000000E+00 0.  1.
         23    2    1    2    0    0 -0.12749235950E+03  0.91022507249E+03  0.25395549689E+04  0.27023456602E+04  0.92566962599E+02 0.  0.
         11    1    3    3    0    0 -0.56338853722E+02  0.42506635190E+03  0.10507984774E+04  0.11349153757E+04  0.00000000000E+00 0.  1.
        -11    1    3    3    0    0 -0.71153505774E+02  0.48515872059E+03  0.14887564916E+04  0.15674302845E+04  0.00000000000E+00 0. -1.
         22    1    1    2    0    0  0.12749235950E+03 -0.91022507249E+03 -0.55213429759E+03  0.10722015981E+04  0.00000000000E+00 0.  1.
<mgrwt>
<rscale>  0 0.32089509E+04</rscale>
<asrwt>0</asrwt>
<pdfrwt beam="1">  1        2 0.44322830E+00 0.32089509E+04</pdfrwt>
<pdfrwt beam="2">  1       -2 0.13747128E+00 0.32089509E+04</pdfrwt>
<totfact> 0.65356233E-01</totfact>
</mgrwt>
</event>
<event>
 6    1  0.1773638E-005  0.2453797E+04  0.7818608E-02  0.8419633E-01
          2   -1    0    0  501    0  0.00000000000E+00  0.00000000000E+00  0.19092993704E+04  0.19092993704E+04  0.00000000000E+00 0.  1.
         -2   -1    0    0    0  501 -0.00000000000E+00 -0.00000000000E+00 -0.78839404654E+03  0.78839404654E+03  0.00000000000E+00 0. -1.
         23    2    1    2    0    0 -0.46131431382E+03 -0.79911955719E+03 -0.32474273865E+03  0.98267117701E+03  0.93711434758E+02 0.  0.
         13    1    3    3    0    0 -0.32542576323E+03 -0.50273755663E+03 -0.24474110537E+03  0.64695068350E+03  0.00000000000E+00 0.  1.
        -13    1    3    3    0    0 -0.13588855058E+03 -0.29638200056E+03 -0.80001633281E+02  0.33572049351E+03  0.00000000000E+00 0. -1.
         22    1    1    2    0    0  0.46131431382E+03  0.79911955719E+03  0.14456480625E+04  0.17150222400E+04  0.00000000000E+00 0.  1.
<mgrwt>
<rscale>  0 0.24537973E+04</rscale>
<asrwt>0</asrwt>
<pdfrwt beam="1">  1        2 0.29373836E+00 0.24537973E+04</pdfrwt>
<pdfrwt beam="2">  1       -2 0.12129139E+00 0.24537973E+04</pdfrwt>
<totfact> 0.34734783E+00</totfact>
</mgrwt>
</event>
<event>
 6    1  0.2297796E-005  0.4378985E+04  0.7818608E-02  0.7932172E-01
         -1   -1    0    0    0  501 -0.00000000000E+00  0.00000000000E+00  0.19680758540E+04  0.19680758540E+04  0.00000000000E+00 0.  1.
          1   -1    0    0  501    0  0.00000000000E+00 -0.00000000000E+00 -0.24358189373E+04  0.24358189373E+04  0.00000000000E+00 0. -1.
         23    2    1    2    0    0 -0.50337289229E+03 -0.38544264045E+03 -0.23405238068E+04  0.24267104458E+04  0.94454221395E+02 0.  0.
         11    1    3    3    0    0 -0.13755554028E+03 -0.96782963177E+02 -0.47613098214E+03  0.50496453417E+03  0.00000000000E+00 0.  1.
        -11    1    3    3    0    0 -0.36581735201E+03 -0.28865967727E+03 -0.18643928247E+04  0.19217459117E+04  0.00000000000E+00 0. -1.
         22    1    1    2    0    0  0.50337289229E+03  0.38544264045E+03  0.18727807235E+04  0.19771843455E+04  0.00000000000E+00 0.  1.
<mgrwt>
<rscale>  0 0.43789846E+04</rscale>
<asrwt>0</asrwt>
<pdfrwt beam="1">  1        1 0.37474137E+00 0.43789846E+04</pdfrwt>
<pdfrwt beam="2">  1       -1 0.30278090E+00 0.43789846E+04</pdfrwt>
<totfact> 0.36082727E-02</totfact>
</mgrwt>
</event>
<event>
 6    1  0.1773638E-005  0.4583004E+04  0.7818608E-02  0.7896264E-01
         -2   -1    0    0    0  501 -0.00000000000E+00  0.00000000000E+00  0.15403962299E+04  0.15403962299E+04  0.00000000000E+00 0.  1.
          2   -1    0    0  501    0  0.00000000000E+00 -0.00000000000E+00 -0.34088517311E+04  0.34088517311E+04  0.00000000000E+00 0. -1.
         23    2    1    2    0    0  0.81051190454E+03 -0.10770476269E+04 -0.29345949241E+04  0.32306396848E+04  0.90687739241E+02 0.  0.
         13    1    3    3    0    0  0.80935251605E+02 -0.11355565634E+03 -0.37445187217E+03  0.39957428172E+03  0.00000000000E+00 0. -1.
        -13    1    3    3    0    0  0.72957665293E+03 -0.96349197053E+03 -0.25601430520E+04  0.28310654031E+04  0.00000000000E+00 0.  1.
         22    1    1    2    0    0 -0.81051190454E+03  0.10770476269E+04  0.10661394230E+04  0.17186082763E+04  0.00000000000E+00 0.  1.
<mgrwt>
<rscale>  0 0.45830044E+04</rscale>
<asrwt>0</asrwt>
<pdfrwt beam="1">  1        2 0.52443872E+00 0.45830044E+04</pdfrwt>
<pdfrwt beam="2">  1       -2 0.23698404E+00 0.45830044E+04</pdfrwt>
<totfact> 0.54639325E-02</totfact>
</mgrwt>
</event>
<event>
 6    1  0.1773638E-005  0.2161557E+04  0.7818608E-02  0.8534601E-01
          2   -1    0    0  501    0  0.00000000000E+00  0.00000000000E+00  0.16507258004E+04  0.16507258004E+04  0.00000000000E+00 0. -1.
         -2   -1    0    0    0  501 -0.00000000000E+00 -0.00000000000E+00 -0.70761749926E+03  0.70761749926E+03  0.00000000000E+00 0.  1.
         23    2    1    2    0    0 -0.97133047851E+03  0.36709052795E+03  0.15293637827E+03  0.10535023048E+04  0.90770128422E+02 0.  0.
         11    1    3    3    0    0 -0.60615325918E+03  0.25435006299E+03  0.59366367846E+02  0.66003037338E+03  0.00000000000E+00 0.  1.
        -11    1    3    3    0    0 -0.36517721933E+03  0.11274046496E+03  0.93570010424E+02  0.39347193141E+03  0.00000000000E+00 0. -1.
         22    1    1    2    0    0  0.97133047851E+03 -0.36709052795E+03  0.79017192288E+03  0.13048409949E+04  0.00000000000E+00 0.  1.
<mgrwt>
<rscale>  0 0.21615573E+04</rscale>
<asrwt>0</asrwt>
<pdfrwt beam="1">  1        2 0.25395781E+00 0.21615573E+04</pdfrwt>
<pdfrwt beam="2">  1       -2 0.10886423E+00 0.21615573E+04</pdfrwt>
<totfact> 0.64545102E+00</totfact>
</mgrwt>
</event>
<event>
 6    1  0.1773638E-005  0.3559321E+04  0.7818608E-02  0.8099874E-01
          2   -1    0    0  501    0  0.00000000000E+00  0.00000000000E+00  0.23143576208E+04  0.23143576208E+04  0.00000000000E+00 0. -1.
         -2   -1    0    0    0  501 -0.00000000000E+00 -0.00000000000E+00 -0.13684968611E+04  0.13684968611E+04  0.00000000000E+00 0.  1.
         23    2    1    2    0    0  0.10799128399E+03 -0.14635150312E+04 -0.56643603623E+03  0.15755861167E+04  0.89908086738E+02 0.  0.
         13    1    3    3    0    0  0.77051319193E+02 -0.88576276505E+03 -0.29753221309E+03  0.93757026380E+03  0.00000000000E+00 0.  1.
        -13    1    3    3    0    0  0.30939964801E+02 -0.57775226614E+03 -0.26890382313E+03  0.63801585290E+03  0.00000000000E+00 0. -1.
         22    1    1    2    0    0 -0.10799128399E+03  0.14635150312E+04  0.15122967959E+04  0.21072683652E+04  0.00000000000E+00 0.  1.
<mgrwt>
<rscale>  0 0.35593208E+04</rscale>
<asrwt>0</asrwt>
<pdfrwt beam="1">  1        2 0.35605502E+00 0.35593208E+04</pdfrwt>
<pdfrwt beam="2">  1       -2 0.21053798E+00 0.35593208E+04</pdfrwt>
<totfact> 0.41331579E-01</totfact>
</mgrwt>
</event>
<event>
 6    1  0.1773638E-005  0.2120535E+04  0.7818608E-02  0.8552251E-01
          1   -1    0    0  501    0  0.00000000000E+00  0.00000000000E+00  0.11304441971E+04  0.11304441971E+04  0.00000000000E+00 0. -1.
         -1   -1    0    0    0  501 -0.00000000000E+00 -0.00000000000E+00 -0.99444695322E+03  0.99444695322E+03  0.00000000000E+00 0.  1.
         23    2    1    2    0    0  0.45009807129E+03 -0.82678593224E+03  0.55274307685E+03  0.10954056764E+04  0.90694186461E+02 0.  0.
         13    1    3    3    0    0  0.29348868147E+03 -0.51274343351E+03  0.39483548974E+03  0.71058883943E+03  0.00000000000E+00 0.  1.
        -13    1    3    3    0    0  0.15660938982E+03 -0.31404249872E+03  0.15790758711E+03  0.38481683701E+03  0.00000000000E+00 0. -1.
         22    1    1    2    0    0 -0.45009807129E+03  0.82678593224E+03 -0.41674583300E+03  0.10294854738E+04  0.00000000000E+00 0.  1.
<mgrwt>
<rscale>  0 0.21205346E+04</rscale>
<asrwt>0</asrwt>
<pdfrwt beam="1">  1        1 0.17391449E+00 0.21205346E+04</pdfrwt>
<pdfrwt beam="2">  1       -1 0.15299184E+00 0.21205346E+04</pdfrwt>
<totfact> 0.36523061E+00</totfact>
</mgrwt>
</event>
<event>
 6    1  0.1773638E-005  0.1514199E+04  0.7818608E-02  0.8875065E-01
          1   -1    0    0  501    0  0.00000000000E+00  0.00000000000E+00  0.28778288558E+04  0.28778288558E+04  0.00000000000E+00 0. -1.
         -1   -1    0    0    0  501 -0.00000000000E+00 -0.00000000000E+00 -0.19917782412E+03  0.19917782412E+03  0.00000000000E+00 0.  1.
         23    2    1    2    0    0  0.24279669616E+03  0.71213153023E+03  0.12342608396E+04  0.14484046478E+04  0.91622331395E+02 0.  0.
         13    1    3    3    0    0  0.18788173012E+03  0.41199224242E+03  0.74104874741E+03  0.86844136150E+03  0.00000000000E+00 0. -1.
        -13    1    3    3    0    0  0.54914966035E+02  0.30013928781E+03  0.49321209218E+03  0.57996328630E+03  0.00000000000E+00 0.  1.
         22    1    1    2    0    0 -0.24279669616E+03 -0.71213153023E+03  0.14443901920E+04  0.16286020321E+04  0.00000000000E+00 0.  1.
<mgrwt>
<rscale>  0 0.15141990E+04</rscale>
<asrwt>0</asrwt>
<pdfrwt beam="1">  1        1 0.44274287E+00 0.15141990E+04</pdfrwt>
<pdfrwt beam="2">  1       -1 0.30642744E-01 0.15141990E+04</pdfrwt>
<totfact> 0.69967988E+00</totfact>
</mgrwt>
</event>
<event>
 6    1  0.1773638E-005  0.6243798E+04  0.7818608E-02  0.7660887E-01
          1   -1    0    0  501    0  0.00000000000E+00  0.00000000000E+00  0.21465489029E+04  0.21465489029E+04  0.00000000000E+00 0.  1.
         -1   -1    0    0    0  501 -0.00000000000E+00 -0.00000000000E+00 -0.45404290689E+04  0.45404290689E+04  0.00000000000E+00 0. -1.
         23    2    1    2    0    0  0.23117250467E+04 -0.17324077309E+04  0.68479356358E+02  0.28911218555E+04  0.92665655400E+02 0.  0.
         13    1    3    3    0    0  0.42133208080E+03 -0.27247332498E+03  0.62392660235E+01  0.50179813031E+03  0.00000000000E+00 0.  1.
        -13    1    3    3    0    0  0.18903929659E+04 -0.14599344059E+04  0.62240090334E+02  0.23893237252E+04  0.00000000000E+00 0. -1.
         22    1    1    2    0    0 -0.23117250467E+04  0.17324077309E+04 -0.24623595224E+04  0.37958561162E+04  0.00000000000E+00 0. -1.
<mgrwt>
<rscale>  0 0.62437979E+04</rscale>
<asrwt>0</asrwt>
<pdfrwt beam="1">  1        1 0.33023830E+00 0.62437979E+04</pdfrwt>
<pdfrwt beam="2">  1       -1 0.69852754E+00 0.62437979E+04</pdfrwt>
<totfact> 0.32109963E-04</totfact>
</mgrwt>
</event>
<event>
 6    1  0.1773638E-005  0.1028403E+04  0.7818608E-02  0.9277930E-01
          2   -1    0    0  501    0  0.00000000000E+00  0.00000000000E+00  0.11666401166E+04  0.11666401166E+04  0.00000000000E+00 0. -1.
         -2   -1    0    0    0  501 -0.00000000000E+00 -0.00000000000E+00 -0.22663657033E+03  0.22663657033E+03  0.00000000000E+00 0.  1.
         23    2    1    2    0    0 -0.36977074010E+03 -0.31295135630E+03  0.68896108346E+03  0.84766577262E+03  0.95921509136E+02 0.  0.
         11    1    3    3    0    0 -0.18724438692E+03 -0.19814210851E+03  0.44690297500E+03  0.52349118871E+03  0.00000000000E+00 0. -1.
        -11    1    3    3    0    0 -0.18252635318E+03 -0.11480924780E+03  0.24205810846E+03  0.32417458391E+03  0.00000000000E+00 0.  1.
         22    1    1    2    0    0  0.36977074010E+03  0.31295135630E+03  0.25104246278E+03  0.54561091426E+03  0.00000000000E+00 0.  1.
<mgrwt>
<rscale>  0 0.10284033E+04</rscale>
<asrwt>0</asrwt>
<pdfrwt beam="1">  1        2 0.17948309E+00 0.10284033E+04</pdfrwt>
<pdfrwt beam="2">  1       -2 0.34867165E-01 0.10284033E+04</pdfrwt>
<totfact> 0.15241341E+02</totfact>
</mgrwt>
</event>
<event>
 6    1  0.1773638E-005  0.4151238E+04  0.7818608E-02  0.7974713E-01
          2   -1    0    0  501    0  0.00000000000E+00  0.00000000000E+00  0.19124839876E+04  0.19124839876E+04  0.00000000000E+00 0. -1.
         -2   -1    0    0    0  501 -0.00000000000E+00 -0.00000000000E+00 -0.22526691741E+04  0.22526691741E+04  0.00000000000E+00 0.  1.
         23    2    1    2    0    0 -0.22494821501E+03 -0.15417089016E+04 -0.15444681865E+04  0.21959488603E+04  0.96650820544E+02 0.  0.
         13    1    3    3    0    0 -0.24176097436E+02 -0.47211637404E+03 -0.47291529399E+03  0.66867572830E+03  0.00000000000E+00 0.  1.
        -13    1    3    3    0    0 -0.20077211757E+03 -0.10695925276E+04 -0.10715528925E+04  0.15272731320E+04  0.00000000000E+00 0. -1.
         22    1    1    2    0    0  0.22494821501E+03  0.15417089016E+04  0.12042829999E+04  0.19692043014E+04  0.00000000000E+00 0. -1.
<mgrwt>
<rscale>  0 0.41512378E+04</rscale>
<asrwt>0</asrwt>
<pdfrwt beam="1">  1        2 0.29422830E+00 0.41512378E+04</pdfrwt>
<pdfrwt beam="2">  1       -2 0.34656449E+00 0.41512378E+04</pdfrwt>
<totfact> 0.95226312E-02</totfact>
</mgrwt>
</event>
<event>
 6    1  0.1773638E-005  0.9875709E+03  0.7818608E-02  0.9322283E-01
         -1   -1    0    0    0  501 -0.00000000000E+00  0.00000000000E+00  0.26731940568E+04  0.26731940568E+04  0.00000000000E+00 0.  1.
          1   -1    0    0  501    0  0.00000000000E+00 -0.00000000000E+00 -0.91210759882E+02  0.91210759882E+02  0.00000000000E+00 0. -1.
         23    2    1    2    0    0 -0.41152868815E+03 -0.25723901232E+03  0.14826097875E+04  0.15626769424E+04  0.91102544811E+02 0.  0.
         11    1    3    3    0    0 -0.21668627364E+03 -0.82217525602E+02  0.71327563866E+03  0.74998319942E+03  0.00000000000E+00 0. -1.
        -11    1    3    3    0    0 -0.19484241450E+03 -0.17502148672E+03  0.76933414888E+03  0.81269374301E+03  0.00000000000E+00 0.  1.
         22    1    1    2    0    0  0.41152868815E+03  0.25723901232E+03  0.10993735094E+04  0.12017278743E+04  0.00000000000E+00 0. -1.
<mgrwt>
<rscale>  0 0.98757088E+03</rscale>
<asrwt>0</asrwt>
<pdfrwt beam="1">  1        1 0.14032427E-01 0.98757088E+03</pdfrwt>
<pdfrwt beam="2">  1       -1 0.41126056E+00 0.98757088E+03</pdfrwt>
<totfact> 0.26077447E+00</totfact>
</mgrwt>
</event>
<event>
 6    1  0.1773638E-005  0.2254815E+04  0.7818608E-02  0.8495953E-01
          2   -1    0    0  501    0  0.00000000000E+00  0.00000000000E+00  0.13215821573E+04  0.13215821573E+04  0.00000000000E+00 0. -1.
         -2   -1    0    0    0  501 -0.00000000000E+00 -0.00000000000E+00 -0.96176210657E+03  0.96176210657E+03  0.00000000000E+00 0.  1.
         23    2    1    2    0    0 -0.17602366423E+03  0.23386814133E+03  0.12808068201E+04  0.13169616962E+04  0.90792957364E+02 0.  0.
         13    1    3    3    0    0 -0.12787581578E+03  0.96583601856E+02  0.71663458673E+03  0.73433353955E+03  0.00000000000E+00 0. -1.
        -13    1    3    3    0    0 -0.48147848454E+02  0.13728453947E+03  0.56417223333E+03  0.58262815667E+03  0.00000000000E+00 0.  1.
         22    1    1    2    0    0  0.17602366423E+03 -0.23386814133E+03 -0.92098676930E+03  0.96638256768E+03  0.00000000000E+00 0.  1.
<mgrwt>
<rscale>  0 0.22548150E+04</rscale>
<asrwt>0</asrwt>
<pdfrwt beam="1">  1        2 0.20332033E+00 0.22548150E+04</pdfrwt>
<pdfrwt beam="2">  1       -2 0.14796340E+00 0.22548150E+04</pdfrwt>
<totfact> 0.45405952E+00</totfact>
</mgrwt>
</event>
<event>
 6    1  0.1773638E-005  0.1683972E+04  0.7818608E-02  0.8770559E-01
          2   -1    0    0  501    0  0.00000000000E+00  0.00000000000E+00  0.21250568516E+04  0.21250568516E+04  0.00000000000E+00 0. -1.
         -2   -1    0    0    0  501 -0.00000000000E+00 -0.00000000000E+00 -0.33360995546E+03  0.33360995546E+03  0.00000000000E+00 0.  1.
         23    2    1    2    0    0 -0.44921920981E+02  0.76672593171E+03  0.40328278042E+03  0.87219706403E+03  0.90576399726E+02 0.  0.
         13    1    3    3    0    0 -0.20335876058E+02  0.20393103445E+03  0.15307283863E+03  0.25579817942E+03  0.00000000000E+00 0. -1.
        -13    1    3    3    0    0 -0.24586044923E+02  0.56279489726E+03  0.25020994178E+03  0.61639888461E+03  0.00000000000E+00 0.  1.
         22    1    1    2    0    0  0.44921920981E+02 -0.76672593171E+03  0.13881641158E+04  0.15864697430E+04  0.00000000000E+00 0. -1.
<mgrwt>
<rscale>  0 0.16839716E+04</rscale>
<asrwt>0</asrwt>
<pdfrwt beam="1">  1        2 0.32693182E+00 0.16839716E+04</pdfrwt>
<pdfrwt beam="2">  1       -2 0.51324610E-01 0.16839716E+04</pdfrwt>
<totfact> 0.19449189E+01</totfact>
</mgrwt>
</event>
<event>
 6    1  0.1773638E-005  0.7606499E+03  0.7818608E-02  0.9618789E-01
          1   -1    0    0  501    0  0.00000000000E+00  0.00000000000E+00  0.49517059424E+03  0.49517059424E+03  0.00000000000E+00 0. -1.
         -1   -1    0    0    0  501 -0.00000000000E+00 -0.00000000000E+00 -0.29211565589E+03  0.29211565589E+03  0.00000000000E+00 0.  1.
         23    2    1    2    0    0  0.41282987096E+02  0.31844178360E+03  0.30327881204E+03  0.45090212533E+03  0.90693077111E+02 0.  0.
         11    1    3    3    0    0 -0.23943470463E+02  0.16223105939E+03  0.16024967793E+03  0.22928620910E+03  0.00000000000E+00 0. -1.
        -11    1    3    3    0    0  0.65226457559E+02  0.15621072421E+03  0.14302913411E+03  0.22161591623E+03  0.00000000000E+00 0.  1.
         22    1    1    2    0    0 -0.41282987096E+02 -0.31844178360E+03 -0.10022387369E+03  0.33638412480E+03  0.00000000000E+00 0.  1.
<mgrwt>
<rscale>  0 0.76064994E+03</rscale>
<asrwt>0</asrwt>
<pdfrwt beam="1">  1        1 0.76180091E-01 0.76064994E+03</pdfrwt>
<pdfrwt beam="2">  1       -1 0.44940870E-01 0.76064994E+03</pdfrwt>
<totfact> 0.22322769E+02</totfact>
</mgrwt>
</event>
<event>
 6    1  0.1773638E-005  0.2945461E+04  0.7818608E-02  0.8259479E-01
         -2   -1    0    0    0  501 -0.00000000000E+00  0.00000000000E+00  0.11251046250E+04  0.11251046250E+04  0.00000000000E+00 0.  1.
          2   -1    0    0  501    0  0.00000000000E+00 -0.00000000000E+00 -0.19277630429E+04  0.19277630429E+04  0.00000000000E+00 0. -1.
         23    2    1    2    0    0  0.76685096144E+03 -0.67807513636E+03  0.69379702897E+03  0.12397970151E+04  0.88859629345E+02 0.  0.
         11    1    3    3    0    0  0.19005740013E+03 -0.17212606327E+03  0.22144298518E+03  0.33880111081E+03  0.00000000000E+00 0.  1.
        -11    1    3    3    0    0  0.57679356132E+03 -0.50594907309E+03  0.47235404379E+03  0.90099590433E+03  0.00000000000E+00 0. -1.
         22    1    1    2    0    0 -0.76685096144E+03  0.67807513636E+03 -0.14964554469E+04  0.18130706528E+04  0.00000000000E+00 0. -1.
<mgrwt>
<rscale>  0 0.29454610E+04</rscale>
<asrwt>0</asrwt>
<pdfrwt beam="1">  1        2 0.29657893E+00 0.29454610E+04</pdfrwt>
<pdfrwt beam="2">  1       -2 0.17309302E+00 0.29454610E+04</pdfrwt>
<totfact> 0.12771393E+00</totfact>
</mgrwt>
</event>
<event>
 6    1  0.1773638E-005  0.2918596E+04  0.7818608E-02  0.8267366E-01
         -2   -1    0    0    0  501 -0.00000000000E+00  0.00000000000E+00  0.81376769663E+03  0.81376769663E+03  0.00000000000E+00 0.  1.
          2   -1    0    0  501    0  0.00000000000E+00 -0.00000000000E+00 -0.26169022743E+04  0.26169022743E+04  0.00000000000E+00 0. -1.
         23    2    1    2    0    0 -0.53463335809E+03 -0.12432591213E+04 -0.26529560013E+03  0.13821400612E+04  0.91669640496E+02 0.  0.
         11    1    3    3    0    0 -0.25412599508E+03 -0.64797959923E+03 -0.95702476910E+02  0.70257849845E+03  0.00000000000E+00 0. -1.
        -11    1    3    3    0    0 -0.28050736301E+03 -0.59527952207E+03 -0.16959312322E+03  0.67956156273E+03  0.00000000000E+00 0.  1.
         22    1    1    2    0    0  0.53463335809E+03  0.12432591213E+04 -0.15378389775E+04  0.20485299097E+04  0.00000000000E+00 0. -1.
<mgrwt>
<rscale>  0 0.29185959E+04</rscale>
<asrwt>0</asrwt>
<pdfrwt beam="1">  1        2 0.40260035E+00 0.29185959E+04</pdfrwt>
<pdfrwt beam="2">  1       -2 0.12519503E+00 0.29185959E+04</pdfrwt>
<totfact> 0.12237996E+00</totfact>
</mgrwt>
</event>
<event>
 6    1  0.1773638E-005  0.2770401E+04  0.7818608E-02  0.8312517E-01
          1   -1    0    0  501    0  0.00000000000E+00  0.00000000000E+00  0.19522794416E+04  0.19522794416E+04  0.00000000000E+00 0. -1.
         -1   -1    0    0    0  501 -0.00000000000E+00 -0.00000000000E+00 -0.98284094356E+03  0.98284094356E+03  0.00000000000E+00 0.  1.
         23    2    1    2    0    0 -0.15595049695E+02  0.13025229791E+04 -0.92066734042E+01  0.13058396579E+04  0.91231204415E+02 0.  0.
         11    1    3    3    0    0 -0.12360773539E+02  0.44777226929E+03 -0.45949981303E+02  0.45029345393E+03  0.00000000000E+00 0.  1.
        -11    1    3    3    0    0 -0.32342761557E+01  0.85475070980E+03  0.36743307899E+02  0.85554620397E+03  0.00000000000E+00 0. -1.
         22    1    1    2    0    0  0.15595049695E+02 -0.13025229791E+04  0.97864517146E+03  0.16292807273E+04  0.00000000000E+00 0. -1.
<mgrwt>
<rscale>  0 0.27704008E+04</rscale>
<asrwt>0</asrwt>
<pdfrwt beam="1">  1        1 0.30035068E+00 0.27704008E+04</pdfrwt>
<pdfrwt beam="2">  1       -1 0.15120630E+00 0.27704008E+04</pdfrwt>
<totfact> 0.95135950E-01</totfact>
</mgrwt>
</event>
<event>
 6    1  0.1773638E-005  0.1679027E+04  0.7818608E-02  0.8773417E-01
         -2   -1    0    0    0  501 -0.00000000000E+00  0.00000000000E+00  0.68097645813E+03  0.68097645813E+03  0.00000000000E+00 0.  1.
          2   -1    0    0  501    0  0.00000000000E+00 -0.00000000000E+00 -0.10349592843E+04  0.10349592843E+04  0.00000000000E+00 0. -1.
         23    2    1    2    0    0  0.74895823896E+03 -0.15879361494E+03  0.16672232724E+03  0.79003741505E+03  0.10103923461E+03 0.  0.
         11    1    3    3    0    0  0.53433297927E+03 -0.15496592552E+03  0.10015902640E+03  0.56529461467E+03  0.00000000000E+00 0.  1.
        -11    1    3    3    0    0  0.21462525969E+03 -0.38276894188E+01  0.66563300848E+02  0.22474280038E+03  0.00000000000E+00 0. -1.
         22    1    1    2    0    0 -0.74895823896E+03  0.15879361494E+03 -0.52070515343E+03  0.92589832739E+03  0.00000000000E+00 0. -1.
<mgrwt>
<rscale>  0 0.16790270E+04</rscale>
<asrwt>0</asrwt>
<pdfrwt beam="1">  1        2 0.15922451E+00 0.16790270E+04</pdfrwt>
<pdfrwt beam="2">  1       -2 0.10476561E+00 0.16790270E+04</pdfrwt>
<totfact> 0.16856131E+01</totfact>
</mgrwt>
</event>
<event>
 6    1  0.1773638E-005  0.2288969E+04  0.7818608E-02  0.8482283E-01
          2   -1    0    0  501    0  0.00000000000E+00  0.00000000000E+00  0.34798286971E+04  0.34798286971E+04  0.00000000000E+00 0.  1.
         -2   -1    0    0    0  501 -0.00000000000E+00 -0.00000000000E+00 -0.37641056597E+03  0.37641056597E+03  0.00000000000E+00 0. -1.
         23    2    1    2    0    0  0.73169468575E+03 -0.74872142050E+03  0.78246557054E+03  0.13101085384E+04  0.90394328349E+02 0.  0.
         13    1    3    3    0    0  0.46677941771E+03 -0.43245544019E+03  0.43591678387E+03  0.77131327942E+03  0.00000000000E+00 0. -1.
        -13    1    3    3    0    0  0.26491526804E+03 -0.31626598031E+03  0.34654878667E+03  0.53879525896E+03  0.00000000000E+00 0.  1.
         22    1    1    2    0    0 -0.73169468575E+03  0.74872142050E+03  0.23209525606E+04  0.25461307247E+04  0.00000000000E+00 0.  1.
<mgrwt>
<rscale>  0 0.22889686E+04</rscale>
<asrwt>0</asrwt>
<pdfrwt beam="1">  1        2 0.53535824E+00 0.22889686E+04</pdfrwt>
<pdfrwt beam="2">  1       -2 0.57909320E-01 0.22889686E+04</pdfrwt>
<totfact> 0.21327184E+00</totfact>
</mgrwt>
</event>
<event>
 6    1  0.1773638E-005  0.2440514E+04  0.7818608E-02  0.8424490E-01
         -2   -1    0    0    0  501 -0.00000000000E+00  0.00000000000E+00  0.16060488622E+04  0.16060488622E+04  0.00000000000E+00 0.  1.
          2   -1    0    0  501    0  0.00000000000E+00 -0.00000000000E+00 -0.92713693841E+03  0.92713693841E+03  0.00000000000E+00 0. -1.
         23    2    1    2    0    0  0.35172502293E+03  0.85945260187E+03  0.11588442491E+04  0.14878608256E+04  0.91872607564E+02 0.  0.
         13    1    3    3    0    0  0.24333542195E+03  0.69128601689E+03  0.92394962702E+03  0.11793097125E+04  0.00000000000E+00 0. -1.
        -13    1    3    3    0    0  0.10838960098E+03  0.16816658498E+03  0.23489462205E+03  0.30855111306E+03  0.00000000000E+00 0.  1.
         22    1    1    2    0    0 -0.35172502293E+03 -0.85945260187E+03 -0.47993232528E+03  0.10453249751E+04  0.00000000000E+00 0. -1.
<mgrwt>
<rscale>  0 0.24405141E+04</rscale>
<asrwt>0</asrwt>
<pdfrwt beam="1">  1        2 0.14263645E+00 0.24405141E+04</pdfrwt>
<pdfrwt beam="2">  1       -2 0.24708444E+00 0.24405141E+04</pdfrwt>
<totfact> 0.16873930E+00</totfact>
</mgrwt>
</event>
<event>
 6    1  0.1773638E-005  0.2568490E+04  0.7818608E-02  0.8378984E-01
          2   -1    0    0  501    0  0.00000000000E+00  0.00000000000E+00  0.21220121903E+04  0.21220121903E+04  0.00000000000E+00 0. -1.
         -2   -1    0    0    0  501 -0.00000000000E+00 -0.00000000000E+00 -0.77722723457E+03  0.77722723457E+03  0.00000000000E+00 0.  1.
         23    2    1    2    0    0 -0.43421628922E+03 -0.11211765090E+04  0.16879556739E+03  0.12174155365E+04  0.89599636087E+02 0.  0.
         13    1    3    3    0    0 -0.17915935872E+03 -0.47459145182E+03  0.11575834456E+03  0.52032212743E+03  0.00000000000E+00 0. -1.
        -13    1    3    3    0    0 -0.25505693051E+03 -0.64658505716E+03  0.53037222821E+02  0.69709340906E+03  0.00000000000E+00 0.  1.
         22    1    1    2    0    0  0.43421628922E+03  0.11211765090E+04  0.11759893884E+04  0.16818238884E+04  0.00000000000E+00 0. -1.
<mgrwt>
<rscale>  0 0.25684903E+04</rscale>
<asrwt>0</asrwt>
<pdfrwt beam="1">  1        2 0.32646341E+00 0.25684903E+04</pdfrwt>
<pdfrwt beam="2">  1       -2 0.11957342E+00 0.25684903E+04</pdfrwt>
<totfact> 0.27135015E+00</totfact>
</mgrwt>
</event>
<event>
 6    1  0.1773638E-005  0.1894147E+04  0.7818608E-02  0.8657775E-01
          4   -1    0    0  501    0  0.00000000000E+00  0.00000000000E+00  0.12747662688E+04  0.12747662688E+04  0.00000000000E+00 0. -1.
         -4   -1    0    0    0  501 -0.00000000000E+00 -0.00000000000E+00 -0.70361812498E+03  0.70361812498E+03  0.00000000000E+00 0.  1.
         23    2    1    2    0    0  0.29821577400E+03 -0.69650937523E+03 -0.30350708927E+03  0.82119826597E+03  0.90510116227E+02 0.  0.
         13    1    3    3    0    0  0.29687465793E+03 -0.63125087131E+03 -0.28279579435E+03  0.75271886276E+03  0.00000000000E+00 0. -1.
        -13    1    3    3    0    0  0.13411160721E+01 -0.65258503921E+02 -0.20711294921E+02  0.68479403208E+02  0.00000000000E+00 0.  1.
         22    1    1    2    0    0 -0.29821577400E+03  0.69650937523E+03  0.87465523312E+03  0.11571861278E+04  0.00000000000E+00 0.  1.
<mgrwt>
<rscale>  0 0.18941475E+04</rscale>
<asrwt>0</asrwt>
<pdfrwt beam="1">  1        4 0.19611789E+00 0.18941475E+04</pdfrwt>
<pdfrwt beam="2">  1       -4 0.10824894E+00 0.18941475E+04</pdfrwt>
<totfact> 0.17849535E-01</totfact>
</mgrwt>
</event>
<event>
 6    1  0.1773638E-005  0.7502767E+03  0.7818608E-02  0.9634916E-01
          2   -1    0    0  501    0  0.00000000000E+00  0.00000000000E+00  0.66263448464E+03  0.66263448464E+03  0.00000000000E+00 0. -1.
         -2   -1    0    0    0  501 -0.00000000000E+00 -0.00000000000E+00 -0.21237770338E+03  0.21237770338E+03  0.00000000000E+00 0.  1.
         23    2    1    2    0    0 -0.26107783317E+03  0.20753658191E+03  0.41389749196E+03  0.53951991431E+03  0.92398789400E+02 0.  0.
         13    1    3    3    0    0 -0.90203959928E+02  0.50546432514E+02  0.19399484629E+03  0.21983106380E+03  0.00000000000E+00 0. -1.
        -13    1    3    3    0    0 -0.17087387324E+03  0.15699014940E+03  0.21990264567E+03  0.31968885050E+03  0.00000000000E+00 0.  1.
         22    1    1    2    0    0  0.26107783317E+03 -0.20753658191E+03  0.36359289296E+02  0.33549227371E+03  0.00000000000E+00 0.  1.
<mgrwt>
<rscale>  0 0.75027672E+03</rscale>
<asrwt>0</asrwt>
<pdfrwt beam="1">  1        2 0.10194377E+00 0.75027672E+03</pdfrwt>
<pdfrwt beam="2">  1       -2 0.32673493E-01 0.75027672E+03</pdfrwt>
<totfact> 0.38563895E+02</totfact>
</mgrwt>
</event>
<event>
 6    1  0.1773638E-005  0.1890776E+04  0.7818608E-02  0.8659462E-01
         -1   -1    0    0    0  501 -0.00000000000E+00  0.00000000000E+00  0.55045005729E+03  0.55045005729E+03  0.00000000000E+00 0.  1.
          1   -1    0    0  501    0  0.00000000000E+00 -0.00000000000E+00 -0.16236861770E+04  0.16236861770E+04  0.00000000000E+00 0. -1.
         23    2    1    2    0    0  0.36035826582E+03 -0.66271602639E+03  0.11288736223E+03  0.76845507351E+03  0.93429289177E+02 0.  0.
         13    1    3    3    0    0  0.88729862707E+02 -0.12998728504E+03 -0.11026873136E+02  0.15776968892E+03  0.00000000000E+00 0. -1.
        -13    1    3    3    0    0  0.27162840311E+03 -0.53272874135E+03  0.12391423537E+03  0.61068538460E+03  0.00000000000E+00 0.  1.
         22    1    1    2    0    0 -0.36035826582E+03  0.66271602639E+03 -0.11861234820E+04  0.14056811608E+04  0.00000000000E+00 0. -1.
<mgrwt>
<rscale>  0 0.18907757E+04</rscale>
<asrwt>0</asrwt>
<pdfrwt beam="1">  1        1 0.24979787E+00 0.18907757E+04</pdfrwt>
<pdfrwt beam="2">  1       -1 0.84684624E-01 0.18907757E+04</pdfrwt>
<totfact> 0.69457344E+00</totfact>
</mgrwt>
</event>
<event>
 6    1  0.1773638E-005  0.2728345E+04  0.7818608E-02  0.8325866E-01
          1   -1    0    0  501    0  0.00000000000E+00  0.00000000000E+00  0.22823118394E+04  0.22823118394E+04  0.00000000000E+00 0. -1.
         -1   -1    0    0    0  501 -0.00000000000E+00 -0.00000000000E+00 -0.81538687601E+03  0.81538687601E+03  0.00000000000E+00 0.  1.
         23    2    1    2    0    0 -0.63946737015E+03 -0.84845896581E+03  0.17030045633E+04  0.20093353975E+04  0.91668223096E+02 0.  0.
         13    1    3    3    0    0 -0.44667556621E+03 -0.55853922716E+03  0.10724711888E+04  0.12890615115E+04  0.00000000000E+00 0. -1.
        -13    1    3    3    0    0 -0.19279180393E+03 -0.28991973865E+03  0.63053337453E+03  0.72027388605E+03  0.00000000000E+00 0.  1.
         22    1    1    2    0    0  0.63946737015E+03  0.84845896581E+03 -0.23607959991E+03  0.10883633178E+04  0.00000000000E+00 0.  1.
<mgrwt>
<rscale>  0 0.27283454E+04</rscale>
<asrwt>0</asrwt>
<pdfrwt beam="1">  1        1 0.35112489E+00 0.27283454E+04</pdfrwt>
<pdfrwt beam="2">  1       -1 0.12544414E+00 0.27283454E+04</pdfrwt>
<totfact> 0.92441150E-01</totfact>
</mgrwt>
</event>
<event>
 6    1  0.1773638E-005  0.1818759E+04  0.7818608E-02  0.8696387E-01
          2   -1    0    0  501    0  0.00000000000E+00  0.00000000000E+00  0.16056624378E+04  0.16056624378E+04  0.00000000000E+00 0. -1.
         -2   -1    0    0    0  501 -0.00000000000E+00 -0.00000000000E+00 -0.51503410957E+03  0.51503410957E+03  0.00000000000E+00 0.  1.
         23    2    1    2    0    0 -0.85076076466E+02  0.29915232536E+03  0.15399543746E+04  0.15742315911E+04  0.10007784101E+03 0.  0.
         13    1    3    3    0    0 -0.24071703071E+02  0.99188933745E+02  0.75684635346E+03  0.76369777675E+03  0.00000000000E+00 0. -1.
        -13    1    3    3    0    0 -0.61004373395E+02  0.19996339162E+03  0.78310802111E+03  0.81053381440E+03  0.00000000000E+00 0.  1.
         22    1    1    2    0    0  0.85076076466E+02 -0.29915232536E+03 -0.44932604629E+03  0.54646495627E+03  0.00000000000E+00 0.  1.
<mgrwt>
<rscale>  0 0.18187588E+04</rscale>
<asrwt>0</asrwt>
<pdfrwt beam="1">  1        2 0.24702499E+00 0.18187588E+04</pdfrwt>
<pdfrwt beam="2">  1       -2 0.79236018E-01 0.18187588E+04</pdfrwt>
<totfact> 0.14739522E+01</totfact>
</mgrwt>
</event>
<event>
 6    1  0.2850527E-005  0.2280029E+04  0.7818608E-02  0.8485837E-01
         -1   -1    0    0    0  501 -0.00000000000E+00  0.00000000000E+00  0.96528275857E+03  0.96528275857E+03  0.00000000000E+00 0.  1.
          1   -1    0    0  501    0  0.00000000000E+00 -0.00000000000E+00 -0.13463756865E+04  0.13463756865E+04  0.00000000000E+00 0. -1.
         23    2    1    2    0    0  0.35210029279E+03 -0.10778759147E+04 -0.90941635616E+02  0.11411974777E+04  0.90940631563E+02 0.  0.
         13    1    3    3    0    0  0.25589757902E+03 -0.76007364948E+03 -0.23296285640E+02  0.80233299851E+03  0.00000000000E+00 0.  1.
        -13    1    3    3    0    0  0.96202713768E+02 -0.31780226520E+03 -0.67645349977E+02  0.33886447922E+03  0.00000000000E+00 0. -1.
         22    1    1    2    0    0 -0.35210029279E+03  0.10778759147E+04 -0.29015129231E+03  0.11704609673E+04  0.00000000000E+00 0. -1.
<mgrwt>
<rscale>  0 0.22800292E+04</rscale>
<asrwt>0</asrwt>
<pdfrwt beam="1">  1        1 0.20713472E+00 0.22800292E+04</pdfrwt>
<pdfrwt beam="2">  1       -1 0.14850504E+00 0.22800292E+04</pdfrwt>
<totfact> 0.27208555E+00</totfact>
</mgrwt>
</event>
<event>
 6    1  0.1773638E-005  0.3028857E+04  0.7818608E-02  0.8235538E-01
          1   -1    0    0  501    0  0.00000000000E+00  0.00000000000E+00  0.10100635336E+04  0.10100635336E+04  0.00000000000E+00 0. -1.
         -1   -1    0    0    0  501 -0.00000000000E+00 -0.00000000000E+00 -0.22706429229E+04  0.22706429229E+04  0.00000000000E+00 0.  1.
         23    2    1    2    0    0  0.12978602278E+04 -0.14878911613E+03 -0.14578059492E+04  0.19595411800E+04  0.89577220786E+02 0.  0.
         11    1    3    3    0    0  0.61487801658E+03 -0.42109573897E+02 -0.63530841703E+03  0.88513556941E+03  0.00000000000E+00 0. -1.
        -11    1    3    3    0    0  0.68298221125E+03 -0.10667954223E+03 -0.82249753215E+03  0.10744056106E+04  0.00000000000E+00 0.  1.
         22    1    1    2    0    0 -0.12978602278E+04  0.14878911613E+03  0.19722655982E+03  0.13211652765E+04  0.00000000000E+00 0. -1.
<mgrwt>
<rscale>  0 0.30288570E+04</rscale>
<asrwt>0</asrwt>
<pdfrwt beam="1">  1        1 0.15539439E+00 0.30288570E+04</pdfrwt>
<pdfrwt beam="2">  1       -1 0.34932968E+00 0.30288570E+04</pdfrwt>
<totfact> 0.19796798E-01</totfact>
</mgrwt>
</event>
<event>
 6    1  0.1773638E-005  0.5088475E+04  0.7818608E-02  0.7815002E-01
         -1   -1    0    0    0  501 -0.00000000000E+00  0.00000000000E+00  0.24406541053E+04  0.24406541053E+04  0.00000000000E+00 0.  1.
          1   -1    0    0  501    0  0.00000000000E+00 -0.00000000000E+00 -0.26522166436E+04  0.26522166436E+04  0.00000000000E+00 0. -1.
         23    2    1    2    0    0 -0.95544867747E+03 -0.19758203568E+04 -0.13924841806E+04  0.26006179160E+04  0.86331304631E+02 0.  0.
         11    1    3    3    0    0 -0.72476349519E+03 -0.15002770195E+04 -0.10128679771E+04  0.19498755854E+04  0.00000000000E+00 0. -1.
        -11    1    3    3    0    0 -0.23068518228E+03 -0.47554333730E+03 -0.37961620350E+03  0.65074233068E+03  0.00000000000E+00 0.  1.
         22    1    1    2    0    0  0.95544867747E+03  0.19758203568E+04  0.11809216424E+04  0.24922528329E+04  0.00000000000E+00 0. -1.
<mgrwt>
<rscale>  0 0.50884746E+04</rscale>
<asrwt>0</asrwt>
<pdfrwt beam="1">  1        1 0.40803333E+00 0.50884746E+04</pdfrwt>
<pdfrwt beam="2">  1       -1 0.37548525E+00 0.50884746E+04</pdfrwt>
<totfact> 0.79819861E-03</totfact>
</mgrwt>
</event>
<event>
 6    1  0.1773638E-005  0.2672990E+04  0.7818608E-02  0.8343822E-01
          2   -1    0    0  501    0  0.00000000000E+00  0.00000000000E+00  0.15624183902E+04  0.15624183902E+04  0.00000000000E+00 0.  1.
         -2   -1    0    0    0  501 -0.00000000000E+00 -0.00000000000E+00 -0.11432397214E+04  0.11432397214E+04  0.00000000000E+00 0. -1.
         23    2    1    2    0    0 -0.65181399163E+03  0.93678728310E+03  0.91078459052E+03  0.14630365780E+04  0.92279817365E+02 0.  0.
         11    1    3    3    0    0 -0.37195765754E+03  0.58227846062E+03  0.59632212777E+03  0.91268876665E+03  0.00000000000E+00 0. -1.
        -11    1    3    3    0    0 -0.27985633409E+03  0.35450882247E+03  0.31446246276E+03  0.55034781132E+03  0.00000000000E+00 0.  1.
         22    1    1    2    0    0  0.65181399163E+03 -0.93678728310E+03 -0.49160592175E+03  0.12426215336E+04  0.00000000000E+00 0. -1.
<mgrwt>
<rscale>  0 0.26729899E+04</rscale>
<asrwt>0</asrwt>
<pdfrwt beam="1">  1        2 0.24037206E+00 0.26729899E+04</pdfrwt>
<pdfrwt beam="2">  1       -2 0.17588303E+00 0.26729899E+04</pdfrwt>
<totfact> 0.19939900E+00</totfact>
</mgrwt>
</event>
<event>
 6    1  0.1773638E-005  0.1899735E+04  0.7818608E-02  0.8654988E-01
          1   -1    0    0  501    0  0.00000000000E+00  0.00000000000E+00  0.12183011939E+04  0.12183011939E+04  0.00000000000E+00 0. -1.
         -1   -1    0    0    0  501 -0.00000000000E+00 -0.00000000000E+00 -0.74057872394E+03  0.74057872394E+03  0.00000000000E+00 0.  1.
         23    2    1    2    0    0 -0.34211980382E+03 -0.65373391116E+03 -0.37373426334E+03  0.83220669306E+03  0.92068961112E+02 0.  0.
         11    1    3    3    0    0 -0.11591210818E+03 -0.27105632234E+03 -0.19286494012E+03  0.35228402154E+03  0.00000000000E+00 0.  1.
        -11    1    3    3    0    0 -0.22620769564E+03 -0.38267758882E+03 -0.18086932322E+03  0.47992267152E+03  0.00000000000E+00 0. -1.
         22    1    1    2    0    0  0.34211980382E+03  0.65373391116E+03  0.85145673330E+03  0.11266732248E+04  0.00000000000E+00 0. -1.
<mgrwt>
<rscale>  0 0.18997347E+04</rscale>
<asrwt>0</asrwt>
<pdfrwt beam="1">  1        1 0.18743095E+00 0.18997347E+04</pdfrwt>
<pdfrwt beam="2">  1       -1 0.11393519E+00 0.18997347E+04</pdfrwt>
<totfact> 0.68053580E+00</totfact>
</mgrwt>
</event>
<event>
 6    1  0.1773638E-005  0.8256004E+03  0.7818608E-02  0.9523683E-01
          3   -1    0    0  501    0  0.00000000000E+00  0.00000000000E+00  0.10707933952E+04  0.10707933952E+04  0.00000000000E+00 0. -1.
         -3   -1    0    0    0  501 -0.00000000000E+00 -0.00000000000E+00 -0.15913806375E+03  0.15913806375E+03  0.00000000000E+00 0.  1.
         23    2    1    2    0    0  0.20173754957E+03 -0.53972352886E+01  0.98916516868E+03  0.10137487956E+04  0.92258986950E+02 0.  0.
         13    1    3    3    0    0  0.19108681832E+03  0.75725744397E+01  0.75005537269E+03  0.77405075939E+03  0.00000000000E+00 0. -1.
        -13    1    3    3    0    0  0.10650731253E+02 -0.12969809728E+02  0.23910979599E+03  0.23969803625E+03  0.00000000000E+00 0.  1.
         22    1    1    2    0    0 -0.20173754957E+03  0.53972352886E+01 -0.77509837216E+02  0.21618266332E+03  0.00000000000E+00 0.  1.
<mgrwt>
<rscale>  0 0.82560036E+03</rscale>
<asrwt>0</asrwt>
<pdfrwt beam="1">  1        3 0.16473744E+00 0.82560036E+03</pdfrwt>
<pdfrwt beam="2">  1       -3 0.24482780E-01 0.82560036E+03</pdfrwt>
<totfact> 0.10592060E+01</totfact>
</mgrwt>
</event>
<event>
 6    1  0.1773638E-005  0.2664929E+04  0.7818608E-02  0.8346475E-01
          2   -1    0    0  501    0  0.00000000000E+00  0.00000000000E+00  0.19391561870E+04  0.19391561870E+04  0.00000000000E+00 0. -1.
         -2   -1    0    0    0  501 -0.00000000000E+00 -0.00000000000E+00 -0.91558477939E+03  0.91558477939E+03  0.00000000000E+00 0.  1.
         23    2    1    2    0    0  0.18474606336E+03  0.12390298075E+04  0.99395766210E+03  0.16016635762E+04  0.89712905726E+02 0.  0.
         13    1    3    3    0    0  0.50691239856E+02  0.60871095900E+03  0.45694376660E+03  0.76282123675E+03  0.00000000000E+00 0. -1.
        -13    1    3    3    0    0  0.13405482350E+03  0.63031884852E+03  0.53701389551E+03  0.83884233946E+03  0.00000000000E+00 0.  1.
         22    1    1    2    0    0 -0.18474606336E+03 -0.12390298075E+04  0.29613745496E+02  0.12530773902E+04  0.00000000000E+00 0.  1.
<mgrwt>
<rscale>  0 0.26649292E+04</rscale>
<asrwt>0</asrwt>
<pdfrwt beam="1">  1        2 0.29833172E+00 0.26649292E+04</pdfrwt>
<pdfrwt beam="2">  1       -2 0.14085920E+00 0.26649292E+04</pdfrwt>
<totfact> 0.22464455E+00</totfact>
</mgrwt>
</event>
<event>
 6    1  0.1773638E-005  0.5227483E+04  0.7818608E-02  0.7794343E-01
         -2   -1    0    0    0  501 -0.00000000000E+00  0.00000000000E+00  0.15162702710E+04  0.15162702710E+04  0.00000000000E+00 0.  1.
          2   -1    0    0  501    0  0.00000000000E+00 -0.00000000000E+00 -0.45055584482E+04  0.45055584482E+04  0.00000000000E+00 0. -1.
         23    2    1    2    0    0 -0.12752969827E+04  0.12497958795E+04  0.70239560141E+03  0.19209871890E+04  0.91978610276E+02 0.  0.
         13    1    3    3    0    0 -0.59331043775E+03  0.53430020825E+03  0.34713741181E+03  0.87063101873E+03  0.00000000000E+00 0. -1.
        -13    1    3    3    0    0 -0.68198654499E+03  0.71549567129E+03  0.35525818959E+03  0.10503561703E+04  0.00000000000E+00 0.  1.
         22    1    1    2    0    0  0.12752969827E+04 -0.12497958795E+04 -0.36916837786E+04  0.41008415302E+04  0.00000000000E+00 0. -1.
<mgrwt>
<rscale>  0 0.52274829E+04</rscale>
<asrwt>0</asrwt>
<pdfrwt beam="1">  1        2 0.69316282E+00 0.52274829E+04</pdfrwt>
<pdfrwt beam="2">  1       -2 0.23327236E+00 0.52274829E+04</pdfrwt>
<totfact> 0.70156867E-03</totfact>
</mgrwt>
</event>
<event>
 6    1  0.1773638E-005  0.3339082E+04  0.7818608E-02  0.8153022E-01
         -2   -1    0    0    0  501 -0.00000000000E+00  0.00000000000E+00  0.98768580095E+03  0.98768580095E+03  0.00000000000E+00 0.  1.
          2   -1    0    0  501    0  0.00000000000E+00 -0.00000000000E+00 -0.28221187480E+04  0.28221187480E+04  0.00000000000E+00 0. -1.
         23    2    1    2    0    0 -0.64005382549E+02 -0.20020444324E+03 -0.28062018770E+04  0.28155644566E+04  0.91955025753E+02 0.  0.
         11    1    3    3    0    0 -0.14414954732E+02 -0.16643675146E+03 -0.22294926324E+04  0.22357429148E+04  0.00000000000E+00 0. -1.
        -11    1    3    3    0    0 -0.49590427816E+02 -0.33767691776E+02 -0.57670924458E+03  0.57982154179E+03  0.00000000000E+00 0.  1.
         22    1    1    2    0    0  0.64005382549E+02  0.20020444324E+03  0.97176892993E+03  0.99424009237E+03  0.00000000000E+00 0.  1.
<mgrwt>
<rscale>  0 0.33390817E+04</rscale>
<asrwt>0</asrwt>
<pdfrwt beam="1">  1        2 0.43417211E+00 0.33390817E+04</pdfrwt>
<pdfrwt beam="2">  1       -2 0.15195166E+00 0.33390817E+04</pdfrwt>
<totfact> 0.54011200E-01</totfact>
</mgrwt>
</event>
<event>
 6    1  0.1773638E-005  0.2828939E+04  0.7818608E-02  0.8294340E-01
          1   -1    0    0  501    0  0.00000000000E+00  0.00000000000E+00  0.17051047461E+04  0.17051047461E+04  0.00000000000E+00 0. -1.
         -1   -1    0    0    0  501 -0.00000000000E+00 -0.00000000000E+00 -0.11733726503E+04  0.11733726503E+04  0.00000000000E+00 0.  1.
         23    2    1    2    0    0 -0.13600492108E+04  0.35828207876E+03  0.40419036329E+03  0.14662568764E+04  0.91866609467E+02 0.  0.
         11    1    3    3    0    0 -0.12122800002E+04  0.28910056105E+03  0.35569299352E+03  0.12960399064E+04  0.00000000000E+00 0.  1.
        -11    1    3    3    0    0 -0.14776921058E+03  0.69181517717E+02  0.48497369772E+02  0.17021696996E+03  0.00000000000E+00 0. -1.
         22    1    1    2    0    0  0.13600492108E+04 -0.35828207876E+03  0.12754173244E+03  0.14122205201E+04  0.00000000000E+00 0.  1.
<mgrwt>
<rscale>  0 0.28289385E+04</rscale>
<asrwt>0</asrwt>
<pdfrwt beam="1">  1        1 0.26232381E+00 0.28289385E+04</pdfrwt>
<pdfrwt beam="2">  1       -1 0.18051887E+00 0.28289385E+04</pdfrwt>
<totfact> 0.84247601E-01</totfact>
</mgrwt>
</event>
<event>
 6    1  0.1773638E-005  0.3485873E+04  0.7818608E-02  0.8117146E-01
          2   -1    0    0  501    0  0.00000000000E+00  0.00000000000E+00  0.34698677984E+04  0.34698677984E+04  0.00000000000E+00 0. -1.
         -2   -1    0    0    0  501 -0.00000000000E+00 -0.00000000000E+00 -0.87548823624E+03  0.87548823624E+03  0.00000000000E+00 0.  1.
         23    2    1    2    0    0  0.50832639795E+03  0.10523051573E+03  0.33705753755E+04  0.34115738711E+04  0.92675389968E+02 0.  0.
         13    1    3    3    0    0  0.27576418298E+03  0.96916829979E+02  0.20330996099E+04  0.20540040848E+04  0.00000000000E+00 0. -1.
        -13    1    3    3    0    0  0.23256221497E+03  0.83136857503E+01  0.13374757656E+04  0.13575697863E+04  0.00000000000E+00 0.  1.
         22    1    1    2    0    0 -0.50832639795E+03 -0.10523051573E+03 -0.77619581333E+03  0.93378216353E+03  0.00000000000E+00 0.  1.
<mgrwt>
<rscale>  0 0.34858735E+04</rscale>
<asrwt>0</asrwt>
<pdfrwt beam="1">  1        2 0.53382581E+00 0.34858735E+04</pdfrwt>
<pdfrwt beam="2">  1       -2 0.13469050E+00 0.34858735E+04</pdfrwt>
<totfact> 0.27814696E-01</totfact>
</mgrwt>
</event>
<event>
 6    1  0.1773638E-005  0.8661860E+03  0.7818608E-02  0.9468867E-01
         -2   -1    0    0    0  501 -0.00000000000E+00  0.00000000000E+00  0.82337574788E+02  0.82337574788E+02  0.00000000000E+00 0.  1.
          2   -1    0    0  501    0  0.00000000000E+00 -0.00000000000E+00 -0.22780550864E+04  0.22780550864E+04  0.00000000000E+00 0. -1.
         23    2    1    2    0    0 -0.23069339370E+03 -0.93215452181E+02 -0.20600149188E+04  0.20769782012E+04  0.90930853671E+02 0.  0.
         13    1    3    3    0    0 -0.17342965062E+03 -0.95578437471E+02 -0.17917480461E+04  0.18026575221E+04  0.00000000000E+00 0.  1.
        -13    1    3    3    0    0 -0.57263743080E+02  0.23629852894E+01 -0.26826687276E+03  0.27432067912E+03  0.00000000000E+00 0. -1.
         22    1    1    2    0    0  0.23069339370E+03  0.93215452181E+02 -0.13570259276E+03  0.28341445994E+03  0.00000000000E+00 0.  1.
<mgrwt>
<rscale>  0 0.86618596E+03</rscale>
<asrwt>0</asrwt>
<pdfrwt beam="1">  1        2 0.35047004E+00 0.86618596E+03</pdfrwt>
<pdfrwt beam="2">  1       -2 0.12667318E-01 0.86618596E+03</pdfrwt>
<totfact> 0.22155181E+02</totfact>
</mgrwt>
</event>
<event>
 6    1  0.1773638E-005  0.4824960E+04  0.7818608E-02  0.7856091E-01
          2   -1    0    0  501    0  0.00000000000E+00  0.00000000000E+00  0.25487039598E+04  0.25487039598E+04  0.00000000000E+00 0. -1.
         -2   -1    0    0    0  501 -0.00000000000E+00 -0.00000000000E+00 -0.22835370958E+04  0.22835370958E+04  0.00000000000E+00 0.  1.
         23    2    1    2    0    0  0.67576905196E+03 -0.21908988068E+04  0.88158568879E+03  0.24580730833E+04  0.90711424844E+02 0.  0.
         13    1    3    3    0    0  0.13229012801E+03 -0.36185991838E+03  0.11887097871E+03  0.40320415186E+03  0.00000000000E+00 0.  1.
        -13    1    3    3    0    0  0.54347892394E+03 -0.18290388885E+04  0.76271471008E+03  0.20548689314E+04  0.00000000000E+00 0. -1.
         22    1    1    2    0    0 -0.67576905196E+03  0.21908988068E+04 -0.61641882479E+03  0.23741679723E+04  0.00000000000E+00 0.  1.
<mgrwt>
<rscale>  0 0.48249601E+04</rscale>
<asrwt>0</asrwt>
<pdfrwt beam="1">  1        2 0.39210830E+00 0.48249601E+04</pdfrwt>
<pdfrwt beam="2">  1       -2 0.35131340E+00 0.48249601E+04</pdfrwt>
<totfact> 0.36749095E-02</totfact>
</mgrwt>
</event>
<event>
 6    1  0.1773638E-005  0.2146451E+04  0.7818608E-02  0.8541053E-01
         -2   -1    0    0    0  501 -0.00000000000E+00  0.00000000000E+00  0.50915470348E+03  0.50915470348E+03  0.00000000000E+00 0.  1.
          2   -1    0    0  501    0  0.00000000000E+00 -0.00000000000E+00 -0.22622070571E+04  0.22622070571E+04  0.00000000000E+00 0. -1.
         23    2    1    2    0    0  0.16457479190E+03 -0.56068987040E+03  0.28130932084E+03  0.65474053433E+03  0.89956880823E+02 0.  0.
         13    1    3    3    0    0  0.50327741971E+02 -0.27827159764E+03  0.98501879039E+02  0.29945046976E+03  0.00000000000E+00 0.  1.
        -13    1    3    3    0    0  0.11424704993E+03 -0.28241827276E+03  0.18280744180E+03  0.35529006457E+03  0.00000000000E+00 0. -1.
         22    1    1    2    0    0 -0.16457479190E+03  0.56068987040E+03 -0.20343616744E+04  0.21166212262E+04  0.00000000000E+00 0. -1.
<mgrwt>
<rscale>  0 0.21464514E+04</rscale>
<asrwt>0</asrwt>
<pdfrwt beam="1">  1        2 0.34803186E+00 0.21464514E+04</pdfrwt>
<pdfrwt beam="2">  1       -2 0.78331492E-01 0.21464514E+04</pdfrwt>
<totfact> 0.63368075E+00</totfact>
</mgrwt>
</event>
<event>
 6    1  0.2348229E-005  0.2735794E+04  0.7818608E-02  0.8323484E-01
          2   -1    0    0  501    0  0.00000000000E+00  0.00000000000E+00  0.15672833458E+04  0.15672833458E+04  0.00000000000E+00 0. -1.
         -2   -1    0    0    0  501 -0.00000000000E+00 -0.00000000000E+00 -0.11938761747E+04  0.11938761747E+04  0.00000000000E+00 0.  1.
         23    2    1    2    0    0  0.13221037123E+04  0.80000766455E+01 -0.16135623194E+03  0.13349778615E+04  0.90043487655E+02 0.  0.
         13    1    3    3    0    0  0.10760218941E+04 -0.10910723975E+02 -0.16177783105E+03  0.10881701279E+04  0.00000000000E+00 0.  1.
        -13    1    3    3    0    0  0.24608181817E+03  0.18910800621E+02  0.42159911230E+00  0.24680773359E+03  0.00000000000E+00 0. -1.
         22    1    1    2    0    0 -0.13221037123E+04 -0.80000766455E+01  0.53476340310E+03  0.14261816591E+04  0.00000000000E+00 0. -1.
<mgrwt>
<rscale>  0 0.27357940E+04</rscale>
<asrwt>0</asrwt>
<pdfrwt beam="1">  1        2 0.24112052E+00 0.27357940E+04</pdfrwt>
<pdfrwt beam="2">  1       -2 0.18367326E+00 0.27357940E+04</pdfrwt>
<totfact> 0.17411556E+00</totfact>
</mgrwt>
</event>
<event>
 6    1  0.1773638E-005  0.6739935E+03  0.7818608E-02  0.9762770E-01
         -3   -1    0    0    0  501 -0.00000000000E+00  0.00000000000E+00  0.22577372585E+03  0.22577372585E+03  0.00000000000E+00 0.  1.
          3   -1    0    0  501    0  0.00000000000E+00 -0.00000000000E+00 -0.50301159310E+03  0.50301159310E+03  0.00000000000E+00 0. -1.
         23    2    1    2    0    0  0.75445103411E+02  0.27208575673E+03 -0.32618005342E+03  0.44222300420E+03  0.97186087247E+02 0.  0.
         11    1    3    3    0    0 -0.14471715464E+02  0.11581216440E+03 -0.10620570230E+03  0.15780221536E+03  0.00000000000E+00 0. -1.
        -11    1    3    3    0    0  0.89916818875E+02  0.15627359233E+03 -0.21997435111E+03  0.28442078884E+03  0.00000000000E+00 0.  1.
         22    1    1    2    0    0 -0.75445103411E+02 -0.27208575673E+03  0.48942186169E+02  0.28656231475E+03  0.00000000000E+00 0.  1.
<mgrwt>
<rscale>  0 0.67399348E+03</rscale>
<asrwt>0</asrwt>
<pdfrwt beam="1">  1        3 0.77386398E-01 0.67399348E+03</pdfrwt>
<pdfrwt beam="2">  1       -3 0.34734420E-01 0.67399348E+03</pdfrwt>
<totfact> 0.33806733E+01</totfact>
</mgrwt>
</event>
<event>
 6    1  0.1773638E-005  0.2407637E+04  0.7818608E-02  0.8436650E-01
         -1   -1    0    0    0  501 -0.00000000000E+00  0.00000000000E+00  0.14358168489E+04  0.14358168489E+04  0.00000000000E+00 0.  1.
          1   -1    0    0  501    0  0.00000000000E+00 -0.00000000000E+00 -0.10093061959E+04  0.10093061959E+04  0.00000000000E+00 0. -1.
         23    2    1    2    0    0  0.79543156338E+03 -0.89452247291E+03  0.32383317396E+03  0.12436970208E+04  0.95039614566E+02 0.  0.
         11    1    3    3    0    0  0.21292911140E+03 -0.27498746760E+03  0.13170196767E+03  0.37189020168E+03  0.00000000000E+00 0. -1.
        -11    1    3    3    0    0  0.58250245197E+03 -0.61953500532E+03  0.19213120628E+03  0.87180681908E+03  0.00000000000E+00 0.  1.
         22    1    1    2    0    0 -0.79543156338E+03  0.89452247291E+03  0.10267747897E+03  0.12014260240E+04  0.00000000000E+00 0. -1.
<mgrwt>
<rscale>  0 0.24076369E+04</rscale>
<asrwt>0</asrwt>
<pdfrwt beam="1">  1        1 0.15527788E+00 0.24076369E+04</pdfrwt>
<pdfrwt beam="2">  1       -1 0.22089490E+00 0.24076369E+04</pdfrwt>
<totfact> 0.14462827E+00</totfact>
</mgrwt>
</event>
<event>
 6    1  0.1773638E-005  0.7290556E+04  0.7818608E-02  0.7548191E-01
         -2   -1    0    0    0  501 -0.00000000000E+00  0.00000000000E+00  0.41795392193E+04  0.41795392193E+04  0.00000000000E+00 0. -1.
          2   -1    0    0  501    0  0.00000000000E+00 -0.00000000000E+00 -0.31793102396E+04  0.31793102396E+04  0.00000000000E+00 0.  1.
         23    2    1    2    0    0 -0.15732364848E+04 -0.29068091885E+04  0.20508501754E+04  0.38906485431E+04  0.80913214454E+02 0.  0.
         11    1    3    3    0    0 -0.99417390422E+03 -0.17545706079E+04  0.12454144471E+04  0.23702229674E+04  0.00000000000E+00 0.  1.
        -11    1    3    3    0    0 -0.57906258058E+03 -0.11522385806E+04  0.80543572828E+03  0.15204255757E+04  0.00000000000E+00 0. -1.
         22    1    1    2    0    0  0.15732364848E+04  0.29068091885E+04 -0.10506211956E+04  0.34682009158E+04  0.00000000000E+00 0. -1.
<mgrwt>
<rscale>  0 0.72905560E+04</rscale>
<asrwt>0</asrwt>
<pdfrwt beam="1">  1        2 0.48912465E+00 0.72905560E+04</pdfrwt>
<pdfrwt beam="2">  1       -2 0.64300604E+00 0.72905560E+04</pdfrwt>
<totfact> 0.29870965E-04</totfact>
</mgrwt>
</event>
<event>
 6    1  0.1773638E-005  0.3567207E+04  0.7818608E-02  0.8098045E-01
          2   -1    0    0  501    0  0.00000000000E+00  0.00000000000E+00  0.12992738806E+04  0.12992738806E+04  0.00000000000E+00 0. -1.
         -2   -1    0    0    0  501 -0.00000000000E+00 -0.00000000000E+00 -0.24484761018E+04  0.24484761018E+04  0.00000000000E+00 0.  1.
         23    2    1    2    0    0  0.12308324640E+04 -0.73924104459E+03 -0.16846307861E+04  0.22153957073E+04  0.92581735720E+02 0.  0.
         13    1    3    3    0    0  0.10491776500E+04 -0.63539675242E+03 -0.13867861548E+04  0.18513990962E+04  0.00000000000E+00 0. -1.
        -13    1    3    3    0    0  0.18165481400E+03 -0.10384429217E+03 -0.29784463132E+03  0.36399661108E+03  0.00000000000E+00 0.  1.
         22    1    1    2    0    0 -0.12308324640E+04  0.73924104459E+03  0.53542856493E+03  0.15323542752E+04  0.00000000000E+00 0. -1.
<mgrwt>
<rscale>  0 0.35672068E+04</rscale>
<asrwt>0</asrwt>
<pdfrwt beam="1">  1        2 0.19988829E+00 0.35672068E+04</pdfrwt>
<pdfrwt beam="2">  1       -2 0.37668863E+00 0.35672068E+04</pdfrwt>
<totfact> 0.14212552E-01</totfact>
</mgrwt>
</event>
<event>
 6    1  0.1773638E-005  0.1328889E+04  0.7818608E-02  0.9006964E-01
         -1   -1    0    0    0  501 -0.00000000000E+00  0.00000000000E+00  0.23663363350E+03  0.23663363350E+03  0.00000000000E+00 0.  1.
          1   -1    0    0  501    0  0.00000000000E+00 -0.00000000000E+00 -0.18656963696E+04  0.18656963696E+04  0.00000000000E+00 0. -1.
         23    2    1    2    0    0 -0.44454243887E+03 -0.13212119846E+03 -0.82113944665E+02  0.48736110112E+03  0.12531620779E+03 0.  0.
         13    1    3    3    0    0 -0.25285680865E+03 -0.40033211828E+02 -0.97971198411E+02  0.27411234822E+03  0.00000000000E+00 0. -1.
        -13    1    3    3    0    0 -0.19168563023E+03 -0.92087986632E+02  0.15857253746E+02  0.21324875290E+03  0.00000000000E+00 0.  1.
         22    1    1    2    0    0  0.44454243887E+03  0.13212119846E+03 -0.15469487914E+04  0.16149689020E+04  0.00000000000E+00 0. -1.
<mgrwt>
<rscale>  0 0.13288890E+04</rscale>
<asrwt>0</asrwt>
<pdfrwt beam="1">  1        1 0.28703021E+00 0.13288890E+04</pdfrwt>
<pdfrwt beam="2">  1       -1 0.36405175E-01 0.13288890E+04</pdfrwt>
<totfact> 0.26069681E+01</totfact>
</mgrwt>
</event>
<event>
 6    1  0.1773638E-005  0.5411925E+04  0.7818608E-02  0.7767926E-01
          2   -1    0    0  501    0  0.00000000000E+00  0.00000000000E+00  0.42124813600E+04  0.42124813600E+04  0.00000000000E+00 0. -1.
         -2   -1    0    0    0  501 -0.00000000000E+00 -0.00000000000E+00 -0.17382229847E+04  0.17382229847E+04  0.00000000000E+00 0.  1.
         23    2    1    2    0    0 -0.42577775158E+03 -0.10691317348E+04  0.39294133484E+04  0.40954940183E+04  0.91938191692E+02 0.  0.
         13    1    3    3    0    0 -0.95500893132E+02 -0.35477621652E+03  0.12337182121E+04  0.12872634584E+04  0.00000000000E+00 0. -1.
        -13    1    3    3    0    0 -0.33027685845E+03 -0.71435551826E+03  0.26956951362E+04  0.28082305598E+04  0.00000000000E+00 0.  1.
         22    1    1    2    0    0  0.42577775158E+03  0.10691317348E+04 -0.14551549731E+04  0.18552103265E+04  0.00000000000E+00 0.  1.
<mgrwt>
<rscale>  0 0.54119246E+04</rscale>
<asrwt>0</asrwt>
<pdfrwt beam="1">  1        2 0.64807405E+00 0.54119246E+04</pdfrwt>
<pdfrwt beam="2">  1       -2 0.26741892E+00 0.54119246E+04</pdfrwt>
<totfact> 0.79760983E-03</totfact>
</mgrwt>
</event>
<event>
 6    1  0.1773638E-005  0.1769634E+04  0.7818608E-02  0.8722617E-01
         -2   -1    0    0    0  501 -0.00000000000E+00  0.00000000000E+00  0.18649358260E+04  0.18649358260E+04  0.00000000000E+00 0.  1.
          2   -1    0    0  501    0  0.00000000000E+00 -0.00000000000E+00 -0.41980037177E+03  0.41980037177E+03  0.00000000000E+00 0. -1.
         23    2    1    2    0    0  0.69548494808E+03  0.47391834905E+03  0.10671155059E+04  0.13621328183E+04  0.91500803335E+02 0.  0.
         11    1    3    3    0    0  0.23644466958E+03  0.15741632565E+03  0.43166123121E+03  0.51673726388E+03  0.00000000000E+00 0.  1.
        -11    1    3    3    0    0  0.45904027850E+03  0.31650202340E+03  0.63545427472E+03  0.84539555437E+03  0.00000000000E+00 0. -1.
         22    1    1    2    0    0 -0.69548494808E+03 -0.47391834905E+03  0.37801994829E+03  0.92260337950E+03  0.00000000000E+00 0. -1.
<mgrwt>
<rscale>  0 0.17696336E+04</rscale>
<asrwt>0</asrwt>
<pdfrwt beam="1">  1        2 0.64584674E-01 0.17696336E+04</pdfrwt>
<pdfrwt beam="2">  1       -2 0.28691320E+00 0.17696336E+04</pdfrwt>
<totfact> 0.27260521E+00</totfact>
</mgrwt>
</event>
<event>
 6    1  0.1773638E-005  0.1503786E+04  0.7818608E-02  0.8881939E-01
          1   -1    0    0  501    0  0.00000000000E+00  0.00000000000E+00  0.34931671191E+03  0.34931671191E+03  0.00000000000E+00 0. -1.
         -1   -1    0    0    0  501 -0.00000000000E+00 -0.00000000000E+00 -0.16184264528E+04  0.16184264528E+04  0.00000000000E+00 0.  1.
         23    2    1    2    0    0  0.61321668674E+03 -0.37408336209E+02 -0.74906475491E+02  0.62477796502E+03  0.85454297651E+02 0.  0.
         13    1    3    3    0    0  0.22011229013E+03  0.18449162180E+01  0.11347238887E+02  0.22041230413E+03  0.00000000000E+00 0.  1.
        -13    1    3    3    0    0  0.39310439662E+03 -0.39253252427E+02 -0.86253714379E+02  0.40436566089E+03  0.00000000000E+00 0. -1.
         22    1    1    2    0    0 -0.61321668674E+03  0.37408336209E+02 -0.11942032654E+04  0.13429651997E+04  0.00000000000E+00 0. -1.
<mgrwt>
<rscale>  0 0.15037864E+04</rscale>
<asrwt>0</asrwt>
<pdfrwt beam="1">  1        1 0.53741033E-01 0.15037864E+04</pdfrwt>
<pdfrwt beam="2">  1       -1 0.24898869E+00 0.15037864E+04</pdfrwt>
<totfact> 0.49183939E+00</totfact>
</mgrwt>
</event>
<event>
 6    1  0.1773638E-005  0.3128333E+04  0.7818608E-02  0.8208005E-01
         -2   -1    0    0    0  501 -0.00000000000E+00  0.00000000000E+00  0.14174557338E+04  0.14174557338E+04  0.00000000000E+00 0. -1.
          2   -1    0    0  501    0  0.00000000000E+00 -0.00000000000E+00 -0.17260619129E+04  0.17260619129E+04  0.00000000000E+00 0.  1.
         23    2    1    2    0    0 -0.57545485813E+03 -0.46771678484E+00 -0.16145871110E+04  0.17163755000E+04  0.88908973870E+02 0.  0.
         11    1    3    3    0    0 -0.19174213002E+03  0.11598828573E+02 -0.42547674497E+03  0.46682977386E+03  0.00000000000E+00 0. -1.
        -11    1    3    3    0    0 -0.38371272811E+03 -0.12066545358E+02 -0.11891103660E+04  0.12495457261E+04  0.00000000000E+00 0.  1.
         22    1    1    2    0    0  0.57545485813E+03  0.46771678484E+00  0.13059809318E+04  0.14271421467E+04  0.00000000000E+00 0. -1.
<mgrwt>
<rscale>  0 0.31283327E+04</rscale>
<asrwt>0</asrwt>
<pdfrwt beam="1">  1        2 0.26554799E+00 0.31283327E+04</pdfrwt>
<pdfrwt beam="2">  1       -2 0.21807011E+00 0.31283327E+04</pdfrwt>
<totfact> 0.81684413E-01</totfact>
</mgrwt>
</event>
<event>
 6    1  0.1773638E-005  0.1905939E+04  0.7818608E-02  0.8651906E-01
          2   -1    0    0  501    0  0.00000000000E+00  0.00000000000E+00  0.10967641186E+04  0.10967641186E+04  0.00000000000E+00 0. -1.
         -2   -1    0    0    0  501 -0.00000000000E+00 -0.00000000000E+00 -0.82802725439E+03  0.82802725439E+03  0.00000000000E+00 0.  1.
         23    2    1    2    0    0 -0.37760820279E+03 -0.27113020728E+03  0.97218929585E+03  0.10816159062E+04  0.92959117802E+02 0.  0.
         13    1    3    3    0    0 -0.12066137250E+03 -0.45465165199E+02  0.21349646383E+03  0.24941328779E+03  0.00000000000E+00 0. -1.
        -13    1    3    3    0    0 -0.25694683029E+03 -0.22566504208E+03  0.75869283202E+03  0.83220261846E+03  0.00000000000E+00 0.  1.
         22    1    1    2    0    0  0.37760820279E+03  0.27113020728E+03 -0.70345243165E+03  0.84317546673E+03  0.00000000000E+00 0.  1.
<mgrwt>
<rscale>  0 0.19059387E+04</rscale>
<asrwt>0</asrwt>
<pdfrwt beam="1">  1        2 0.16873294E+00 0.19059387E+04</pdfrwt>
<pdfrwt beam="2">  1       -2 0.12738881E+00 0.19059387E+04</pdfrwt>
<totfact> 0.93675768E+00</totfact>
</mgrwt>
</event>
<event>
 6    1  0.1773638E-005  0.1549337E+04  0.7818608E-02  0.8852291E-01
         -2   -1    0    0    0  501 -0.00000000000E+00  0.00000000000E+00  0.59568099612E+03  0.59568099612E+03  0.00000000000E+00 0.  1.
          2   -1    0    0  501    0  0.00000000000E+00 -0.00000000000E+00 -0.10074379472E+04  0.10074379472E+04  0.00000000000E+00 0. -1.
         23    2    1    2    0    0 -0.68515862238E+03 -0.32106417010E+03 -0.57013719992E+02  0.76743521182E+03  0.11481158883E+03 0.  0.
         13    1    3    3    0    0 -0.21338869920E+03 -0.15982987394E+03 -0.12769328642E+02  0.26691455805E+03  0.00000000000E+00 0. -1.
        -13    1    3    3    0    0 -0.47176992318E+03 -0.16123429616E+03 -0.44244391351E+02  0.50052065376E+03  0.00000000000E+00 0.  1.
         22    1    1    2    0    0  0.68515862238E+03  0.32106417010E+03 -0.35474323113E+03  0.83568373155E+03  0.00000000000E+00 0. -1.
<mgrwt>
<rscale>  0 0.15493375E+04</rscale>
<asrwt>0</asrwt>
<pdfrwt beam="1">  1        2 0.15499045E+00 0.15493375E+04</pdfrwt>
<pdfrwt beam="2">  1       -2 0.91643231E-01 0.15493375E+04</pdfrwt>
<totfact> 0.24310114E+01</totfact>
</mgrwt>
</event>
<event>
 6    1  0.1773638E-005  0.3354830E+04  0.7818608E-02  0.8149082E-01
         -2   -1    0    0    0  501 -0.00000000000E+00  0.00000000000E+00  0.26352645120E+04  0.26352645120E+04  0.00000000000E+00 0.  1.
          2   -1    0    0  501    0  0.00000000000E+00 -0.00000000000E+00 -0.10677189709E+04  0.10677189709E+04  0.00000000000E+00 0. -1.
         23    2    1    2    0    0  0.83155729564E+03  0.78205184952E+03 -0.57030855772E+03  0.12794503638E+04  0.92998662543E+02 0.  0.
         11    1    3    3    0    0  0.18523679286E+03  0.13186060398E+03 -0.13667443306E+03  0.26529189389E+03  0.00000000000E+00 0.  1.
        -11    1    3    3    0    0  0.64632050278E+03  0.65019124554E+03 -0.43363412467E+03  0.10141584699E+04  0.00000000000E+00 0. -1.
         22    1    1    2    0    0 -0.83155729564E+03 -0.78205184952E+03  0.21378540988E+04  0.24235331190E+04  0.00000000000E+00 0.  1.
<mgrwt>
<rscale>  0 0.33548305E+04</rscale>
<asrwt>0</asrwt>
<pdfrwt beam="1">  1        2 0.16426446E+00 0.33548305E+04</pdfrwt>
<pdfrwt beam="2">  1       -2 0.40542531E+00 0.33548305E+04</pdfrwt>
<totfact> 0.12962424E-01</totfact>
</mgrwt>
</event>
<event>
 6    1  0.1773638E-005  0.3095632E+04  0.7818608E-02  0.8216938E-01
          1   -1    0    0  501    0  0.00000000000E+00  0.00000000000E+00  0.19951472555E+04  0.19951472555E+04  0.00000000000E+00 0. -1.
         -1   -1    0    0    0  501 -0.00000000000E+00 -0.00000000000E+00 -0.12007803575E+04  0.12007803575E+04  0.00000000000E+00 0.  1.
         23    2    1    2    0    0 -0.13018400323E+04  0.57736121149E+03 -0.22488378308E+03  0.14446408320E+04  0.90999887292E+02 0.  0.
         11    1    3    3    0    0 -0.56314741165E+03  0.28012183268E+03 -0.63185040176E+02  0.63213574309E+03  0.00000000000E+00 0. -1.
        -11    1    3    3    0    0 -0.73869262062E+03  0.29723937881E+03 -0.16169874291E+03  0.81250508893E+03  0.00000000000E+00 0.  1.
         22    1    1    2    0    0  0.13018400323E+04 -0.57736121149E+03  0.10192506811E+04  0.17512867809E+04  0.00000000000E+00 0. -1.
<mgrwt>
<rscale>  0 0.30956315E+04</rscale>
<asrwt>0</asrwt>
<pdfrwt beam="1">  1        1 0.30694573E+00 0.30956315E+04</pdfrwt>
<pdfrwt beam="2">  1       -1 0.18473544E+00 0.30956315E+04</pdfrwt>
<totfact> 0.48794056E-01</totfact>
</mgrwt>
</event>
<event>
 6    1  0.1773638E-005  0.4367768E+03  0.7818608E-02  0.1031740E+00
         -1   -1    0    0    0  501 -0.00000000000E+00  0.00000000000E+00  0.45001019828E+02  0.45001019828E+02  0.00000000000E+00 0.  1.
          1   -1    0    0  501    0  0.00000000000E+00 -0.00000000000E+00 -0.10598313653E+04  0.10598313653E+04  0.00000000000E+00 0. -1.
         23    2    1    2    0    0  0.41477607652E+02  0.18791613202E+03 -0.32433116560E+03  0.38801861432E+03  0.91295539170E+02 0.  0.
         13    1    3    3    0    0 -0.95074180835E+01  0.54776645243E+02 -0.35626868343E+02  0.66031398672E+02  0.00000000000E+00 0.  1.
        -13    1    3    3    0    0  0.50985025736E+02  0.13313948678E+03 -0.28870429726E+03  0.32198721565E+03  0.00000000000E+00 0. -1.
         22    1    1    2    0    0 -0.41477607652E+02 -0.18791613202E+03 -0.69049917992E+03  0.71681377085E+03  0.00000000000E+00 0. -1.
<mgrwt>
<rscale>  0 0.43677680E+03</rscale>
<asrwt>0</asrwt>
<pdfrwt beam="1">  1        1 0.16305098E+00 0.43677680E+03</pdfrwt>
<pdfrwt beam="2">  1       -1 0.69232337E-02 0.43677680E+03</pdfrwt>
<totfact> 0.15487999E+03</totfact>
</mgrwt>
</event>
<event>
 6    1  0.1773638E-005  0.1360812E+04  0.7818608E-02  0.8982684E-01
         -2   -1    0    0    0  501 -0.00000000000E+00  0.00000000000E+00  0.36548393420E+03  0.36548393420E+03  0.00000000000E+00 0.  1.
          2   -1    0    0  501    0  0.00000000000E+00 -0.00000000000E+00 -0.12666827717E+04  0.12666827717E+04  0.00000000000E+00 0. -1.
         23    2    1    2    0    0 -0.46072430667E+03 -0.49424189173E+03 -0.40832341520E+03  0.79582460115E+03  0.10033369373E+03 0.  0.
         11    1    3    3    0    0 -0.20521747712E+03 -0.15040811707E+03 -0.16317374348E+03  0.30226227876E+03  0.00000000000E+00 0. -1.
        -11    1    3    3    0    0 -0.25550682954E+03 -0.34383377466E+03 -0.24514967172E+03  0.49356232239E+03  0.00000000000E+00 0.  1.
         22    1    1    2    0    0  0.46072430667E+03  0.49424189173E+03 -0.49287542235E+03  0.83634210479E+03  0.00000000000E+00 0.  1.
<mgrwt>
<rscale>  0 0.13608118E+04</rscale>
<asrwt>0</asrwt>
<pdfrwt beam="1">  1        2 0.19487427E+00 0.13608118E+04</pdfrwt>
<pdfrwt beam="2">  1       -2 0.56228298E-01 0.13608118E+04</pdfrwt>
<totfact> 0.50102389E+01</totfact>
</mgrwt>
</event>
<event>
 6    1  0.1773638E-005  0.1690135E+04  0.7818608E-02  0.8767011E-01
         -1   -1    0    0    0  501 -0.00000000000E+00  0.00000000000E+00  0.19665495027E+04  0.19665495027E+04  0.00000000000E+00 0.  1.
          1   -1    0    0  501    0  0.00000000000E+00 -0.00000000000E+00 -0.36314314191E+03  0.36314314191E+03  0.00000000000E+00 0. -1.
         23    2    1    2    0    0  0.71448728726E+02  0.83324499099E+03  0.66171168334E+03  0.10702518952E+04  0.90413668181E+02 0.  0.
         11    1    3    3    0    0  0.53902238204E+02  0.66047234341E+03  0.47541541556E+03  0.81556666499E+03  0.00000000000E+00 0. -1.
        -11    1    3    3    0    0  0.17546490521E+02  0.17277264758E+03  0.18629626777E+03  0.25468523017E+03  0.00000000000E+00 0.  1.
         22    1    1    2    0    0 -0.71448728726E+02 -0.83324499099E+03  0.94169467748E+03  0.12594407495E+04  0.00000000000E+00 0.  1.
<mgrwt>
<rscale>  0 0.16901349E+04</rscale>
<asrwt>0</asrwt>
<pdfrwt beam="1">  1        1 0.55868177E-01 0.16901349E+04</pdfrwt>
<pdfrwt beam="2">  1       -1 0.30254607E+00 0.16901349E+04</pdfrwt>
<totfact> 0.20689586E+00</totfact>
</mgrwt>
</event>
<event>
 6    1  0.1773638E-005  0.8171919E+03  0.7818608E-02  0.9535461E-01
          2   -1    0    0  501    0  0.00000000000E+00  0.00000000000E+00  0.90745454233E+03  0.90745454233E+03  0.00000000000E+00 0. -1.
         -2   -1    0    0    0  501 -0.00000000000E+00 -0.00000000000E+00 -0.18397688313E+03  0.18397688313E+03  0.00000000000E+00 0.  1.
         23    2    1    2    0    0 -0.20618619968E+03 -0.21615346037E+03  0.72886657462E+03  0.79266042992E+03  0.88481671569E+02 0.  0.
         13    1    3    3    0    0 -0.97011957395E+02 -0.12525617212E+03  0.27838825400E+03  0.32031304765E+03  0.00000000000E+00 0.  1.
        -13    1    3    3    0    0 -0.10917424229E+03 -0.90897288240E+02  0.45047832062E+03  0.47234738227E+03  0.00000000000E+00 0. -1.
         22    1    1    2    0    0  0.20618619968E+03  0.21615346037E+03 -0.53889154136E+01  0.29877099554E+03  0.00000000000E+00 0.  1.
<mgrwt>
<rscale>  0 0.81719192E+03</rscale>
<asrwt>0</asrwt>
<pdfrwt beam="1">  1        2 0.13960839E+00 0.81719192E+03</pdfrwt>
<pdfrwt beam="2">  1       -2 0.28304136E-01 0.81719192E+03</pdfrwt>
<totfact> 0.33237091E+02</totfact>
</mgrwt>
</event>
<event>
 6    1  0.1773638E-005  0.1558436E+04  0.7818608E-02  0.8846497E-01
         -2   -1    0    0    0  501 -0.00000000000E+00  0.00000000000E+00  0.21097678924E+03  0.21097678924E+03  0.00000000000E+00 0. -1.
          2   -1    0    0  501    0  0.00000000000E+00 -0.00000000000E+00 -0.28779509164E+04  0.28779509164E+04  0.00000000000E+00 0.  1.
         23    2    1    2    0    0 -0.18896071259E+03  0.43291174325E+03 -0.25597638164E+04  0.26045592725E+04  0.90661345068E+02 0.  0.
         13    1    3    3    0    0 -0.13100382310E+03  0.35319719011E+03 -0.18480435171E+04  0.18860474803E+04  0.00000000000E+00 0. -1.
        -13    1    3    3    0    0 -0.57956889493E+02  0.79714553140E+02 -0.71172029930E+03  0.71851179215E+03  0.00000000000E+00 0.  1.
         22    1    1    2    0    0  0.18896071259E+03 -0.43291174325E+03 -0.10721031073E+03  0.48436843319E+03  0.00000000000E+00 0. -1.
<mgrwt>
<rscale>  0 0.15584362E+04</rscale>
<asrwt>0</asrwt>
<pdfrwt beam="1">  1        2 0.44276168E+00 0.15584362E+04</pdfrwt>
<pdfrwt beam="2">  1       -2 0.32457967E-01 0.15584362E+04</pdfrwt>
<totfact> 0.17726681E+01</totfact>
</mgrwt>
</event>
<event>
 6    1  0.1773638E-005  0.4064199E+04  0.7818608E-02  0.7991719E-01
         -1   -1    0    0    0  501 -0.00000000000E+00  0.00000000000E+00  0.15442383249E+04  0.15442383249E+04  0.00000000000E+00 0.  1.
          1   -1    0    0  501    0  0.00000000000E+00 -0.00000000000E+00 -0.26740874482E+04  0.26740874482E+04  0.00000000000E+00 0. -1.
         23    2    1    2    0    0  0.17945733300E+03 -0.10522210956E+04  0.12282820888E+04  0.16298596285E+04  0.91604315288E+02 0.  0.
         11    1    3    3    0    0  0.75004170986E+02 -0.62837425065E+03  0.77509506774E+03  0.10006258984E+04  0.00000000000E+00 0.  1.
        -11    1    3    3    0    0  0.10445316201E+03 -0.42384684497E+03  0.45318702108E+03  0.62923373012E+03  0.00000000000E+00 0. -1.
         22    1    1    2    0    0 -0.17945733300E+03  0.10522210956E+04 -0.23581312121E+04  0.25884661446E+04  0.00000000000E+00 0. -1.
<mgrwt>
<rscale>  0 0.40641990E+04</rscale>
<asrwt>0</asrwt>
<pdfrwt beam="1">  1        1 0.41139807E+00 0.40641990E+04</pdfrwt>
<pdfrwt beam="2">  1       -1 0.23757513E+00 0.40641990E+04</pdfrwt>
<totfact> 0.67021632E-02</totfact>
</mgrwt>
</event>
<event>
 6    1  0.1773638E-005  0.6161340E+03  0.7818608E-02  0.9872487E-01
          2   -1    0    0  501    0  0.00000000000E+00  0.00000000000E+00  0.99089818927E+03  0.99089818927E+03  0.00000000000E+00 0. -1.
         -2   -1    0    0    0  501 -0.00000000000E+00 -0.00000000000E+00 -0.95777028122E+02  0.95777028122E+02  0.00000000000E+00 0.  1.
         23    2    1    2    0    0 -0.17206209559E+03 -0.24765617647E+03  0.44577071370E+03  0.54551463946E+03  0.89082805286E+02 0.  0.
         11    1    3    3    0    0 -0.69078410162E+02 -0.10999618579E+03  0.27015123814E+03  0.29975436462E+03  0.00000000000E+00 0.  1.
        -11    1    3    3    0    0 -0.10298368543E+03 -0.13765999067E+03  0.17561947556E+03  0.24576027485E+03  0.00000000000E+00 0. -1.
         22    1    1    2    0    0  0.17206209559E+03  0.24765617647E+03  0.44935044745E+03  0.54116057793E+03  0.00000000000E+00 0. -1.
<mgrwt>
<rscale>  0 0.61613402E+03</rscale>
<asrwt>0</asrwt>
<pdfrwt beam="1">  1        2 0.15244587E+00 0.61613402E+03</pdfrwt>
<pdfrwt beam="2">  1       -2 0.14734928E-01 0.61613402E+03</pdfrwt>
<totfact> 0.92910111E+02</totfact>
</mgrwt>
</event>
<event>
 6    1  0.1773638E-005  0.2639766E+04  0.7818608E-02  0.8354818E-01
          2   -1    0    0  501    0  0.00000000000E+00  0.00000000000E+00  0.14056976894E+04  0.14056976894E+04  0.00000000000E+00 0. -1.
         -2   -1    0    0    0  501 -0.00000000000E+00 -0.00000000000E+00 -0.12393068513E+04  0.12393068513E+04  0.00000000000E+00 0.  1.
         23    2    1    2    0    0  0.60958923764E+03 -0.55796990769E+03 -0.94540337331E+03  0.12597190737E+04  0.10087194752E+03 0.  0.
         13    1    3    3    0    0  0.14713125566E+03 -0.81526662804E+02 -0.17679851736E+03  0.24403261848E+03  0.00000000000E+00 0. -1.
        -13    1    3    3    0    0  0.46245798198E+03 -0.47644324489E+03 -0.76860485594E+03  0.10156864552E+04  0.00000000000E+00 0.  1.
         22    1    1    2    0    0 -0.60958923764E+03  0.55796990769E+03  0.11117942114E+04  0.13852854670E+04  0.00000000000E+00 0. -1.
<mgrwt>
<rscale>  0 0.26397657E+04</rscale>
<asrwt>0</asrwt>
<pdfrwt beam="1">  1        2 0.21626118E+00 0.26397657E+04</pdfrwt>
<pdfrwt beam="2">  1       -2 0.19066259E+00 0.26397657E+04</pdfrwt>
<totfact> 0.19429275E+00</totfact>
</mgrwt>
</event>
<event>
 6    1  0.1773638E-005  0.1612626E+04  0.7818608E-02  0.8812829E-01
         -1   -1    0    0    0  501 -0.00000000000E+00  0.00000000000E+00  0.44459257993E+03  0.44459257993E+03  0.00000000000E+00 0.  1.
          1   -1    0    0  501    0  0.00000000000E+00 -0.00000000000E+00 -0.14623291065E+04  0.14623291065E+04  0.00000000000E+00 0. -1.
         23    2    1    2    0    0 -0.13914531512E+03 -0.11934451278E+03 -0.14358359061E+04  0.14504004683E+04  0.91827216112E+02 0.  0.
         11    1    3    3    0    0 -0.25470271609E+02 -0.36088920113E+02 -0.13701953906E+03  0.14396353349E+03  0.00000000000E+00 0.  1.
        -11    1    3    3    0    0 -0.11367504351E+03 -0.83255592662E+02 -0.12988163671E+04  0.13064369348E+04  0.00000000000E+00 0. -1.
         22    1    1    2    0    0  0.13914531512E+03  0.11934451278E+03  0.41809937955E+03  0.45652121816E+03  0.00000000000E+00 0.  1.
<mgrwt>
<rscale>  0 0.16126260E+04</rscale>
<asrwt>0</asrwt>
<pdfrwt beam="1">  1        1 0.22497371E+00 0.16126260E+04</pdfrwt>
<pdfrwt beam="2">  1       -1 0.68398858E-01 0.16126260E+04</pdfrwt>
<totfact> 0.14409308E+01</totfact>
</mgrwt>
</event>
<event>
 6    1  0.1773638E-005  0.1139312E+04  0.7818608E-02  0.9167700E-01
          2   -1    0    0  501    0  0.00000000000E+00  0.00000000000E+00  0.67317454767E+03  0.67317454767E+03  0.00000000000E+00 0. -1.
         -2   -1    0    0    0  501 -0.00000000000E+00 -0.00000000000E+00 -0.48205657004E+03  0.48205657004E+03  0.00000000000E+00 0.  1.
         23    2    1    2    0    0 -0.13564654878E+03  0.37010903922E+03  0.50787531113E+03  0.64954752550E+03  0.92703662919E+02 0.  0.
         13    1    3    3    0    0 -0.18395852975E+02  0.14341395030E+03  0.13588185352E+03  0.19841836272E+03  0.00000000000E+00 0.  1.
        -13    1    3    3    0    0 -0.11725069580E+03  0.22669508892E+03  0.37199345761E+03  0.45112916278E+03  0.00000000000E+00 0. -1.
         22    1    1    2    0    0  0.13564654878E+03 -0.37010903922E+03 -0.31675733350E+03  0.50568359221E+03  0.00000000000E+00 0.  1.
<mgrwt>
<rscale>  0 0.11393124E+04</rscale>
<asrwt>0</asrwt>
<pdfrwt beam="1">  1        2 0.10356532E+00 0.11393124E+04</pdfrwt>
<pdfrwt beam="2">  1       -2 0.74162549E-01 0.11393124E+04</pdfrwt>
<totfact> 0.69834974E+01</totfact>
</mgrwt>
</event>
<event>
 6    1  0.1773638E-005  0.2368323E+04  0.7818608E-02  0.8451459E-01
         -2   -1    0    0    0  501 -0.00000000000E+00  0.00000000000E+00  0.76474241269E+03  0.76474241269E+03  0.00000000000E+00 0.  1.
          2   -1    0    0  501    0  0.00000000000E+00 -0.00000000000E+00 -0.18336085325E+04  0.18336085325E+04  0.00000000000E+00 0. -1.
         23    2    1    2    0    0  0.72977193813E+03 -0.19538332123E+03  0.46263625099E+03  0.89065037553E+03  0.92108994157E+02 0.  0.
         13    1    3    3    0    0  0.37709858741E+03 -0.78986593291E+02  0.28333702420E+03  0.47824898936E+03  0.00000000000E+00 0.  1.
        -13    1    3    3    0    0  0.35267335072E+03 -0.11639672794E+03  0.17929922679E+03  0.41240138617E+03  0.00000000000E+00 0. -1.
         22    1    1    2    0    0 -0.72977193813E+03  0.19538332123E+03 -0.15315023708E+04  0.17077005697E+04  0.00000000000E+00 0. -1.
<mgrwt>
<rscale>  0 0.23683228E+04</rscale>
<asrwt>0</asrwt>
<pdfrwt beam="1">  1        2 0.28209362E+00 0.23683228E+04</pdfrwt>
<pdfrwt beam="2">  1       -2 0.11765268E+00 0.23683228E+04</pdfrwt>
<totfact> 0.41557715E+00</totfact>
</mgrwt>
</event>
<event>
 6    1  0.1773638E-005  0.1411726E+04  0.7818608E-02  0.8945374E-01
         -1   -1    0    0    0  501 -0.00000000000E+00  0.00000000000E+00  0.33723701182E+03  0.33723701182E+03  0.00000000000E+00 0.  1.
          1   -1    0    0  501    0  0.00000000000E+00 -0.00000000000E+00 -0.14774262554E+04  0.14774262554E+04  0.00000000000E+00 0. -1.
         23    2    1    2    0    0  0.25497418129E+03  0.16085993131E+03 -0.13886586341E+04  0.14239910407E+04  0.92140822885E+02 0.  0.
         11    1    3    3    0    0  0.10976194885E+03  0.17439033130E+02 -0.48567567731E+03  0.49822953427E+03  0.00000000000E+00 0. -1.
        -11    1    3    3    0    0  0.14521223244E+03  0.14342089818E+03 -0.90298295678E+03  0.92576150640E+03  0.00000000000E+00 0.  1.
         22    1    1    2    0    0 -0.25497418129E+03 -0.16085993131E+03  0.24846939048E+03  0.39067222659E+03  0.00000000000E+00 0.  1.
<mgrwt>
<rscale>  0 0.14117263E+04</rscale>
<asrwt>0</asrwt>
<pdfrwt beam="1">  1        1 0.22729635E+00 0.14117263E+04</pdfrwt>
<pdfrwt beam="2">  1       -1 0.51882617E-01 0.14117263E+04</pdfrwt>
<totfact> 0.24706805E+01</totfact>
</mgrwt>
</event>
<event>
 6    1  0.1773638E-005  0.6831716E+03  0.7818608E-02  0.9746452E-01
          2   -1    0    0  501    0  0.00000000000E+00  0.00000000000E+00  0.84232650134E+03  0.84232650134E+03  0.00000000000E+00 0. -1.
         -2   -1    0    0    0  501 -0.00000000000E+00 -0.00000000000E+00 -0.13852212465E+03  0.13852212465E+03  0.00000000000E+00 0.  1.
         23    2    1    2    0    0  0.13409190643E+03 -0.15837434943E+03 -0.20379708370E+02  0.22751890869E+03  0.91029925677E+02 0.  0.
         11    1    3    3    0    0  0.88049386541E+02 -0.35040892718E+02 -0.13140890497E+02  0.95672575150E+02  0.00000000000E+00 0. -1.
        -11    1    3    3    0    0  0.46042519885E+02 -0.12333345671E+03 -0.72388178723E+01  0.13184633354E+03  0.00000000000E+00 0.  1.
         22    1    1    2    0    0 -0.13409190643E+03  0.15837434943E+03  0.72418408506E+03  0.75332971731E+03  0.00000000000E+00 0. -1.
<mgrwt>
<rscale>  0 0.68317159E+03</rscale>
<asrwt>0</asrwt>
<pdfrwt beam="1">  1        2 0.12958869E+00 0.68317159E+03</pdfrwt>
<pdfrwt beam="2">  1       -2 0.21311097E-01 0.68317159E+03</pdfrwt>
<totfact> 0.61683344E+02</totfact>
</mgrwt>
</event>
<event>
 6    1  0.1773638E-005  0.1192510E+04  0.7818608E-02  0.9119438E-01
          2   -1    0    0  501    0  0.00000000000E+00  0.00000000000E+00  0.21518421563E+04  0.21518421563E+04  0.00000000000E+00 0. -1.
         -2   -1    0    0    0  501 -0.00000000000E+00 -0.00000000000E+00 -0.16521652425E+03  0.16521652425E+03  0.00000000000E+00 0.  1.
         23    2    1    2    0    0  0.36331420505E+02 -0.25317762343E+03  0.20381453004E+04  0.20561503492E+04  0.91099462427E+02 0.  0.
         11    1    3    3    0    0  0.61007974654E+02 -0.22513345124E+03  0.18098856299E+04  0.18248542509E+04  0.00000000000E+00 0.  1.
        -11    1    3    3    0    0 -0.24676554149E+02 -0.28044172195E+02  0.22825967049E+03  0.23129609830E+03  0.00000000000E+00 0. -1.
         22    1    1    2    0    0 -0.36331420505E+02  0.25317762343E+03 -0.51519668337E+02  0.26090833131E+03  0.00000000000E+00 0.  1.
<mgrwt>
<rscale>  0 0.11925098E+04</rscale>
<asrwt>0</asrwt>
<pdfrwt beam="1">  1        2 0.33105262E+00 0.11925098E+04</pdfrwt>
<pdfrwt beam="2">  1       -2 0.25417928E-01 0.11925098E+04</pdfrwt>
<totfact> 0.75724085E+01</totfact>
</mgrwt>
</event>
<event>
 6    1  0.1773638E-005  0.6617947E+03  0.7818608E-02  0.9784896E-01
          2   -1    0    0  501    0  0.00000000000E+00  0.00000000000E+00  0.14320405750E+04  0.14320405750E+04  0.00000000000E+00 0. -1.
         -2   -1    0    0    0  501 -0.00000000000E+00 -0.00000000000E+00 -0.76459467498E+02  0.76459467498E+02  0.00000000000E+00 0.  1.
         23    2    1    2    0    0 -0.17172267780E+03  0.16551251975E+03  0.11901412609E+04  0.12182356542E+04  0.10382107669E+03 0.  0.
         13    1    3    3    0    0 -0.12798815936E+03  0.13581593010E+03  0.67286557101E+03  0.69826571766E+03  0.00000000000E+00 0.  1.
        -13    1    3    3    0    0 -0.43734518433E+02  0.29696589653E+02  0.51727568993E+03  0.51996993656E+03  0.00000000000E+00 0. -1.
         22    1    1    2    0    0  0.17172267780E+03 -0.16551251975E+03  0.16543984654E+03  0.29026438825E+03  0.00000000000E+00 0.  1.
<mgrwt>
<rscale>  0 0.66179471E+03</rscale>
<asrwt>0</asrwt>
<pdfrwt beam="1">  1        2 0.22031392E+00 0.66179471E+03</pdfrwt>
<pdfrwt beam="2">  1       -2 0.11762996E-01 0.66179471E+03</pdfrwt>
<totfact> 0.74073144E+02</totfact>
</mgrwt>
</event>
<event>
 6    1  0.1773638E-005  0.4005284E+04  0.7818608E-02  0.8003481E-01
          2   -1    0    0  501    0  0.00000000000E+00  0.00000000000E+00  0.38471868239E+04  0.38471868239E+04  0.00000000000E+00 0. -1.
         -2   -1    0    0    0  501 -0.00000000000E+00 -0.00000000000E+00 -0.10424696486E+04  0.10424696486E+04  0.00000000000E+00 0.  1.
         23    2    1    2    0    0 -0.13860371731E+04  0.11478183350E+04  0.24728608669E+04  0.30597071331E+04  0.90448315476E+02 0.  0.
         11    1    3    3    0    0 -0.42808420166E+03  0.40301001181E+03  0.77326182917E+03  0.97139436368E+03  0.00000000000E+00 0.  1.
        -11    1    3    3    0    0 -0.95795297147E+03  0.74480832317E+03  0.16995990377E+04  0.20883127694E+04  0.00000000000E+00 0. -1.
         22    1    1    2    0    0  0.13860371731E+04 -0.11478183350E+04  0.33185630839E+03  0.18299493394E+04  0.00000000000E+00 0.  1.
<mgrwt>
<rscale>  0 0.40052843E+04</rscale>
<asrwt>0</asrwt>
<pdfrwt beam="1">  1        2 0.59187489E+00 0.40052843E+04</pdfrwt>
<pdfrwt beam="2">  1       -2 0.16037995E+00 0.40052843E+04</pdfrwt>
<totfact> 0.88907309E-02</totfact>
</mgrwt>
</event>
<event>
 6    1  0.1773638E-005  0.1985190E+04  0.7818608E-02  0.8613576E-01
         -2   -1    0    0    0  501 -0.00000000000E+00  0.00000000000E+00  0.48951819438E+03  0.48951819438E+03  0.00000000000E+00 0.  1.
          2   -1    0    0  501    0  0.00000000000E+00 -0.00000000000E+00 -0.20126827280E+04  0.20126827280E+04  0.00000000000E+00 0. -1.
         23    2    1    2    0    0 -0.40776966859E+03 -0.70536578234E+02 -0.18974900552E+04  0.19441945537E+04  0.90401557340E+02 0.  0.
         13    1    3    3    0    0 -0.22815641819E+03  0.41492274035E+01 -0.96199492527E+03  0.98868943733E+03  0.00000000000E+00 0. -1.
        -13    1    3    3    0    0 -0.17961325039E+03 -0.74685805637E+02 -0.93549512992E+03  0.95550511636E+03  0.00000000000E+00 0.  1.
         22    1    1    2    0    0  0.40776966859E+03  0.70536578234E+02  0.37432552152E+03  0.55800636874E+03  0.00000000000E+00 0.  1.
<mgrwt>
<rscale>  0 0.19851900E+04</rscale>
<asrwt>0</asrwt>
<pdfrwt beam="1">  1        2 0.30964350E+00 0.19851900E+04</pdfrwt>
<pdfrwt beam="2">  1       -2 0.75310490E-01 0.19851900E+04</pdfrwt>
<totfact> 0.96737091E+00</totfact>
</mgrwt>
</event>
<event>
 6    1  0.1773638E-005  0.2571210E+04  0.7818608E-02  0.8378047E-01
          2   -1    0    0  501    0  0.00000000000E+00  0.00000000000E+00  0.97440970907E+03  0.97440970907E+03  0.00000000000E+00 0. -1.
         -2   -1    0    0    0  501 -0.00000000000E+00 -0.00000000000E+00 -0.16961861453E+04  0.16961861453E+04  0.00000000000E+00 0.  1.
         23    2    1    2    0    0 -0.11668200047E+04  0.36661409942E+03 -0.76717784970E+03  0.14466938527E+04  0.92121816119E+02 0.  0.
         13    1    3    3    0    0 -0.45135133552E+03  0.14307202486E+03 -0.35040191981E+03  0.58904086258E+03  0.00000000000E+00 0. -1.
        -13    1    3    3    0    0 -0.71546866920E+03  0.22354207456E+03 -0.41677592988E+03  0.85765299010E+03  0.00000000000E+00 0.  1.
         22    1    1    2    0    0  0.11668200047E+04 -0.36661409942E+03  0.45401413496E+02  0.12239020017E+04  0.00000000000E+00 0. -1.
<mgrwt>
<rscale>  0 0.25712100E+04</rscale>
<asrwt>0</asrwt>
<pdfrwt beam="1">  1        2 0.14990919E+00 0.25712100E+04</pdfrwt>
<pdfrwt beam="2">  1       -2 0.26095171E+00 0.25712100E+04</pdfrwt>
<totfact> 0.12771799E+00</totfact>
</mgrwt>
</event>
<event>
 6    1  0.1773638E-005  0.1079282E+04  0.7818608E-02  0.9225623E-01
         -3   -1    0    0    0  501 -0.00000000000E+00  0.00000000000E+00  0.55731062215E+03  0.55731062215E+03  0.00000000000E+00 0.  1.
          3   -1    0    0  501    0  0.00000000000E+00 -0.00000000000E+00 -0.52253189780E+03  0.52253189780E+03  0.00000000000E+00 0. -1.
         23    2    1    2    0    0 -0.28121384715E+03 -0.93670605321E+02 -0.42895397101E+03  0.52947589407E+03  0.92129273405E+02 0.  0.
         11    1    3    3    0    0 -0.11253795200E+03 -0.62348143175E+02 -0.25239442318E+03  0.28329318108E+03  0.00000000000E+00 0.  1.
        -11    1    3    3    0    0 -0.16867589515E+03 -0.31322462146E+02 -0.17655954784E+03  0.24618271298E+03  0.00000000000E+00 0. -1.
         22    1    1    2    0    0  0.28121384715E+03  0.93670605321E+02  0.46373269537E+03  0.55036662588E+03  0.00000000000E+00 0.  1.
<mgrwt>
<rscale>  0 0.10792823E+04</rscale>
<asrwt>0</asrwt>
<pdfrwt beam="1">  1        3 0.80389523E-01 0.10792823E+04</pdfrwt>
<pdfrwt beam="2">  1       -3 0.85740096E-01 0.10792823E+04</pdfrwt>
<totfact> 0.46681942E+00</totfact>
</mgrwt>
</event>
<event>
 6    1  0.1773638E-005  0.3027563E+04  0.7818608E-02  0.8235904E-01
         -2   -1    0    0    0  501 -0.00000000000E+00  0.00000000000E+00  0.11714061490E+04  0.11714061490E+04  0.00000000000E+00 0. -1.
          2   -1    0    0  501    0  0.00000000000E+00 -0.00000000000E+00 -0.19562250907E+04  0.19562250907E+04  0.00000000000E+00 0.  1.
         23    2    1    2    0    0  0.98157155625E+03  0.97592858358E+03  0.23697852815E+03  0.14071692698E+04  0.89706246784E+02 0.  0.
         13    1    3    3    0    0  0.71057687617E+03  0.73510782277E+03  0.20908694456E+03  0.10435613822E+04  0.00000000000E+00 0.  1.
        -13    1    3    3    0    0  0.27099468009E+03  0.24082076081E+03  0.27891583590E+02  0.36360788758E+03  0.00000000000E+00 0. -1.
         22    1    1    2    0    0 -0.98157155625E+03 -0.97592858358E+03 -0.10217974699E+04  0.17204619699E+04  0.00000000000E+00 0.  1.
<mgrwt>
<rscale>  0 0.30275628E+04</rscale>
<asrwt>0</asrwt>
<pdfrwt beam="1">  1        2 0.30095770E+00 0.30275628E+04</pdfrwt>
<pdfrwt beam="2">  1       -2 0.18021633E+00 0.30275628E+04</pdfrwt>
<totfact> 0.10907229E+00</totfact>
</mgrwt>
</event>
<event>
 6    1  0.1773638E-005  0.3279106E+03  0.7818608E-02  0.1072065E+00
         -2   -1    0    0    0  501 -0.00000000000E+00  0.00000000000E+00  0.36372208129E+02  0.36372208129E+02  0.00000000000E+00 0. -1.
          2   -1    0    0  501    0  0.00000000000E+00 -0.00000000000E+00 -0.73906274129E+03  0.73906274129E+03  0.00000000000E+00 0.  1.
         23    2    1    2    0    0  0.10550520815E+03 -0.12503362105E+02 -0.12388609667E+03  0.18696043110E+03  0.91207208251E+02 0.  0.
         11    1    3    3    0    0  0.42956945586E+02  0.59229578789E+01 -0.11276194879E+03  0.12081240706E+03  0.00000000000E+00 0. -1.
        -11    1    3    3    0    0  0.62548262567E+02 -0.18426319984E+02 -0.11124147879E+02  0.66148024039E+02  0.00000000000E+00 0.  1.
         22    1    1    2    0    0 -0.10550520815E+03  0.12503362105E+02 -0.57880443649E+03  0.58847451832E+03  0.00000000000E+00 0.  1.
<mgrwt>
<rscale>  0 0.32791062E+03</rscale>
<asrwt>0</asrwt>
<pdfrwt beam="1">  1        2 0.11370195E+00 0.32791062E+03</pdfrwt>
<pdfrwt beam="2">  1       -2 0.55957247E-02 0.32791062E+03</pdfrwt>
<totfact> 0.64807015E+03</totfact>
</mgrwt>
</event>
<event>
 6    1  0.1773638E-005  0.1923794E+04  0.7818608E-02  0.8643102E-01
          2   -1    0    0  501    0  0.00000000000E+00  0.00000000000E+00  0.20686076600E+04  0.20686076600E+04  0.00000000000E+00 0. -1.
         -2   -1    0    0    0  501 -0.00000000000E+00 -0.00000000000E+00 -0.44727947405E+03  0.44727947405E+03  0.00000000000E+00 0.  1.
         23    2    1    2    0    0  0.22865659178E+02  0.25239625268E+03  0.20230150388E+04  0.20409355213E+04  0.92742915192E+02 0.  0.
         13    1    3    3    0    0 -0.21509699619E+02  0.29785005461E+02  0.46807705617E+03  0.46951671348E+03  0.00000000000E+00 0.  1.
        -13    1    3    3    0    0  0.44375358797E+02  0.22261124722E+03  0.15549379826E+04  0.15714188078E+04  0.00000000000E+00 0. -1.
         22    1    1    2    0    0 -0.22865659178E+02 -0.25239625268E+03 -0.40168685281E+03  0.47495161275E+03  0.00000000000E+00 0.  1.
<mgrwt>
<rscale>  0 0.19237939E+04</rscale>
<asrwt>0</asrwt>
<pdfrwt beam="1">  1        2 0.31824733E+00 0.19237939E+04</pdfrwt>
<pdfrwt beam="2">  1       -2 0.68812228E-01 0.19237939E+04</pdfrwt>
<totfact> 0.11035510E+01</totfact>
</mgrwt>
</event>
<event>
 6    1  0.1773638E-005  0.2166117E+04  0.7818608E-02  0.8532665E-01
          2   -1    0    0  501    0  0.00000000000E+00  0.00000000000E+00  0.11897583433E+04  0.11897583433E+04  0.00000000000E+00 0. -1.
         -2   -1    0    0    0  501 -0.00000000000E+00 -0.00000000000E+00 -0.98592801275E+03  0.98592801275E+03  0.00000000000E+00 0.  1.
         23    2    1    2    0    0  0.55286569357E+03 -0.92892238204E+03  0.76599386211E+02  0.10872264440E+04  0.87387685154E+02 0.  0.
         13    1    3    3    0    0  0.42333911417E+03 -0.72125468684E+03  0.22769448982E+02  0.83662582837E+03  0.00000000000E+00 0. -1.
        -13    1    3    3    0    0  0.12952657939E+03 -0.20766769519E+03  0.53829937229E+02  0.25060061560E+03  0.00000000000E+00 0.  1.
         22    1    1    2    0    0 -0.55286569357E+03  0.92892238204E+03  0.12723094431E+03  0.10884599121E+04  0.00000000000E+00 0.  1.
<mgrwt>
<rscale>  0 0.21661173E+04</rscale>
<asrwt>0</asrwt>
<pdfrwt beam="1">  1        2 0.18303974E+00 0.21661173E+04</pdfrwt>
<pdfrwt beam="2">  1       -2 0.15168123E+00 0.21661173E+04</pdfrwt>
<totfact> 0.51220167E+00</totfact>
</mgrwt>
</event>
<event>
 6    1  0.1773638E-005  0.3115803E+04  0.7818608E-02  0.8211414E-01
          2   -1    0    0  501    0  0.00000000000E+00  0.00000000000E+00  0.20872491985E+04  0.20872491985E+04  0.00000000000E+00 0. -1.
         -2   -1    0    0    0  501 -0.00000000000E+00 -0.00000000000E+00 -0.11628018002E+04  0.11628018002E+04  0.00000000000E+00 0.  1.
         23    2    1    2    0    0 -0.13161692238E+04 -0.81200440614E+03  0.28350831124E+03  0.15759973871E+04  0.10834306717E+03 0.  0.
         13    1    3    3    0    0 -0.57741465172E+03 -0.33342189036E+03  0.17312673359E+03  0.68887640609E+03  0.00000000000E+00 0. -1.
        -13    1    3    3    0    0 -0.73875457208E+03 -0.47858251578E+03  0.11038157765E+03  0.88712098096E+03  0.00000000000E+00 0.  1.
         22    1    1    2    0    0  0.13161692238E+04  0.81200440614E+03  0.64093908703E+03  0.16740536116E+04  0.00000000000E+00 0. -1.
<mgrwt>
<rscale>  0 0.31158030E+04</rscale>
<asrwt>0</asrwt>
<pdfrwt beam="1">  1        2 0.32111526E+00 0.31158030E+04</pdfrwt>
<pdfrwt beam="2">  1       -2 0.17889259E+00 0.31158030E+04</pdfrwt>
<totfact> 0.93477993E-01</totfact>
</mgrwt>
</event>
<event>
 6    1  0.1773638E-005  0.1120354E+04  0.7818608E-02  0.9185578E-01
          1   -1    0    0  501    0  0.00000000000E+00  0.00000000000E+00  0.67129522482E+03  0.67129522482E+03  0.00000000000E+00 0. -1.
         -1   -1    0    0    0  501 -0.00000000000E+00 -0.00000000000E+00 -0.46745171660E+03  0.46745171660E+03  0.00000000000E+00 0.  1.
         23    2    1    2    0    0 -0.32398383076E+03 -0.13685658688E+03 -0.33603120155E+03  0.49441787160E+03  0.88525789331E+02 0.  0.
         13    1    3    3    0    0 -0.12248471442E+03 -0.23303495350E+02 -0.74332694202E+02  0.14515821571E+03  0.00000000000E+00 0. -1.
        -13    1    3    3    0    0 -0.20149911634E+03 -0.11355309153E+03 -0.26169850735E+03  0.34925965589E+03  0.00000000000E+00 0.  1.
         22    1    1    2    0    0  0.32398383076E+03  0.13685658688E+03  0.53987470976E+03  0.64432906982E+03  0.00000000000E+00 0. -1.
<mgrwt>
<rscale>  0 0.11203537E+04</rscale>
<asrwt>0</asrwt>
<pdfrwt beam="1">  1        1 0.10327619E+00 0.11203537E+04</pdfrwt>
<pdfrwt beam="2">  1       -1 0.71915648E-01 0.11203537E+04</pdfrwt>
<totfact> 0.56387757E+01</totfact>
</mgrwt>
</event>
<event>
 6    1  0.1773638E-005  0.2213511E+04  0.7818608E-02  0.8512826E-01
         -2   -1    0    0    0  501 -0.00000000000E+00  0.00000000000E+00  0.17606916632E+04  0.17606916632E+04  0.00000000000E+00 0.  1.
          2   -1    0    0  501    0  0.00000000000E+00 -0.00000000000E+00 -0.69569678641E+03  0.69569678641E+03  0.00000000000E+00 0. -1.
         23    2    1    2    0    0 -0.10283329807E+04  0.18968928688E+02  0.85238508357E+02  0.10359127965E+04  0.89561036708E+02 0.  0.
         13    1    3    3    0    0 -0.23984442117E+03  0.23941422427E+02  0.52741750501E+02  0.24673919494E+03  0.00000000000E+00 0. -1.
        -13    1    3    3    0    0 -0.78848855953E+03 -0.49724937391E+01  0.32496757856E+02  0.78917360161E+03  0.00000000000E+00 0.  1.
         22    1    1    2    0    0  0.10283329807E+04 -0.18968928688E+02  0.97975636841E+03  0.14204756530E+04  0.00000000000E+00 0. -1.
<mgrwt>
<rscale>  0 0.22135108E+04</rscale>
<asrwt>0</asrwt>
<pdfrwt beam="1">  1        2 0.10703027E+00 0.22135108E+04</pdfrwt>
<pdfrwt beam="2">  1       -2 0.27087564E+00 0.22135108E+04</pdfrwt>
<totfact> 0.18050683E+00</totfact>
</mgrwt>
</event>
<event>
 6    1  0.1773638E-005  0.1754539E+04  0.7818608E-02  0.8730856E-01
         -2   -1    0    0    0  501 -0.00000000000E+00  0.00000000000E+00  0.35099566807E+03  0.35099566807E+03  0.00000000000E+00 0.  1.
          2   -1    0    0  501    0  0.00000000000E+00 -0.00000000000E+00 -0.21926239454E+04  0.21926239454E+04  0.00000000000E+00 0. -1.
         23    2    1    2    0    0 -0.54251159111E+02 -0.37298564616E+03 -0.20678590956E+04  0.21040267750E+04  0.93946528128E+02 0.  0.
         11    1    3    3    0    0  0.13740147154E+02 -0.11863842098E+03 -0.48942792306E+03  0.50378920041E+03  0.00000000000E+00 0. -1.
        -11    1    3    3    0    0 -0.67991306265E+02 -0.25434722518E+03 -0.15784311726E+04  0.16002375746E+04  0.00000000000E+00 0.  1.
         22    1    1    2    0    0  0.54251159111E+02  0.37298564616E+03  0.22623081827E+03  0.43959283848E+03  0.00000000000E+00 0.  1.
<mgrwt>
<rscale>  0 0.17545387E+04</rscale>
<asrwt>0</asrwt>
<pdfrwt beam="1">  1        2 0.33732676E+00 0.17545387E+04</pdfrwt>
<pdfrwt beam="2">  1       -2 0.53999333E-01 0.17545387E+04</pdfrwt>
<totfact> 0.15960322E+01</totfact>
</mgrwt>
</event>
<event>
 6    1  0.1773638E-005  0.3531590E+04  0.7818608E-02  0.8106344E-01
          2   -1    0    0  501    0  0.00000000000E+00  0.00000000000E+00  0.17216372354E+04  0.17216372354E+04  0.00000000000E+00 0. -1.
         -2   -1    0    0    0  501 -0.00000000000E+00 -0.00000000000E+00 -0.18110852757E+04  0.18110852757E+04  0.00000000000E+00 0.  1.
         23    2    1    2    0    0  0.28851219979E+03 -0.37687785793E+03  0.16554122304E+04  0.17244599269E+04  0.89978761915E+02 0.  0.
         11    1    3    3    0    0  0.16256811977E+03 -0.22264082268E+03  0.79962681562E+03  0.84581343909E+03  0.00000000000E+00 0. -1.
        -11    1    3    3    0    0  0.12594408003E+03 -0.15423703525E+03  0.85578541477E+03  0.87864648777E+03  0.00000000000E+00 0.  1.
         22    1    1    2    0    0 -0.28851219979E+03  0.37687785793E+03 -0.17448602707E+04  0.18082625843E+04  0.00000000000E+00 0.  1.
<mgrwt>
<rscale>  0 0.35315899E+04</rscale>
<asrwt>0</asrwt>
<pdfrwt beam="1">  1        2 0.26486727E+00 0.35315899E+04</pdfrwt>
<pdfrwt beam="2">  1       -2 0.27862850E+00 0.35315899E+04</pdfrwt>
<totfact> 0.33563513E-01</totfact>
</mgrwt>
</event>
<event>
 6    1  0.1773638E-005  0.2742967E+04  0.7818608E-02  0.8321197E-01
          2   -1    0    0  501    0  0.00000000000E+00  0.00000000000E+00  0.18622002762E+04  0.18622002762E+04  0.00000000000E+00 0. -1.
         -2   -1    0    0    0  501 -0.00000000000E+00 -0.00000000000E+00 -0.10100779109E+04  0.10100779109E+04  0.00000000000E+00 0.  1.
         23    2    1    2    0    0 -0.30181602460E+03 -0.48945642830E+03 -0.87549785582E+03  0.10514728333E+04  0.91859216865E+02 0.  0.
         11    1    3    3    0    0 -0.21338070828E+03 -0.33778987001E+03 -0.68018306560E+03  0.78884873435E+03  0.00000000000E+00 0. -1.
        -11    1    3    3    0    0 -0.88435316318E+02 -0.15166655829E+03 -0.19531479022E+03  0.26262409896E+03  0.00000000000E+00 0.  1.
         22    1    1    2    0    0  0.30181602460E+03  0.48945642830E+03  0.17276202212E+04  0.18208053538E+04  0.00000000000E+00 0. -1.
<mgrwt>
<rscale>  0 0.27429673E+04</rscale>
<asrwt>0</asrwt>
<pdfrwt beam="1">  1        2 0.28649235E+00 0.27429673E+04</pdfrwt>
<pdfrwt beam="2">  1       -2 0.15539660E+00 0.27429673E+04</pdfrwt>
<totfact> 0.18997348E+00</totfact>
</mgrwt>
</event>
<event>
 6    1  0.1773638E-005  0.1241960E+04  0.7818608E-02  0.9076902E-01
          2   -1    0    0  501    0  0.00000000000E+00  0.00000000000E+00  0.63290007049E+03  0.63290007049E+03  0.00000000000E+00 0. -1.
         -2   -1    0    0    0  501 -0.00000000000E+00 -0.00000000000E+00 -0.60928430804E+03  0.60928430804E+03  0.00000000000E+00 0.  1.
         23    2    1    2    0    0  0.75968513648E+02 -0.61291657846E+03 -0.12848782122E+01  0.62407598259E+03  0.89617151891E+02 0.  0.
         13    1    3    3    0    0  0.16831047072E+02 -0.28154914462E+03 -0.41464470675E+02  0.28508333398E+03  0.00000000000E+00 0. -1.
        -13    1    3    3    0    0  0.59137466577E+02 -0.33136743384E+03  0.40179592463E+02  0.33899264861E+03  0.00000000000E+00 0.  1.
         22    1    1    2    0    0 -0.75968513648E+02  0.61291657846E+03  0.24900640662E+02  0.61810839593E+03  0.00000000000E+00 0. -1.
<mgrwt>
<rscale>  0 0.12419599E+04</rscale>
<asrwt>0</asrwt>
<pdfrwt beam="1">  1        2 0.97369242E-01 0.12419599E+04</pdfrwt>
<pdfrwt beam="2">  1       -2 0.93736047E-01 0.12419599E+04</pdfrwt>
<totfact> 0.43986028E+01</totfact>
</mgrwt>
</event>
<event>
 6    1  0.1773638E-005  0.1422031E+04  0.7818608E-02  0.8938024E-01
          2   -1    0    0  501    0  0.00000000000E+00  0.00000000000E+00  0.38320649804E+04  0.38320649804E+04  0.00000000000E+00 0. -1.
         -2   -1    0    0    0  501 -0.00000000000E+00 -0.00000000000E+00 -0.13192437054E+03  0.13192437054E+03  0.00000000000E+00 0.  1.
         23    2    1    2    0    0 -0.26783160469E+03 -0.61575368951E+03  0.12330155948E+04  0.14071177831E+04  0.93630250476E+02 0.  0.
         11    1    3    3    0    0 -0.22189860398E+03 -0.41064856033E+03  0.81367984369E+03  0.93805443263E+03  0.00000000000E+00 0.  1.
        -11    1    3    3    0    0 -0.45933000712E+02 -0.20510512918E+03  0.41933575109E+03  0.46906335043E+03  0.00000000000E+00 0. -1.
         22    1    1    2    0    0  0.26783160469E+03  0.61575368951E+03  0.24671250151E+04  0.25568715679E+04  0.00000000000E+00 0. -1.
<mgrwt>
<rscale>  0 0.14220306E+04</rscale>
<asrwt>0</asrwt>
<pdfrwt beam="1">  1        2 0.58954837E+00 0.14220306E+04</pdfrwt>
<pdfrwt beam="2">  1       -2 0.20296060E-01 0.14220306E+04</pdfrwt>
<totfact> 0.96160518E+00</totfact>
</mgrwt>
</event>
<event>
 6    1  0.1773638E-005  0.1848873E+04  0.7818608E-02  0.8680733E-01
          2   -1    0    0  501    0  0.00000000000E+00  0.00000000000E+00  0.10230475180E+04  0.10230475180E+04  0.00000000000E+00 0.  1.
         -2   -1    0    0    0  501 -0.00000000000E+00 -0.00000000000E+00 -0.83533049342E+03  0.83533049342E+03  0.00000000000E+00 0. -1.
         23    2    1    2    0    0  0.34266813929E+03 -0.78885452373E+03  0.42853232757E+03  0.96523472870E+03  0.91242602044E+02 0.  0.
         11    1    3    3    0    0  0.65702860761E+01 -0.74410720141E+02  0.26851311520E+02  0.79379574585E+02  0.00000000000E+00 0. -1.
        -11    1    3    3    0    0  0.33609785321E+03 -0.71444380359E+03  0.40168101605E+03  0.88585515412E+03  0.00000000000E+00 0.  1.
         22    1    1    2    0    0 -0.34266813929E+03  0.78885452373E+03 -0.24081530300E+03  0.89314328271E+03  0.00000000000E+00 0. -1.
<mgrwt>
<rscale>  0 0.18488729E+04</rscale>
<asrwt>0</asrwt>
<pdfrwt beam="1">  1        2 0.15739193E+00 0.18488729E+04</pdfrwt>
<pdfrwt beam="2">  1       -2 0.12851238E+00 0.18488729E+04</pdfrwt>
<totfact> 0.10237912E+01</totfact>
</mgrwt>
</event>
<event>
 6    1  0.1773638E-005  0.5039112E+04  0.7818608E-02  0.7822502E-01
         -2   -1    0    0    0  501 -0.00000000000E+00  0.00000000000E+00  0.24473522153E+04  0.24473522153E+04  0.00000000000E+00 0.  1.
          2   -1    0    0  501    0  0.00000000000E+00 -0.00000000000E+00 -0.25938901732E+04  0.25938901732E+04  0.00000000000E+00 0. -1.
         23    2    1    2    0    0 -0.92246360586E+03 -0.23433099309E+04 -0.11674014377E+03  0.25227252759E+04  0.92054439876E+02 0.  0.
         13    1    3    3    0    0 -0.69233606473E+03 -0.17581919175E+04 -0.12744917978E+03  0.18938878897E+04  0.00000000000E+00 0.  1.
        -13    1    3    3    0    0 -0.23012754114E+03 -0.58511801348E+03  0.10709036008E+02  0.62883738624E+03  0.00000000000E+00 0. -1.
         22    1    1    2    0    0  0.92246360586E+03  0.23433099309E+04 -0.29797814149E+02  0.25185171126E+04  0.00000000000E+00 0. -1.
<mgrwt>
<rscale>  0 0.50391122E+04</rscale>
<asrwt>0</asrwt>
<pdfrwt beam="1">  1        2 0.39906003E+00 0.50391122E+04</pdfrwt>
<pdfrwt beam="2">  1       -2 0.37651573E+00 0.50391122E+04</pdfrwt>
<totfact> 0.23488043E-02</totfact>
</mgrwt>
</event>
<event>
 6    1  0.1773638E-005  0.1292565E+04  0.7818608E-02  0.9035482E-01
         -1   -1    0    0    0  501 -0.00000000000E+00  0.00000000000E+00  0.83167861179E+03  0.83167861179E+03  0.00000000000E+00 0.  1.
          1   -1    0    0  501    0  0.00000000000E+00 -0.00000000000E+00 -0.50221435378E+03  0.50221435378E+03  0.00000000000E+00 0. -1.
         23    2    1    2    0    0  0.20538970954E+03 -0.50723759728E+03  0.51426651471E+03  0.75628861400E+03  0.89596353927E+02 0.  0.
         13    1    3    3    0    0  0.18712714952E+03 -0.39720453401E+03  0.37174810579E+03  0.57531266811E+03  0.00000000000E+00 0. -1.
        -13    1    3    3    0    0  0.18262560018E+02 -0.11003306327E+03  0.14251840892E+03  0.18097594589E+03  0.00000000000E+00 0.  1.
         22    1    1    2    0    0 -0.20538970954E+03  0.50723759728E+03 -0.18480225670E+03  0.57760435158E+03  0.00000000000E+00 0.  1.
<mgrwt>
<rscale>  0 0.12925648E+04</rscale>
<asrwt>0</asrwt>
<pdfrwt beam="1">  1        1 0.77263747E-01 0.12925648E+04</pdfrwt>
<pdfrwt beam="2">  1       -1 0.12795056E+00 0.12925648E+04</pdfrwt>
<totfact> 0.22867595E+01</totfact>
</mgrwt>
</event>
<event>
 6    1  0.1773638E-005  0.4138929E+04  0.7818608E-02  0.7977092E-01
          1   -1    0    0  501    0  0.00000000000E+00  0.00000000000E+00  0.25579561561E+04  0.25579561561E+04  0.00000000000E+00 0. -1.
         -1   -1    0    0    0  501 -0.00000000000E+00 -0.00000000000E+00 -0.16742597186E+04  0.16742597186E+04  0.00000000000E+00 0.  1.
         23    2    1    2    0    0 -0.19860206020E+04  0.45985488673E+03  0.83519107435E+02  0.20422322884E+04  0.89403187025E+02 0.  0.
         13    1    3    3    0    0 -0.11138509986E+04  0.28166526283E+03  0.84902819432E+02  0.11520450756E+04  0.00000000000E+00 0. -1.
        -13    1    3    3    0    0 -0.87216960341E+03  0.17818962391E+03 -0.13837119966E+01  0.89018721280E+03  0.00000000000E+00 0.  1.
         22    1    1    2    0    0  0.19860206020E+04 -0.45985488673E+03  0.80017733006E+03  0.21899835863E+04  0.00000000000E+00 0. -1.
<mgrwt>
<rscale>  0 0.41389288E+04</rscale>
<asrwt>0</asrwt>
<pdfrwt beam="1">  1        1 0.39353172E+00 0.41389288E+04</pdfrwt>
<pdfrwt beam="2">  1       -1 0.25757842E+00 0.41389288E+04</pdfrwt>
<totfact> 0.59441547E-02</totfact>
</mgrwt>
</event>
<event>
 6    1  0.1773638E-005  0.9914675E+03  0.7818608E-02  0.9317953E-01
         -2   -1    0    0    0  501 -0.00000000000E+00  0.00000000000E+00  0.26661018993E+03  0.26661018993E+03  0.00000000000E+00 0.  1.
          2   -1    0    0  501    0  0.00000000000E+00 -0.00000000000E+00 -0.92176507632E+03  0.92176507632E+03  0.00000000000E+00 0. -1.
         23    2    1    2    0    0 -0.13886231102E+03 -0.31006157721E+03  0.95612571316E+02  0.36431659199E+03  0.90354260110E+02 0.  0.
         13    1    3    3    0    0  0.49383456823E+00 -0.95633294226E+02  0.31209367795E+02  0.10059818823E+03  0.00000000000E+00 0. -1.
        -13    1    3    3    0    0 -0.13935614559E+03 -0.21442828299E+03  0.64403203522E+02  0.26371840376E+03  0.00000000000E+00 0.  1.
         22    1    1    2    0    0  0.13886231102E+03  0.31006157721E+03 -0.75076745771E+03  0.82405867427E+03  0.00000000000E+00 0. -1.
<mgrwt>
<rscale>  0 0.99146752E+03</rscale>
<asrwt>0</asrwt>
<pdfrwt beam="1">  1        2 0.14181001E+00 0.99146752E+03</pdfrwt>
<pdfrwt beam="2">  1       -2 0.41016952E-01 0.99146752E+03</pdfrwt>
<totfact> 0.15927998E+02</totfact>
</mgrwt>
</event>
<event>
 6    1  0.1773638E-005  0.4953133E+04  0.7818608E-02  0.7835778E-01
         -1   -1    0    0    0  501 -0.00000000000E+00  0.00000000000E+00  0.27228961189E+04  0.27228961189E+04  0.00000000000E+00 0.  1.
          1   -1    0    0  501    0  0.00000000000E+00 -0.00000000000E+00 -0.22525215233E+04  0.22525215233E+04  0.00000000000E+00 0. -1.
         23    2    1    2    0    0 -0.60301473327E+03 -0.16922140687E+04 -0.14759218220E+04  0.23267793189E+04  0.91332093502E+02 0.  0.
         13    1    3    3    0    0 -0.39651498376E+03 -0.11787823243E+04 -0.97449769230E+03  0.15799992572E+04  0.00000000000E+00 0. -1.
        -13    1    3    3    0    0 -0.20649974951E+03 -0.51343174443E+03 -0.50142412969E+03  0.74678006171E+03  0.00000000000E+00 0.  1.
         22    1    1    2    0    0  0.60301473327E+03  0.16922140687E+04  0.19462964176E+04  0.26486383234E+04  0.00000000000E+00 0.  1.
<mgrwt>
<rscale>  0 0.49531332E+04</rscale>
<asrwt>0</asrwt>
<pdfrwt beam="1">  1        1 0.34654177E+00 0.49531332E+04</pdfrwt>
<pdfrwt beam="2">  1       -1 0.41890710E+00 0.49531332E+04</pdfrwt>
<totfact> 0.77170804E-03</totfact>
</mgrwt>
</event>
<event>
 6    1  0.1773638E-005  0.1311834E+04  0.7818608E-02  0.9020233E-01
         -1   -1    0    0    0  501 -0.00000000000E+00  0.00000000000E+00  0.85687793354E+03  0.85687793354E+03  0.00000000000E+00 0.  1.
          1   -1    0    0  501    0  0.00000000000E+00 -0.00000000000E+00 -0.50208697134E+03  0.50208697134E+03  0.00000000000E+00 0. -1.
         23    2    1    2    0    0  0.18658375211E+03 -0.57125865081E+03  0.44462905755E+03  0.75132946643E+03  0.75173303968E+02 0.  0.
         11    1    3    3    0    0  0.12562435427E+03 -0.47263000451E+03  0.37286441176E+03  0.61497029937E+03  0.00000000000E+00 0. -1.
        -11    1    3    3    0    0  0.60959397839E+02 -0.98628646308E+02  0.71764645789E+02  0.13635916706E+03  0.00000000000E+00 0.  1.
         22    1    1    2    0    0 -0.18658375211E+03  0.57125865081E+03 -0.89838095347E+02  0.60763543845E+03  0.00000000000E+00 0. -1.
<mgrwt>
<rscale>  0 0.13118342E+04</rscale>
<asrwt>0</asrwt>
<pdfrwt beam="1">  1        1 0.77244150E-01 0.13118342E+04</pdfrwt>
<pdfrwt beam="2">  1       -1 0.13182737E+00 0.13118342E+04</pdfrwt>
<totfact> 0.21181073E+01</totfact>
</mgrwt>
</event>
<event>
 6    1  0.1773638E-005  0.2914189E+04  0.7818608E-02  0.8268668E-01
         -2   -1    0    0    0  501 -0.00000000000E+00  0.00000000000E+00  0.65486481894E+03  0.65486481894E+03  0.00000000000E+00 0.  1.
          2   -1    0    0  501    0  0.00000000000E+00 -0.00000000000E+00 -0.32420807421E+04  0.32420807421E+04  0.00000000000E+00 0. -1.
         23    2    1    2    0    0  0.13480092831E+04  0.10920331300E+03 -0.20155501611E+04  0.24286621638E+04  0.83084674702E+02 0.  0.
         11    1    3    3    0    0  0.52778119843E+03  0.50132355277E+02 -0.71934320623E+03  0.89359996352E+03  0.00000000000E+00 0. -1.
        -11    1    3    3    0    0  0.82022808471E+03  0.59070957726E+02 -0.12962069549E+04  0.15350622003E+04  0.00000000000E+00 0.  1.
         22    1    1    2    0    0 -0.13480092831E+04 -0.10920331300E+03 -0.57166576209E+03  0.14682833972E+04  0.00000000000E+00 0.  1.
<mgrwt>
<rscale>  0 0.29141892E+04</rscale>
<asrwt>0</asrwt>
<pdfrwt beam="1">  1        2 0.49878163E+00 0.29141892E+04</pdfrwt>
<pdfrwt beam="2">  1       -2 0.10074844E+00 0.29141892E+04</pdfrwt>
<totfact> 0.85078054E-01</totfact>
</mgrwt>
</event>
<event>
 6    1  0.1773638E-005  0.3555502E+04  0.7818608E-02  0.8100761E-01
         -2   -1    0    0    0  501 -0.00000000000E+00  0.00000000000E+00  0.14982667168E+04  0.14982667168E+04  0.00000000000E+00 0.  1.
          2   -1    0    0  501    0  0.00000000000E+00 -0.00000000000E+00 -0.21093700836E+04  0.21093700836E+04  0.00000000000E+00 0. -1.
         23    2    1    2    0    0  0.10634511145E+04  0.12249312488E+04 -0.10407973627E+04  0.19295361576E+04  0.92009761425E+02 0.  0.
         13    1    3    3    0    0  0.92545784036E+03  0.10776476609E+04 -0.87517128566E+03  0.16684488229E+04  0.00000000000E+00 0.  1.
        -13    1    3    3    0    0  0.13799327415E+03  0.14728358783E+03 -0.16562607700E+03  0.26108733469E+03  0.00000000000E+00 0. -1.
         22    1    1    2    0    0 -0.10634511145E+04 -0.12249312488E+04  0.42969399590E+03  0.16781006428E+04  0.00000000000E+00 0.  1.
<mgrwt>
<rscale>  0 0.35555022E+04</rscale>
<asrwt>0</asrwt>
<pdfrwt beam="1">  1        2 0.32451847E+00 0.35555022E+04</pdfrwt>
<pdfrwt beam="2">  1       -2 0.23050257E+00 0.35555022E+04</pdfrwt>
<totfact> 0.40310861E-01</totfact>
</mgrwt>
</event>
<event>
 6    1  0.1773638E-005  0.1101697E+04  0.7818608E-02  0.9203539E-01
          1   -1    0    0  501    0  0.00000000000E+00  0.00000000000E+00  0.16786131425E+04  0.16786131425E+04  0.00000000000E+00 0. -1.
         -1   -1    0    0    0  501 -0.00000000000E+00 -0.00000000000E+00 -0.18076486090E+03  0.18076486090E+03  0.00000000000E+00 0.  1.
         23    2    1    2    0    0 -0.26901356130E+03  0.46013998722E+03  0.96187288789E+03  0.11034899650E+04  0.91616299298E+02 0.  0.
         13    1    3    3    0    0 -0.17880003301E+03  0.30275797042E+03  0.54145244518E+03  0.64560250221E+03  0.00000000000E+00 0. -1.
        -13    1    3    3    0    0 -0.90213528291E+02  0.15738201680E+03  0.42042044271E+03  0.45788746275E+03  0.00000000000E+00 0.  1.
         22    1    1    2    0    0  0.26901356130E+03 -0.46013998722E+03  0.53597539373E+03  0.75588803846E+03  0.00000000000E+00 0.  1.
<mgrwt>
<rscale>  0 0.11016974E+04</rscale>
<asrwt>0</asrwt>
<pdfrwt beam="1">  1        1 0.25824817E+00 0.11016974E+04</pdfrwt>
<pdfrwt beam="2">  1       -1 0.27809980E-01 0.11016974E+04</pdfrwt>
<totfact> 0.57250467E+01</totfact>
</mgrwt>
</event>
<event>
 6    1  0.1773638E-005  0.4470950E+03  0.7818608E-02  0.1028592E+00
         -2   -1    0    0    0  501 -0.00000000000E+00  0.00000000000E+00  0.49247328737E+02  0.49247328737E+02  0.00000000000E+00 0.  1.
          2   -1    0    0  501    0  0.00000000000E+00 -0.00000000000E+00 -0.10147448925E+04  0.10147448925E+04  0.00000000000E+00 0. -1.
         23    2    1    2    0    0  0.20048620914E+03  0.37307669974E+02 -0.34652221329E+03  0.41228901672E+03  0.91203106888E+02 0.  0.
         13    1    3    3    0    0 -0.24729398089E+01  0.19439846421E+02 -0.33007036378E+02  0.38386032755E+02  0.00000000000E+00 0.  1.
        -13    1    3    3    0    0  0.20295914894E+03  0.17867823553E+02 -0.31351517692E+03  0.37390298396E+03  0.00000000000E+00 0. -1.
         22    1    1    2    0    0 -0.20048620914E+03 -0.37307669974E+02 -0.61897535044E+03  0.65170320449E+03  0.00000000000E+00 0. -1.
<mgrwt>
<rscale>  0 0.44709496E+03</rscale>
<asrwt>0</asrwt>
<pdfrwt beam="1">  1        2 0.15611459E+00 0.44709496E+03</pdfrwt>
<pdfrwt beam="2">  1       -2 0.75765126E-02 0.44709496E+03</pdfrwt>
<totfact> 0.26544801E+03</totfact>
</mgrwt>
</event>
<event>
 6    1  0.1773638E-005  0.2701130E+04  0.7818608E-02  0.8334638E-01
         -2   -1    0    0    0  501 -0.00000000000E+00  0.00000000000E+00  0.14320691180E+04  0.14320691180E+04  0.00000000000E+00 0.  1.
          2   -1    0    0  501    0  0.00000000000E+00 -0.00000000000E+00 -0.12736997842E+04  0.12736997842E+04  0.00000000000E+00 0. -1.
         23    2    1    2    0    0  0.93477099640E+03 -0.17389232727E+03 -0.87938520883E+03  0.12982995959E+04  0.90709084468E+02 0.  0.
         13    1    3    3    0    0  0.50552962653E+03 -0.12977452486E+03 -0.51979482766E+03  0.73660592820E+03  0.00000000000E+00 0.  1.
        -13    1    3    3    0    0  0.42924136987E+03 -0.44117802408E+02 -0.35959038117E+03  0.56169366769E+03  0.00000000000E+00 0. -1.
         22    1    1    2    0    0 -0.93477099640E+03  0.17389232727E+03  0.10377545426E+04  0.14074693062E+04  0.00000000000E+00 0.  1.
<mgrwt>
<rscale>  0 0.27011302E+04</rscale>
<asrwt>0</asrwt>
<pdfrwt beam="1">  1        2 0.19595381E+00 0.27011302E+04</pdfrwt>
<pdfrwt beam="2">  1       -2 0.22031833E+00 0.27011302E+04</pdfrwt>
<totfact> 0.14781484E+00</totfact>
</mgrwt>
</event>
<event>
 6    1  0.1773638E-005  0.3680485E+04  0.7818608E-02  0.8072300E-01
         -1   -1    0    0    0  501 -0.00000000000E+00  0.00000000000E+00  0.20778210198E+04  0.20778210198E+04  0.00000000000E+00 0.  1.
          1   -1    0    0  501    0  0.00000000000E+00 -0.00000000000E+00 -0.16298286720E+04  0.16298286720E+04  0.00000000000E+00 0. -1.
         23    2    1    2    0    0 -0.14987059804E+04 -0.39557451678E+03  0.12210153805E+04  0.19755517087E+04  0.96577329651E+02 0.  0.
         13    1    3    3    0    0 -0.62965312899E+03 -0.14720879485E+03  0.56545821145E+03  0.85899736962E+03  0.00000000000E+00 0. -1.
        -13    1    3    3    0    0 -0.86905285136E+03 -0.24836572193E+03  0.65555716901E+03  0.11165543391E+04  0.00000000000E+00 0.  1.
         22    1    1    2    0    0  0.14987059804E+04  0.39557451678E+03 -0.77302303269E+03  0.17320979831E+04  0.00000000000E+00 0. -1.
<mgrwt>
<rscale>  0 0.36804849E+04</rscale>
<asrwt>0</asrwt>
<pdfrwt beam="1">  1        1 0.25074287E+00 0.36804849E+04</pdfrwt>
<pdfrwt beam="2">  1       -1 0.31966477E+00 0.36804849E+04</pdfrwt>
<totfact> 0.10520789E-01</totfact>
</mgrwt>
</event>
<event>
 6    1  0.1773638E-005  0.2598197E+04  0.7818608E-02  0.8368814E-01
          1   -1    0    0  501    0  0.00000000000E+00  0.00000000000E+00  0.14799544571E+04  0.14799544571E+04  0.00000000000E+00 0. -1.
         -1   -1    0    0    0  501 -0.00000000000E+00 -0.00000000000E+00 -0.11403437907E+04  0.11403437907E+04  0.00000000000E+00 0.  1.
         23    2    1    2    0    0  0.76934214873E+03  0.59614170004E+03  0.10353175522E+04  0.14239369565E+04  0.91879017670E+02 0.  0.
         11    1    3    3    0    0  0.12113019779E+03  0.64582253640E+02  0.17929379296E+03  0.22580889375E+03  0.00000000000E+00 0.  1.
        -11    1    3    3    0    0  0.64821195094E+03  0.53155944640E+03  0.85602375926E+03  0.11981280628E+04  0.00000000000E+00 0. -1.
         22    1    1    2    0    0 -0.76934214873E+03 -0.59614170004E+03 -0.69570688577E+03  0.11963612913E+04  0.00000000000E+00 0.  1.
<mgrwt>
<rscale>  0 0.25981970E+04</rscale>
<asrwt>0</asrwt>
<pdfrwt beam="1">  1        1 0.22768530E+00 0.25981970E+04</pdfrwt>
<pdfrwt beam="2">  1       -1 0.17543751E+00 0.25981970E+04</pdfrwt>
<totfact> 0.13361102E+00</totfact>
</mgrwt>
</event>
<event>
 6    1  0.1773638E-005  0.1100393E+04  0.7818608E-02  0.9204809E-01
         -2   -1    0    0    0  501 -0.00000000000E+00  0.00000000000E+00  0.35200296764E+03  0.35200296764E+03  0.00000000000E+00 0.  1.
          2   -1    0    0  501    0  0.00000000000E+00 -0.00000000000E+00 -0.85998246221E+03  0.85998246221E+03  0.00000000000E+00 0. -1.
         23    2    1    2    0    0 -0.39016135071E+03 -0.38248304646E+03 -0.26482457677E+03  0.61395242536E+03  0.91029466281E+02 0.  0.
         13    1    3    3    0    0 -0.24875799675E+03 -0.23198599469E+03 -0.21198751060E+03  0.40079514385E+03  0.00000000000E+00 0.  1.
        -13    1    3    3    0    0 -0.14140335396E+03 -0.15049705176E+03 -0.52837066164E+02  0.21315728151E+03  0.00000000000E+00 0. -1.
         22    1    1    2    0    0  0.39016135071E+03  0.38248304646E+03 -0.24315491780E+03  0.59803300449E+03  0.00000000000E+00 0.  1.
<mgrwt>
<rscale>  0 0.11003933E+04</rscale>
<asrwt>0</asrwt>
<pdfrwt beam="1">  1        2 0.13230499E+00 0.11003933E+04</pdfrwt>
<pdfrwt beam="2">  1       -2 0.54154303E-01 0.11003933E+04</pdfrwt>
<totfact> 0.99578269E+01</totfact>
</mgrwt>
</event>
<event>
 6    1  0.1773638E-005  0.8423106E+03  0.7818608E-02  0.9500716E-01
          2   -1    0    0  501    0  0.00000000000E+00  0.00000000000E+00  0.15337157321E+04  0.15337157321E+04  0.00000000000E+00 0. -1.
         -2   -1    0    0    0  501 -0.00000000000E+00 -0.00000000000E+00 -0.11564840656E+03  0.11564840656E+03  0.00000000000E+00 0.  1.
         23    2    1    2    0    0  0.11527498851E+03  0.32282247351E+03  0.11795302519E+04  0.12317487559E+04  0.91709924021E+02 0.  0.
         11    1    3    3    0    0  0.11721663015E+03  0.26908657296E+03  0.88648148357E+03  0.93380765837E+03  0.00000000000E+00 0.  1.
        -11    1    3    3    0    0 -0.19416416313E+01  0.53735900546E+02  0.29304876837E+03  0.29794109758E+03  0.00000000000E+00 0. -1.
         22    1    1    2    0    0 -0.11527498851E+03 -0.32282247351E+03  0.23853707355E+03  0.41761538267E+03  0.00000000000E+00 0.  1.
<mgrwt>
<rscale>  0 0.84231059E+03</rscale>
<asrwt>0</asrwt>
<pdfrwt beam="1">  1        2 0.23595625E+00 0.84231059E+03</pdfrwt>
<pdfrwt beam="2">  1       -2 0.17792064E-01 0.84231059E+03</pdfrwt>
<totfact> 0.32038125E+02</totfact>
</mgrwt>
</event>
<event>
 6    1  0.1773638E-005  0.1797750E+04  0.7818608E-02  0.8707497E-01
         -2   -1    0    0    0  501 -0.00000000000E+00  0.00000000000E+00  0.68421887911E+03  0.68421887911E+03  0.00000000000E+00 0.  1.
          2   -1    0    0  501    0  0.00000000000E+00 -0.00000000000E+00 -0.11808737507E+04  0.11808737507E+04  0.00000000000E+00 0. -1.
         23    2    1    2    0    0  0.87753685135E+03 -0.17184394469E+03 -0.31546562801E+03  0.95271616760E+03  0.92456837231E+02 0.  0.
         11    1    3    3    0    0  0.31963764150E+03 -0.18636507411E+02 -0.10192409491E+03  0.33601199740E+03  0.00000000000E+00 0. -1.
        -11    1    3    3    0    0  0.55789920985E+03 -0.15320743727E+03 -0.21354153310E+03  0.61670417020E+03  0.00000000000E+00 0.  1.
         22    1    1    2    0    0 -0.87753685135E+03  0.17184394469E+03 -0.18118924359E+03  0.91237646221E+03  0.00000000000E+00 0.  1.
<mgrwt>
<rscale>  0 0.17977498E+04</rscale>
<asrwt>0</asrwt>
<pdfrwt beam="1">  1        2 0.18167288E+00 0.17977498E+04</pdfrwt>
<pdfrwt beam="2">  1       -2 0.10526444E+00 0.17977498E+04</pdfrwt>
<totfact> 0.13419873E+01</totfact>
</mgrwt>
</event>
<event>
 6    1  0.1773638E-005  0.5128952E+04  0.7818608E-02  0.7808917E-01
          2   -1    0    0  501    0  0.00000000000E+00  0.00000000000E+00  0.40617811274E+04  0.40617811274E+04  0.00000000000E+00 0. -1.
         -2   -1    0    0    0  501 -0.00000000000E+00 -0.00000000000E+00 -0.16191265565E+04  0.16191265565E+04  0.00000000000E+00 0.  1.
         23    2    1    2    0    0 -0.20019506999E+04  0.14661695659E+04  0.50836461333E+03  0.25346499957E+04  0.92499836163E+02 0.  0.
         13    1    3    3    0    0 -0.70671048201E+03  0.46847519638E+03  0.15439915525E+03  0.86182818134E+03  0.00000000000E+00 0.  1.
        -13    1    3    3    0    0 -0.12952402179E+04  0.99769436953E+03  0.35396545807E+03  0.16728218143E+04  0.00000000000E+00 0. -1.
         22    1    1    2    0    0  0.20019506999E+04 -0.14661695659E+04  0.19342899576E+04  0.31462576882E+04  0.00000000000E+00 0.  1.
<mgrwt>
<rscale>  0 0.51289522E+04</rscale>
<asrwt>0</asrwt>
<pdfrwt beam="1">  1        2 0.62488940E+00 0.51289522E+04</pdfrwt>
<pdfrwt beam="2">  1       -2 0.24909639E+00 0.51289522E+04</pdfrwt>
<totfact> 0.14208602E-02</totfact>
</mgrwt>
</event>
<event>
 6    1  0.1773638E-005  0.2431529E+04  0.7818608E-02  0.8427793E-01
          2   -1    0    0  501    0  0.00000000000E+00  0.00000000000E+00  0.10389470677E+04  0.10389470677E+04  0.00000000000E+00 0. -1.
         -2   -1    0    0    0  501 -0.00000000000E+00 -0.00000000000E+00 -0.14226739741E+04  0.14226739741E+04  0.00000000000E+00 0.  1.
         23    2    1    2    0    0 -0.47365739901E+03 -0.10684083427E+04 -0.52498833273E+03  0.12844199082E+04  0.90961710038E+02 0.  0.
         13    1    3    3    0    0 -0.39897767269E+02 -0.16779492861E+03 -0.84079964894E+02  0.19187602872E+03  0.00000000000E+00 0.  1.
        -13    1    3    3    0    0 -0.43375963174E+03 -0.90061341407E+03 -0.44090836784E+03  0.10925438795E+04  0.00000000000E+00 0. -1.
         22    1    1    2    0    0  0.47365739901E+03  0.10684083427E+04  0.14126142637E+03  0.11772011336E+04  0.00000000000E+00 0.  1.
<mgrwt>
<rscale>  0 0.24315287E+04</rscale>
<asrwt>0</asrwt>
<pdfrwt beam="1">  1        2 0.15983801E+00 0.24315287E+04</pdfrwt>
<pdfrwt beam="2">  1       -2 0.21887292E+00 0.24315287E+04</pdfrwt>
<totfact> 0.21433328E+00</totfact>
</mgrwt>
</event>
<event>
 6    1  0.1773638E-005  0.6417988E+03  0.7818608E-02  0.9822291E-01
         -1   -1    0    0    0  501 -0.00000000000E+00  0.00000000000E+00  0.88880242064E+02  0.88880242064E+02  0.00000000000E+00 0.  1.
          1   -1    0    0  501    0  0.00000000000E+00 -0.00000000000E+00 -0.11585976119E+04  0.11585976119E+04  0.00000000000E+00 0. -1.
         23    2    1    2    0    0  0.16348975848E+03  0.17738882231E+03 -0.14752478621E+03  0.29425445061E+03  0.81402848531E+02 0.  0.
         13    1    3    3    0    0  0.50003113432E+02  0.21480267757E+02 -0.53767435356E+01  0.54686585438E+02  0.00000000000E+00 0.  1.
        -13    1    3    3    0    0  0.11348664505E+03  0.15590855455E+03 -0.14214804267E+03  0.23956786517E+03  0.00000000000E+00 0. -1.
         22    1    1    2    0    0 -0.16348975848E+03 -0.17738882231E+03 -0.92219258367E+03  0.95322340340E+03  0.00000000000E+00 0. -1.
<mgrwt>
<rscale>  0 0.64179884E+03</rscale>
<asrwt>0</asrwt>
<pdfrwt beam="1">  1        1 0.17824579E+00 0.64179884E+03</pdfrwt>
<pdfrwt beam="2">  1       -1 0.13673883E-01 0.64179884E+03</pdfrwt>
<totfact> 0.44564515E+02</totfact>
</mgrwt>
</event>
<event>
 6    1  0.1773638E-005  0.1577754E+04  0.7818608E-02  0.8834332E-01
         -2   -1    0    0    0  501 -0.00000000000E+00  0.00000000000E+00  0.43244848630E+03  0.43244848630E+03  0.00000000000E+00 0. -1.
          2   -1    0    0  501    0  0.00000000000E+00 -0.00000000000E+00 -0.14390772151E+04  0.14390772151E+04  0.00000000000E+00 0.  1.
         23    2    1    2    0    0  0.60841318455E+03 -0.52151312997E+02  0.82432731238E+02  0.62295002236E+03  0.91570806501E+02 0.  0.
         13    1    3    3    0    0  0.52528349818E+03 -0.75155609590E+02  0.80263954907E+02  0.53666881926E+03  0.00000000000E+00 0.  1.
        -13    1    3    3    0    0  0.83129686371E+02  0.23004296593E+02  0.21687763308E+01  0.86281203101E+02  0.00000000000E+00 0. -1.
         22    1    1    2    0    0 -0.60841318455E+03  0.52151312997E+02 -0.10890614601E+04  0.12485756791E+04  0.00000000000E+00 0.  1.
<mgrwt>
<rscale>  0 0.15777538E+04</rscale>
<asrwt>0</asrwt>
<pdfrwt beam="1">  1        2 0.22139650E+00 0.15777538E+04</pdfrwt>
<pdfrwt beam="2">  1       -2 0.66530536E-01 0.15777538E+04</pdfrwt>
<totfact> 0.27411193E+01</totfact>
</mgrwt>
</event>
<event>
 6    1  0.1773638E-005  0.1532862E+04  0.7818608E-02  0.8862890E-01
          2   -1    0    0  501    0  0.00000000000E+00  0.00000000000E+00  0.16378370778E+04  0.16378370778E+04  0.00000000000E+00 0. -1.
         -2   -1    0    0    0  501 -0.00000000000E+00 -0.00000000000E+00 -0.35865372362E+03  0.35865372362E+03  0.00000000000E+00 0.  1.
         23    2    1    2    0    0 -0.69265567648E+03  0.24192696592E+03  0.91717305525E+03  0.11783514493E+04  0.94895635674E+02 0.  0.
         11    1    3    3    0    0 -0.13956066827E+03  0.48485200451E+02  0.12830829489E+03  0.19568089669E+03  0.00000000000E+00 0.  1.
        -11    1    3    3    0    0 -0.55309500822E+03  0.19344176547E+03  0.78886476036E+03  0.98267055256E+03  0.00000000000E+00 0. -1.
         22    1    1    2    0    0  0.69265567648E+03 -0.24192696592E+03  0.36201029888E+03  0.81813935213E+03  0.00000000000E+00 0.  1.
<mgrwt>
<rscale>  0 0.15328619E+04</rscale>
<asrwt>0</asrwt>
<pdfrwt beam="1">  1        2 0.25197493E+00 0.15328619E+04</pdfrwt>
<pdfrwt beam="2">  1       -2 0.55177497E-01 0.15328619E+04</pdfrwt>
<totfact> 0.31609861E+01</totfact>
</mgrwt>
</event>
<event>
 6    1  0.1773638E-005  0.4609317E+04  0.7818608E-02  0.7891773E-01
         -2   -1    0    0    0  501 -0.00000000000E+00  0.00000000000E+00  0.21158037766E+04  0.21158037766E+04  0.00000000000E+00 0.  1.
          2   -1    0    0  501    0  0.00000000000E+00 -0.00000000000E+00 -0.25103699652E+04  0.25103699652E+04  0.00000000000E+00 0. -1.
         23    2    1    2    0    0  0.94728124175E+03 -0.20641925516E+04 -0.58524133537E+03  0.23470094975E+04  0.87826646209E+02 0.  0.
         11    1    3    3    0    0  0.43502029403E+03 -0.10177328146E+04 -0.31904822251E+03  0.11518743449E+04  0.00000000000E+00 0.  1.
        -11    1    3    3    0    0  0.51226094772E+03 -0.10464597370E+04 -0.26619311286E+03  0.11951351526E+04  0.00000000000E+00 0. -1.
         22    1    1    2    0    0 -0.94728124175E+03  0.20641925516E+04  0.19067514676E+03  0.22791642443E+04  0.00000000000E+00 0. -1.
<mgrwt>
<rscale>  0 0.46093168E+04</rscale>
<asrwt>0</asrwt>
<pdfrwt beam="1">  1        2 0.38621077E+00 0.46093168E+04</pdfrwt>
<pdfrwt beam="2">  1       -2 0.32550827E+00 0.46093168E+04</pdfrwt>
<totfact> 0.57077211E-02</totfact>
</mgrwt>
</event>
<event>
 6    1  0.1773638E-005  0.3473043E+04  0.7818608E-02  0.8120208E-01
          2   -1    0    0  501    0  0.00000000000E+00  0.00000000000E+00  0.30978258821E+04  0.30978258821E+04  0.00000000000E+00 0. -1.
         -2   -1    0    0    0  501 -0.00000000000E+00 -0.00000000000E+00 -0.97342685896E+03  0.97342685896E+03  0.00000000000E+00 0.  1.
         23    2    1    2    0    0 -0.67051444523E+03  0.95228977632E+03 -0.44497986964E+03  0.12502328308E+04  0.92895680772E+02 0.  0.
         13    1    3    3    0    0 -0.22832967961E+03  0.27567248866E+03 -0.10216669203E+03  0.37224695641E+03  0.00000000000E+00 0. -1.
        -13    1    3    3    0    0 -0.44218476562E+03  0.67661728767E+03 -0.34281317761E+03  0.87798587440E+03  0.00000000000E+00 0.  1.
         22    1    1    2    0    0  0.67051444523E+03 -0.95228977632E+03  0.25693788928E+04  0.28210199103E+04  0.00000000000E+00 0. -1.
<mgrwt>
<rscale>  0 0.34730430E+04</rscale>
<asrwt>0</asrwt>
<pdfrwt beam="1">  1        2 0.47658859E+00 0.34730430E+04</pdfrwt>
<pdfrwt beam="2">  1       -2 0.14975798E+00 0.34730430E+04</pdfrwt>
<totfact> 0.37377391E-01</totfact>
</mgrwt>
</event>
<event>
 6    1  0.1773638E-005  0.4228829E+04  0.7818608E-02  0.7959911E-01
         -2   -1    0    0    0  501 -0.00000000000E+00  0.00000000000E+00  0.15542729452E+04  0.15542729452E+04  0.00000000000E+00 0.  1.
          2   -1    0    0  501    0  0.00000000000E+00 -0.00000000000E+00 -0.28764241886E+04  0.28764241886E+04  0.00000000000E+00 0. -1.
         23    2    1    2    0    0 -0.13083804636E+03 -0.14842324933E+04 -0.22318346379E+04  0.26849627420E+04  0.88737741397E+02 0.  0.
         11    1    3    3    0    0 -0.13366645922E+03 -0.11059275623E+04 -0.16409755501E+04  0.19833666457E+04  0.00000000000E+00 0. -1.
        -11    1    3    3    0    0  0.28284128570E+01 -0.37830493093E+03 -0.59085908779E+03  0.70159609628E+03  0.00000000000E+00 0.  1.
         22    1    1    2    0    0  0.13083804636E+03  0.14842324933E+04  0.90968339448E+03  0.17457343918E+04  0.00000000000E+00 0.  1.
<mgrwt>
<rscale>  0 0.42288288E+04</rscale>
<asrwt>0</asrwt>
<pdfrwt beam="1">  1        2 0.44252680E+00 0.42288288E+04</pdfrwt>
<pdfrwt beam="2">  1       -2 0.23911891E+00 0.42288288E+04</pdfrwt>
<totfact> 0.12063372E-01</totfact>
</mgrwt>
</event>
<event>
 6    1  0.1773638E-005  0.2709184E+04  0.7818608E-02  0.8332031E-01
          2   -1    0    0  501    0  0.00000000000E+00  0.00000000000E+00  0.23347011664E+04  0.23347011664E+04  0.00000000000E+00 0.  1.
         -2   -1    0    0    0  501 -0.00000000000E+00 -0.00000000000E+00 -0.78593331092E+03  0.78593331092E+03  0.00000000000E+00 0. -1.
         23    2    1    2    0    0  0.19183973935E+03  0.60888191973E+03 -0.59897510383E+03  0.88002306590E+03  0.90165091606E+02 0.  0.
         13    1    3    3    0    0  0.11010251682E+03  0.37284991572E+03 -0.30411250338E+03  0.49358285887E+03  0.00000000000E+00 0.  1.
        -13    1    3    3    0    0  0.81737222530E+02  0.23603200401E+03 -0.29486260045E+03  0.38644020703E+03  0.00000000000E+00 0. -1.
         22    1    1    2    0    0 -0.19183973935E+03 -0.60888191973E+03  0.21477429593E+04  0.22406114114E+04  0.00000000000E+00 0.  1.
<mgrwt>
<rscale>  0 0.27091839E+04</rscale>
<asrwt>0</asrwt>
<pdfrwt beam="1">  1        2 0.35918479E+00 0.27091839E+04</pdfrwt>
<pdfrwt beam="2">  1       -2 0.12091282E+00 0.27091839E+04</pdfrwt>
<totfact> 0.19786357E+00</totfact>
</mgrwt>
</event>
<event>
 6    1  0.3409360E-005  0.2588667E+04  0.7818608E-02  0.8372061E-01
          1   -1    0    0  501    0  0.00000000000E+00  0.00000000000E+00  0.79371262357E+03  0.79371262357E+03  0.00000000000E+00 0. -1.
         -1   -1    0    0    0  501 -0.00000000000E+00 -0.00000000000E+00 -0.21107131494E+04  0.21107131494E+04  0.00000000000E+00 0.  1.
         23    2    1    2    0    0  0.33270029286E+02  0.12904921752E+04 -0.58259149368E+03  0.14192208795E+04  0.91093945822E+02 0.  0.
         13    1    3    3    0    0 -0.20930290881E+02  0.80012906008E+03 -0.34371219724E+03  0.87108131904E+03  0.00000000000E+00 0.  1.
        -13    1    3    3    0    0  0.54200320167E+02  0.49036311517E+03 -0.23887929644E+03  0.54813956041E+03  0.00000000000E+00 0. -1.
         22    1    1    2    0    0 -0.33270029286E+02 -0.12904921752E+04 -0.73440903216E+03  0.14852048935E+04  0.00000000000E+00 0. -1.
<mgrwt>
<rscale>  0 0.25886674E+04</rscale>
<asrwt>0</asrwt>
<pdfrwt beam="1">  1        1 0.12210964E+00 0.25886674E+04</pdfrwt>
<pdfrwt beam="2">  1       -1 0.32472509E+00 0.25886674E+04</pdfrwt>
<totfact> 0.45003061E-01</totfact>
</mgrwt>
</event>
<event>
 6    1  0.1773638E-005  0.7815164E+03  0.7818608E-02  0.9587164E-01
         -1   -1    0    0    0  501 -0.00000000000E+00  0.00000000000E+00  0.52373705589E+03  0.52373705589E+03  0.00000000000E+00 0.  1.
          1   -1    0    0  501    0  0.00000000000E+00 -0.00000000000E+00 -0.29154316984E+03  0.29154316984E+03  0.00000000000E+00 0. -1.
         23    2    1    2    0    0 -0.13488766210E+03 -0.18760888841E+02  0.49358954115E+03  0.52053569085E+03  0.93702283698E+02 0.  0.
         13    1    3    3    0    0 -0.65949448029E+02  0.33612783430E+02  0.16707488965E+03  0.18273797541E+03  0.00000000000E+00 0. -1.
        -13    1    3    3    0    0 -0.68938214071E+02 -0.52373672272E+02  0.32651465151E+03  0.33779771544E+03  0.00000000000E+00 0.  1.
         22    1    1    2    0    0  0.13488766210E+03  0.18760888841E+02 -0.26139565510E+03  0.29474453489E+03  0.00000000000E+00 0. -1.
<mgrwt>
<rscale>  0 0.78151638E+03</rscale>
<asrwt>0</asrwt>
<pdfrwt beam="1">  1        1 0.44852795E-01 0.78151638E+03</pdfrwt>
<pdfrwt beam="2">  1       -1 0.80574932E-01 0.78151638E+03</pdfrwt>
<totfact> 0.14164969E+02</totfact>
</mgrwt>
</event>
<event>
 6    1  0.1773638E-005  0.3223512E+04  0.7818608E-02  0.8182635E-01
          2   -1    0    0  501    0  0.00000000000E+00  0.00000000000E+00  0.31764037219E+04  0.31764037219E+04  0.00000000000E+00 0.  1.
         -2   -1    0    0    0  501 -0.00000000000E+00 -0.00000000000E+00 -0.81782970198E+03  0.81782970198E+03  0.00000000000E+00 0. -1.
         23    2    1    2    0    0  0.25163049141E+03 -0.98780391098E+03 -0.36612119473E+03  0.10851032303E+04  0.65801370116E+02 0.  0.
         11    1    3    3    0    0  0.38209876372E+02 -0.26747948551E+03 -0.97425040464E+02  0.28722275037E+03  0.00000000000E+00 0.  1.
        -11    1    3    3    0    0  0.21342061504E+03 -0.72032442548E+03 -0.26869615427E+03  0.79788047988E+03  0.00000000000E+00 0. -1.
         22    1    1    2    0    0 -0.25163049141E+03  0.98780391098E+03  0.27246952146E+04  0.29091301936E+04  0.00000000000E+00 0.  1.
<mgrwt>
<rscale>  0 0.32235119E+04</rscale>
<asrwt>0</asrwt>
<pdfrwt beam="1">  1        2 0.48867749E+00 0.32235119E+04</pdfrwt>
<pdfrwt beam="2">  1       -2 0.12581996E+00 0.32235119E+04</pdfrwt>
<totfact> 0.53206145E-01</totfact>
</mgrwt>
</event>
<event>
 6    1  0.1773638E-005  0.6065214E+04  0.7818608E-02  0.7682368E-01
         -2   -1    0    0    0  501 -0.00000000000E+00  0.00000000000E+00  0.24920014000E+04  0.24920014000E+04  0.00000000000E+00 0.  1.
          2   -1    0    0  501    0  0.00000000000E+00 -0.00000000000E+00 -0.36904900740E+04  0.36904900740E+04  0.00000000000E+00 0. -1.
         23    2    1    2    0    0 -0.63876383303E+03  0.91737032022E+03 -0.34722029400E+04  0.36488450697E+04  0.91046951944E+02 0.  0.
         11    1    3    3    0    0 -0.35116018708E+03  0.43144478638E+03 -0.16633421025E+04  0.17538999488E+04  0.00000000000E+00 0.  1.
        -11    1    3    3    0    0 -0.28760364596E+03  0.48592553384E+03 -0.18088608375E+04  0.18949451209E+04  0.00000000000E+00 0. -1.
         22    1    1    2    0    0  0.63876383303E+03 -0.91737032022E+03  0.22737142660E+04  0.25336464043E+04  0.00000000000E+00 0.  1.
<mgrwt>
<rscale>  0 0.60652144E+04</rscale>
<asrwt>0</asrwt>
<pdfrwt beam="1">  1        2 0.56776770E+00 0.60652144E+04</pdfrwt>
<pdfrwt beam="2">  1       -2 0.38338483E+00 0.60652144E+04</pdfrwt>
<totfact> 0.37731888E-03</totfact>
</mgrwt>
</event>
<event>
 6    1  0.1773638E-005  0.2024151E+04  0.7818608E-02  0.8595412E-01
         -2   -1    0    0    0  501 -0.00000000000E+00  0.00000000000E+00  0.32773714804E+03  0.32773714804E+03  0.00000000000E+00 0. -1.
          2   -1    0    0  501    0  0.00000000000E+00 -0.00000000000E+00 -0.31253605350E+04  0.31253605350E+04  0.00000000000E+00 0.  1.
         23    2    1    2    0    0  0.39801426130E+03  0.71505769788E+03 -0.24114824384E+04  0.25482066976E+04  0.91580342719E+02 0.  0.
         11    1    3    3    0    0  0.21703536259E+03  0.38136487479E+03 -0.14326125048E+04  0.14983064124E+04  0.00000000000E+00 0. -1.
        -11    1    3    3    0    0  0.18097889871E+03  0.33369282310E+03 -0.97886993359E+03  0.10499002852E+04  0.00000000000E+00 0.  1.
         22    1    1    2    0    0 -0.39801426130E+03 -0.71505769788E+03 -0.38614094858E+03  0.90489098552E+03  0.00000000000E+00 0. -1.
<mgrwt>
<rscale>  0 0.20241509E+04</rscale>
<asrwt>0</asrwt>
<pdfrwt beam="1">  1        2 0.48082469E+00 0.20241509E+04</pdfrwt>
<pdfrwt beam="2">  1       -2 0.50421100E-01 0.20241509E+04</pdfrwt>
<totfact> 0.50143137E+00</totfact>
</mgrwt>
</event>
<event>
 6    1  0.1773638E-005  0.1343947E+04  0.7818608E-02  0.8995423E-01
          2   -1    0    0  501    0  0.00000000000E+00  0.00000000000E+00  0.17365270254E+04  0.17365270254E+04  0.00000000000E+00 0. -1.
         -2   -1    0    0    0  501 -0.00000000000E+00 -0.00000000000E+00 -0.26002973139E+03  0.26002973139E+03  0.00000000000E+00 0.  1.
         23    2    1    2    0    0  0.22978570971E+02 -0.55251300648E+03  0.13005452312E+04  0.14162484203E+04  0.92428634247E+02 0.  0.
         11    1    3    3    0    0 -0.14469118240E+02 -0.42914314368E+03  0.94265178544E+03  0.10358405195E+04  0.00000000000E+00 0.  1.
        -11    1    3    3    0    0  0.37447689211E+02 -0.12336986280E+03  0.35789344578E+03  0.38040790082E+03  0.00000000000E+00 0. -1.
         22    1    1    2    0    0 -0.22978570971E+02  0.55251300648E+03  0.17595206281E+03  0.58030833654E+03  0.00000000000E+00 0.  1.
<mgrwt>
<rscale>  0 0.13439474E+04</rscale>
<asrwt>0</asrwt>
<pdfrwt beam="1">  1        2 0.26715800E+00 0.13439474E+04</pdfrwt>
<pdfrwt beam="2">  1       -2 0.40004575E-01 0.13439474E+04</pdfrwt>
<totfact> 0.54070625E+01</totfact>
</mgrwt>
</event>
<event>
 6    1  0.1773638E-005  0.1703192E+04  0.7818608E-02  0.8759546E-01
          1   -1    0    0  501    0  0.00000000000E+00  0.00000000000E+00  0.11798750623E+04  0.11798750623E+04  0.00000000000E+00 0. -1.
         -1   -1    0    0    0  501 -0.00000000000E+00 -0.00000000000E+00 -0.61465450466E+03  0.61465450466E+03  0.00000000000E+00 0.  1.
         23    2    1    2    0    0  0.43546796791E+03 -0.42697966255E+03  0.90586109517E+03  0.10959739434E+04  0.92900902401E+02 0.  0.
         11    1    3    3    0    0  0.12667799067E+03 -0.17041869077E+03  0.26256894501E+03  0.33768668077E+03  0.00000000000E+00 0. -1.
        -11    1    3    3    0    0  0.30878997724E+03 -0.25656097177E+03  0.64329215016E+03  0.75828726267E+03  0.00000000000E+00 0.  1.
         22    1    1    2    0    0 -0.43546796791E+03  0.42697966255E+03 -0.34064053754E+03  0.69855562350E+03  0.00000000000E+00 0.  1.
<mgrwt>
<rscale>  0 0.17031917E+04</rscale>
<asrwt>0</asrwt>
<pdfrwt beam="1">  1        1 0.18151924E+00 0.17031917E+04</pdfrwt>
<pdfrwt beam="2">  1       -1 0.94562232E-01 0.17031917E+04</pdfrwt>
<totfact> 0.11380865E+01</totfact>
</mgrwt>
</event>
<event>
 6    1  0.1773638E-005  0.4059548E+04  0.7818608E-02  0.7992640E-01
         -2   -1    0    0    0  501 -0.00000000000E+00  0.00000000000E+00  0.11727211408E+04  0.11727211408E+04  0.00000000000E+00 0.  1.
          2   -1    0    0  501    0  0.00000000000E+00 -0.00000000000E+00 -0.35131817123E+04  0.35131817123E+04  0.00000000000E+00 0. -1.
         23    2    1    2    0    0 -0.16772706618E+04 -0.79129039443E+03 -0.22144369039E+03  0.18699465495E+04  0.91024329472E+02 0.  0.
         11    1    3    3    0    0 -0.30082856822E+03 -0.15374888455E+03 -0.67625121983E+01  0.33790868371E+03  0.00000000000E+00 0. -1.
        -11    1    3    3    0    0 -0.13764420936E+04 -0.63754150988E+03 -0.21468117819E+03  0.15320378658E+04  0.00000000000E+00 0.  1.
         22    1    1    2    0    0  0.16772706618E+04  0.79129039443E+03 -0.21190168811E+04  0.28159563036E+04  0.00000000000E+00 0. -1.
<mgrwt>
<rscale>  0 0.40595480E+04</rscale>
<asrwt>0</asrwt>
<pdfrwt beam="1">  1        2 0.54048950E+00 0.40595480E+04</pdfrwt>
<pdfrwt beam="2">  1       -2 0.18041864E+00 0.40595480E+04</pdfrwt>
<totfact> 0.11233413E-01</totfact>
</mgrwt>
</event>
<event>
 6    1  0.1773638E-005  0.6988879E+03  0.7818608E-02  0.9719136E-01
          1   -1    0    0  501    0  0.00000000000E+00  0.00000000000E+00  0.46238415086E+03  0.46238415086E+03  0.00000000000E+00 0. -1.
         -1   -1    0    0    0  501 -0.00000000000E+00 -0.00000000000E+00 -0.26409012215E+03  0.26409012215E+03  0.00000000000E+00 0.  1.
         23    2    1    2    0    0 -0.14484699305E+03 -0.29453655728E+03  0.20192852808E+03  0.39822795612E+03  0.10038894170E+03 0.  0.
         13    1    3    3    0    0 -0.11534640258E+03 -0.26755744099E+03  0.20773072481E+03  0.35783212663E+03  0.00000000000E+00 0. -1.
        -13    1    3    3    0    0 -0.29500590466E+02 -0.26979116287E+02 -0.58021967274E+01  0.40395829492E+02  0.00000000000E+00 0.  1.
         22    1    1    2    0    0  0.14484699305E+03  0.29453655728E+03 -0.36344993638E+01  0.32824631689E+03  0.00000000000E+00 0. -1.
<mgrwt>
<rscale>  0 0.69888794E+03</rscale>
<asrwt>0</asrwt>
<pdfrwt beam="1">  1        1 0.71136023E-01 0.69888794E+03</pdfrwt>
<pdfrwt beam="2">  1       -1 0.40629250E-01 0.69888794E+03</pdfrwt>
<totfact> 0.29580364E+02</totfact>
</mgrwt>
</event>
<event>
 6    1  0.1773638E-005  0.1668004E+04  0.7818608E-02  0.8779826E-01
          1   -1    0    0  501    0  0.00000000000E+00  0.00000000000E+00  0.12960267320E+04  0.12960267320E+04  0.00000000000E+00 0. -1.
         -1   -1    0    0    0  501 -0.00000000000E+00 -0.00000000000E+00 -0.53668612584E+03  0.53668612584E+03  0.00000000000E+00 0.  1.
         23    2    1    2    0    0 -0.12703021909E+03  0.54492263670E+03 -0.29489902188E+03  0.63918927203E+03  0.92304581820E+02 0.  0.
         11    1    3    3    0    0 -0.10707014974E+03  0.27955746074E+03 -0.18017382518E+03  0.34939805109E+03  0.00000000000E+00 0. -1.
        -11    1    3    3    0    0 -0.19960069346E+02  0.26536517596E+03 -0.11472519670E+03  0.28979122095E+03  0.00000000000E+00 0.  1.
         22    1    1    2    0    0  0.12703021909E+03 -0.54492263670E+03  0.10542396281E+04  0.11935235858E+04  0.00000000000E+00 0. -1.
<mgrwt>
<rscale>  0 0.16680043E+04</rscale>
<asrwt>0</asrwt>
<pdfrwt beam="1">  1        1 0.19938873E+00 0.16680043E+04</pdfrwt>
<pdfrwt beam="2">  1       -1 0.82567096E-01 0.16680043E+04</pdfrwt>
<totfact> 0.12665611E+01</totfact>
</mgrwt>
</event>
<event>
 6    1  0.1773638E-005  0.1997557E+04  0.7818608E-02  0.8607764E-01
         -2   -1    0    0    0  501 -0.00000000000E+00  0.00000000000E+00  0.13807352471E+04  0.13807352471E+04  0.00000000000E+00 0. -1.
          2   -1    0    0  501    0  0.00000000000E+00 -0.00000000000E+00 -0.72248341296E+03  0.72248341296E+03  0.00000000000E+00 0.  1.
         23    2    1    2    0    0 -0.36637101021E+03  0.17095937475E+03  0.12890616398E+04  0.13539684777E+04  0.89977232589E+02 0.  0.
         13    1    3    3    0    0 -0.21482043819E+03  0.64665411688E+02  0.60328066730E+03  0.64364353463E+03  0.00000000000E+00 0. -1.
        -13    1    3    3    0    0 -0.15155057202E+03  0.10629396306E+03  0.68578097252E+03  0.71032494306E+03  0.00000000000E+00 0.  1.
         22    1    1    2    0    0  0.36637101021E+03 -0.17095937475E+03 -0.63080980564E+03  0.74925018240E+03  0.00000000000E+00 0.  1.
<mgrwt>
<rscale>  0 0.19975568E+04</rscale>
<asrwt>0</asrwt>
<pdfrwt beam="1">  1        2 0.11115129E+00 0.19975568E+04</pdfrwt>
<pdfrwt beam="2">  1       -2 0.21242081E+00 0.19975568E+04</pdfrwt>
<totfact> 0.40377123E+00</totfact>
</mgrwt>
</event>
<event>
 6    1  0.1773638E-005  0.2492832E+04  0.7818608E-02  0.8405544E-01
         -2   -1    0    0    0  501 -0.00000000000E+00  0.00000000000E+00  0.10672115794E+04  0.10672115794E+04  0.00000000000E+00 0.  1.
          2   -1    0    0  501    0  0.00000000000E+00 -0.00000000000E+00 -0.14557121673E+04  0.14557121673E+04  0.00000000000E+00 0. -1.
         23    2    1    2    0    0 -0.51999734080E+03  0.25332957892E+03 -0.13100339571E+04  0.14348994544E+04  0.90412198523E+02 0.  0.
         11    1    3    3    0    0 -0.12918857741E+02  0.21249095778E+02 -0.91501893646E+02  0.94820976042E+02  0.00000000000E+00 0.  1.
        -11    1    3    3    0    0 -0.50707848306E+03  0.23208048314E+03 -0.12185320634E+04  0.13400784784E+04  0.00000000000E+00 0. -1.
         22    1    1    2    0    0  0.51999734080E+03 -0.25332957892E+03  0.92153336919E+03  0.10880242922E+04  0.00000000000E+00 0.  1.
<mgrwt>
<rscale>  0 0.24928320E+04</rscale>
<asrwt>0</asrwt>
<pdfrwt beam="1">  1        2 0.22395572E+00 0.24928320E+04</pdfrwt>
<pdfrwt beam="2">  1       -2 0.16418640E+00 0.24928320E+04</pdfrwt>
<totfact> 0.28171999E+00</totfact>
</mgrwt>
</event>
<event>
 6    1  0.1773638E-005  0.2183139E+04  0.7818608E-02  0.8525479E-01
         -1   -1    0    0    0  501 -0.00000000000E+00  0.00000000000E+00  0.90495261523E+03  0.90495261523E+03  0.00000000000E+00 0.  1.
          1   -1    0    0  501    0  0.00000000000E+00 -0.00000000000E+00 -0.13166700440E+04  0.13166700440E+04  0.00000000000E+00 0. -1.
         23    2    1    2    0    0 -0.98295248646E+03  0.47000384131E+03 -0.19104924907E+03  0.11099600994E+04  0.91719164497E+02 0.  0.
         13    1    3    3    0    0 -0.34290340716E+03  0.15742474255E+03 -0.11026908072E+03  0.39309612867E+03  0.00000000000E+00 0. -1.
        -13    1    3    3    0    0 -0.64004907930E+03  0.31257909875E+03 -0.80780168351E+02  0.71686397070E+03  0.00000000000E+00 0.  1.
         22    1    1    2    0    0  0.98295248646E+03 -0.47000384131E+03 -0.22066817971E+03  0.11116625599E+04  0.00000000000E+00 0. -1.
<mgrwt>
<rscale>  0 0.21831390E+04</rscale>
<asrwt>0</asrwt>
<pdfrwt beam="1">  1        1 0.20256462E+00 0.21831390E+04</pdfrwt>
<pdfrwt beam="2">  1       -1 0.13922348E+00 0.21831390E+04</pdfrwt>
<totfact> 0.34178876E+00</totfact>
</mgrwt>
</event>
<event>
 6    1  0.1773638E-005  0.2156296E+04  0.7818608E-02  0.8536842E-01
         -2   -1    0    0    0  501 -0.00000000000E+00  0.00000000000E+00  0.56780044480E+03  0.56780044480E+03  0.00000000000E+00 0.  1.
          2   -1    0    0  501    0  0.00000000000E+00 -0.00000000000E+00 -0.20472042712E+04  0.20472042712E+04  0.00000000000E+00 0. -1.
         23    2    1    2    0    0  0.11358408818E+03  0.10234032285E+04 -0.36142242904E+03  0.10950909296E+04  0.91337061319E+02 0.  0.
         13    1    3    3    0    0  0.57759707077E+02  0.71405702574E+03 -0.21240117129E+03  0.74721340816E+03  0.00000000000E+00 0. -1.
        -13    1    3    3    0    0  0.55824381098E+02  0.30934620274E+03 -0.14902125775E+03  0.34787752146E+03  0.00000000000E+00 0.  1.
         22    1    1    2    0    0 -0.11358408818E+03 -0.10234032285E+04 -0.11179813974E+04  0.15199137864E+04  0.00000000000E+00 0. -1.
<mgrwt>
<rscale>  0 0.21562964E+04</rscale>
<asrwt>0</asrwt>
<pdfrwt beam="1">  1        2 0.31495450E+00 0.21562964E+04</pdfrwt>
<pdfrwt beam="2">  1       -2 0.87353915E-01 0.21562964E+04</pdfrwt>
<totfact> 0.65292057E+00</totfact>
</mgrwt>
</event>
<event>
 6    1  0.1773638E-005  0.3014646E+04  0.7818608E-02  0.8239561E-01
          2   -1    0    0  501    0  0.00000000000E+00  0.00000000000E+00  0.13503417750E+04  0.13503417750E+04  0.00000000000E+00 0. -1.
         -2   -1    0    0    0  501 -0.00000000000E+00 -0.00000000000E+00 -0.16825541123E+04  0.16825541123E+04  0.00000000000E+00 0.  1.
         23    2    1    2    0    0 -0.73114687636E+03 -0.12198608445E+04 -0.66444486345E+03  0.15724114861E+04  0.91403885619E+02 0.  0.
         13    1    3    3    0    0 -0.76277202014E+02 -0.17322171630E+03 -0.66567015777E+02  0.20063684142E+03  0.00000000000E+00 0. -1.
        -13    1    3    3    0    0 -0.65486967435E+03 -0.10466391282E+04 -0.59787784767E+03  0.13717746447E+04  0.00000000000E+00 0.  1.
         22    1    1    2    0    0  0.73114687636E+03  0.12198608445E+04  0.33223252622E+03  0.14604844012E+04  0.00000000000E+00 0. -1.
<mgrwt>
<rscale>  0 0.30146463E+04</rscale>
<asrwt>0</asrwt>
<pdfrwt beam="1">  1        2 0.20774489E+00 0.30146463E+04</pdfrwt>
<pdfrwt beam="2">  1       -2 0.25885448E+00 0.30146463E+04</pdfrwt>
<totfact> 0.74923480E-01</totfact>
</mgrwt>
</event>
<event>
 6    1  0.1773638E-005  0.7592174E+03  0.7818608E-02  0.9621000E-01
          3   -1    0    0  501    0  0.00000000000E+00  0.00000000000E+00  0.21925993406E+04  0.21925993406E+04  0.00000000000E+00 0. -1.
         -3   -1    0    0    0  501 -0.00000000000E+00 -0.00000000000E+00 -0.65722336233E+02  0.65722336233E+02  0.00000000000E+00 0.  1.
         23    2    1    2    0    0  0.32844561875E+03  0.14795731394E+03  0.77562648540E+03  0.85987759278E+03  0.89583137295E+02 0.  0.
         13    1    3    3    0    0  0.19043683796E+03  0.12031275605E+03  0.54466942264E+03  0.58941167996E+03  0.00000000000E+00 0.  1.
        -13    1    3    3    0    0  0.13800878079E+03  0.27644557888E+02  0.23095706276E+03  0.27046591281E+03  0.00000000000E+00 0. -1.
         22    1    1    2    0    0 -0.32844561875E+03 -0.14795731394E+03  0.13512505190E+04  0.13984440841E+04  0.00000000000E+00 0. -1.
<mgrwt>
<rscale>  0 0.75921736E+03</rscale>
<asrwt>0</asrwt>
<pdfrwt beam="1">  1        3 0.33732292E+00 0.75921736E+03</pdfrwt>
<pdfrwt beam="2">  1       -3 0.10111130E-01 0.75921736E+03</pdfrwt>
<totfact> 0.49801466E+00</totfact>
</mgrwt>
</event>
<event>
 6    1  0.1773638E-005  0.2254843E+04  0.7818608E-02  0.8495942E-01
          1   -1    0    0  501    0  0.00000000000E+00  0.00000000000E+00  0.17995664094E+04  0.17995664094E+04  0.00000000000E+00 0. -1.
         -1   -1    0    0    0  501 -0.00000000000E+00 -0.00000000000E+00 -0.70632517850E+03  0.70632517850E+03  0.00000000000E+00 0.  1.
         23    2    1    2    0    0 -0.10094864042E+04 -0.34337082098E+03  0.14697242248E+03  0.10802720809E+04  0.91763580517E+02 0.  0.
         13    1    3    3    0    0 -0.56491895804E+03 -0.18034782467E+03  0.37044246025E+02  0.59416415508E+03  0.00000000000E+00 0. -1.
        -13    1    3    3    0    0 -0.44456744620E+03 -0.16302299631E+03  0.10992817645E+03  0.48610792580E+03  0.00000000000E+00 0.  1.
         22    1    1    2    0    0  0.10094864042E+04  0.34337082098E+03  0.94626880844E+03  0.14256195070E+04  0.00000000000E+00 0. -1.
<mgrwt>
<rscale>  0 0.22548428E+04</rscale>
<asrwt>0</asrwt>
<pdfrwt beam="1">  1        1 0.27685637E+00 0.22548428E+04</pdfrwt>
<pdfrwt beam="2">  1       -1 0.10866541E+00 0.22548428E+04</pdfrwt>
<totfact> 0.29055013E+00</totfact>
</mgrwt>
</event>
<event>
 6    1  0.1773638E-005  0.4921283E+04  0.7818608E-02  0.7840766E-01
         -2   -1    0    0    0  501 -0.00000000000E+00  0.00000000000E+00  0.17458778515E+04  0.17458778515E+04  0.00000000000E+00 0. -1.
          2   -1    0    0  501    0  0.00000000000E+00 -0.00000000000E+00 -0.34680298265E+04  0.34680298265E+04  0.00000000000E+00 0.  1.
         23    2    1    2    0    0  0.21527902318E+04 -0.10555209972E+04 -0.14436042258E+04  0.28001514339E+04  0.90689220081E+02 0.  0.
         13    1    3    3    0    0  0.32844172005E+03 -0.15598751683E+03 -0.18200800629E+03  0.40661158767E+03  0.00000000000E+00 0. -1.
        -13    1    3    3    0    0  0.18243485117E+04 -0.89953348036E+03 -0.12615962195E+04  0.23935398462E+04  0.00000000000E+00 0.  1.
         22    1    1    2    0    0 -0.21527902318E+04  0.10555209972E+04 -0.27854774918E+03  0.24137562441E+04  0.00000000000E+00 0. -1.
<mgrwt>
<rscale>  0 0.49212829E+04</rscale>
<asrwt>0</asrwt>
<pdfrwt beam="1">  1        2 0.53354305E+00 0.49212829E+04</pdfrwt>
<pdfrwt beam="2">  1       -2 0.26859659E+00 0.49212829E+04</pdfrwt>
<totfact> 0.30935820E-02</totfact>
</mgrwt>
</event>
<event>
 6    1  0.1773638E-005  0.1212705E+04  0.7818608E-02  0.9101808E-01
         -2   -1    0    0    0  501 -0.00000000000E+00  0.00000000000E+00  0.29275223969E+03  0.29275223969E+03  0.00000000000E+00 0.  1.
          2   -1    0    0  501    0  0.00000000000E+00 -0.00000000000E+00 -0.12558867347E+04  0.12558867347E+04  0.00000000000E+00 0. -1.
         23    2    1    2    0    0  0.59546693400E+03  0.72445981633E+02 -0.56202933836E+03  0.82703337820E+03  0.90983194824E+02 0.  0.
         13    1    3    3    0    0  0.26610661182E+03  0.45198648039E+02 -0.19404325582E+03  0.33242808511E+03  0.00000000000E+00 0. -1.
        -13    1    3    3    0    0  0.32936032218E+03  0.27247333594E+02 -0.36798608253E+03  0.49460529309E+03  0.00000000000E+00 0.  1.
         22    1    1    2    0    0 -0.59546693400E+03 -0.72445981633E+02 -0.40110515660E+03  0.72160559615E+03  0.00000000000E+00 0. -1.
<mgrwt>
<rscale>  0 0.12127055E+04</rscale>
<asrwt>0</asrwt>
<pdfrwt beam="1">  1        2 0.19321335E+00 0.12127055E+04</pdfrwt>
<pdfrwt beam="2">  1       -2 0.45038806E-01 0.12127055E+04</pdfrwt>
<totfact> 0.80841268E+01</totfact>
</mgrwt>
</event>
<event>
 6    1  0.1773638E-005  0.2954320E+04  0.7818608E-02  0.8256897E-01
         -2   -1    0    0    0  501 -0.00000000000E+00  0.00000000000E+00  0.14269568838E+04  0.14269568838E+04  0.00000000000E+00 0.  1.
          2   -1    0    0  501    0  0.00000000000E+00 -0.00000000000E+00 -0.15291289093E+04  0.15291289093E+04  0.00000000000E+00 0. -1.
         23    2    1    2    0    0 -0.44956333103E+03 -0.24768807975E+03 -0.14353213967E+04  0.15275397422E+04  0.98861411866E+02 0.  0.
         13    1    3    3    0    0 -0.30057941563E+03 -0.21663449407E+03 -0.10230383682E+04  0.10880652517E+04  0.00000000000E+00 0. -1.
        -13    1    3    3    0    0 -0.14898391541E+03 -0.31053585673E+02 -0.41228302852E+03  0.43947449055E+03  0.00000000000E+00 0.  1.
         22    1    1    2    0    0  0.44956333103E+03  0.24768807975E+03  0.13331493712E+04  0.14285460508E+04  0.00000000000E+00 0.  1.
<mgrwt>
<rscale>  0 0.29543196E+04</rscale>
<asrwt>0</asrwt>
<pdfrwt beam="1">  1        2 0.23525060E+00 0.29543196E+04</pdfrwt>
<pdfrwt beam="2">  1       -2 0.21953183E+00 0.29543196E+04</pdfrwt>
<totfact> 0.10451447E+00</totfact>
</mgrwt>
</event>
<event>
 6    1  0.1773638E-005  0.1499513E+04  0.7818608E-02  0.8884777E-01
          1   -1    0    0  501    0  0.00000000000E+00  0.00000000000E+00  0.16756862350E+04  0.16756862350E+04  0.00000000000E+00 0. -1.
         -1   -1    0    0    0  501 -0.00000000000E+00 -0.00000000000E+00 -0.33546551651E+03  0.33546551651E+03  0.00000000000E+00 0.  1.
         23    2    1    2    0    0  0.33915760332E+03 -0.42940407027E+03  0.13545026622E+04  0.14637764603E+04  0.92457171326E+02 0.  0.
         11    1    3    3    0    0  0.15439355322E+03 -0.13325707413E+03  0.44176328737E+03  0.48656923367E+03  0.00000000000E+00 0. -1.
        -11    1    3    3    0    0  0.18476405010E+03 -0.29614699614E+03  0.91273937480E+03  0.97720722666E+03  0.00000000000E+00 0.  1.
         22    1    1    2    0    0 -0.33915760332E+03  0.42940407027E+03 -0.14281943704E+02  0.54737529116E+03  0.00000000000E+00 0.  1.
<mgrwt>
<rscale>  0 0.14995132E+04</rscale>
<asrwt>0</asrwt>
<pdfrwt beam="1">  1        1 0.25779788E+00 0.14995132E+04</pdfrwt>
<pdfrwt beam="2">  1       -1 0.51610080E-01 0.14995132E+04</pdfrwt>
<totfact> 0.18097625E+01</totfact>
</mgrwt>
</event>
<event>
 6    1  0.1773638E-005  0.3347728E+04  0.7818608E-02  0.8150856E-01
         -2   -1    0    0    0  501 -0.00000000000E+00  0.00000000000E+00  0.19437454219E+04  0.19437454219E+04  0.00000000000E+00 0.  1.
          2   -1    0    0  501    0  0.00000000000E+00 -0.00000000000E+00 -0.14414543113E+04  0.14414543113E+04  0.00000000000E+00 0. -1.
         23    2    1    2    0    0  0.45967539452E+03  0.14920510997E+04  0.85823113664E+03  0.17838842570E+04  0.90357102644E+02 0.  0.
         11    1    3    3    0    0  0.21179777417E+02  0.16185221639E+03  0.86449585026E+02  0.18471127110E+03  0.00000000000E+00 0. -1.
        -11    1    3    3    0    0  0.43849561710E+03  0.13301988833E+04  0.77178155161E+03  0.15991729859E+04  0.00000000000E+00 0.  1.
         22    1    1    2    0    0 -0.45967539452E+03 -0.14920510997E+04 -0.35594002596E+03  0.16013154762E+04  0.00000000000E+00 0.  1.
<mgrwt>
<rscale>  0 0.33477277E+04</rscale>
<asrwt>0</asrwt>
<pdfrwt beam="1">  1        2 0.22176220E+00 0.33477277E+04</pdfrwt>
<pdfrwt beam="2">  1       -2 0.29903776E+00 0.33477277E+04</pdfrwt>
<totfact> 0.36725048E-01</totfact>
</mgrwt>
</event>
<event>
 6    1  0.1773638E-005  0.1926044E+04  0.7818608E-02  0.8642000E-01
          1   -1    0    0  501    0  0.00000000000E+00  0.00000000000E+00  0.10196378201E+04  0.10196378201E+04  0.00000000000E+00 0. -1.
         -1   -1    0    0    0  501 -0.00000000000E+00 -0.00000000000E+00 -0.90955004403E+03  0.90955004403E+03  0.00000000000E+00 0.  1.
         23    2    1    2    0    0 -0.67476912280E+03 -0.33827382254E+02  0.73947503678E+03  0.10058320364E+04  0.91744724394E+02 0.  0.
         13    1    3    3    0    0 -0.25917626325E+03  0.31636575528E+02  0.28338009410E+03  0.38532776448E+03  0.00000000000E+00 0.  1.
        -13    1    3    3    0    0 -0.41559285956E+03 -0.65463957782E+02  0.45609494267E+03  0.62050427187E+03  0.00000000000E+00 0. -1.
         22    1    1    2    0    0  0.67476912280E+03  0.33827382254E+02 -0.62938726066E+03  0.92335582782E+03  0.00000000000E+00 0.  1.
<mgrwt>
<rscale>  0 0.19260443E+04</rscale>
<asrwt>0</asrwt>
<pdfrwt beam="1">  1        1 0.15686736E+00 0.19260443E+04</pdfrwt>
<pdfrwt beam="2">  1       -1 0.13993078E+00 0.19260443E+04</pdfrwt>
<totfact> 0.57237313E+00</totfact>
</mgrwt>
</event>
<event>
 6    1  0.1773638E-005  0.1680655E+04  0.7818608E-02  0.8772475E-01
         -2   -1    0    0    0  501 -0.00000000000E+00  0.00000000000E+00  0.98765239540E+03  0.98765239540E+03  0.00000000000E+00 0.  1.
          2   -1    0    0  501    0  0.00000000000E+00 -0.00000000000E+00 -0.71497818202E+03  0.71497818202E+03  0.00000000000E+00 0. -1.
         23    2    1    2    0    0  0.51099957452E+01  0.25920518888E+03  0.94382455410E+03  0.98314727543E+03  0.92522074454E+02 0.  0.
         13    1    3    3    0    0  0.41891685701E+02  0.12006585920E+03  0.52888222726E+03  0.54395508472E+03  0.00000000000E+00 0.  1.
        -13    1    3    3    0    0 -0.36781689956E+02  0.13913932968E+03  0.41494232684E+03  0.43919219071E+03  0.00000000000E+00 0. -1.
         22    1    1    2    0    0 -0.51099957452E+01 -0.25920518888E+03 -0.67115034072E+03  0.71948330199E+03  0.00000000000E+00 0. -1.
<mgrwt>
<rscale>  0 0.16806545E+04</rscale>
<asrwt>0</asrwt>
<pdfrwt beam="1">  1        2 0.10999664E+00 0.16806545E+04</pdfrwt>
<pdfrwt beam="2">  1       -2 0.15194652E+00 0.16806545E+04</pdfrwt>
<totfact> 0.10998080E+01</totfact>
</mgrwt>
</event>
<event>
 6    1  0.1773638E-005  0.1304298E+04  0.7818608E-02  0.9026164E-01
         -2   -1    0    0    0  501 -0.00000000000E+00  0.00000000000E+00  0.18882442651E+03  0.18882442651E+03  0.00000000000E+00 0.  1.
          2   -1    0    0  501    0  0.00000000000E+00 -0.00000000000E+00 -0.22523464365E+04  0.22523464365E+04  0.00000000000E+00 0. -1.
         23    2    1    2    0    0  0.47348392302E+02 -0.59431224613E+03 -0.55663256360E+03  0.82062628794E+03  0.90215173023E+02 0.  0.
         13    1    3    3    0    0  0.21913903555E+02 -0.26317890599E+03 -0.18629058044E+03  0.32318344031E+03  0.00000000000E+00 0. -1.
        -13    1    3    3    0    0  0.25434488748E+02 -0.33113334014E+03 -0.37034198317E+03  0.49744284764E+03  0.00000000000E+00 0.  1.
         22    1    1    2    0    0 -0.47348392302E+02  0.59431224613E+03 -0.15068894464E+04  0.16205445750E+04  0.00000000000E+00 0. -1.
<mgrwt>
<rscale>  0 0.13042975E+04</rscale>
<asrwt>0</asrwt>
<pdfrwt beam="1">  1        2 0.34651483E+00 0.13042975E+04</pdfrwt>
<pdfrwt beam="2">  1       -2 0.29049912E-01 0.13042975E+04</pdfrwt>
<totfact> 0.51599906E+01</totfact>
</mgrwt>
</event>
<event>
 6    1  0.1773638E-005  0.2403083E+04  0.7818608E-02  0.8438350E-01
         -2   -1    0    0    0  501 -0.00000000000E+00  0.00000000000E+00  0.70771451855E+03  0.70771451855E+03  0.00000000000E+00 0.  1.
          2   -1    0    0  501    0  0.00000000000E+00 -0.00000000000E+00 -0.20399504479E+04  0.20399504479E+04  0.00000000000E+00 0. -1.
         23    2    1    2    0    0 -0.73686282044E+03 -0.50729838391E+03 -0.15808756005E+04  0.18191499409E+04  0.99097815072E+02 0.  0.
         13    1    3    3    0    0 -0.25008850536E+03 -0.19290271802E+03 -0.64944986650E+03  0.72217785083E+03  0.00000000000E+00 0. -1.
        -13    1    3    3    0    0 -0.48677431508E+03 -0.31439566588E+03 -0.93142573396E+03  0.10969720901E+04  0.00000000000E+00 0.  1.
         22    1    1    2    0    0  0.73686282044E+03  0.50729838391E+03  0.24863967115E+03  0.92851502548E+03  0.00000000000E+00 0.  1.
<mgrwt>
<rscale>  0 0.24030835E+04</rscale>
<asrwt>0</asrwt>
<pdfrwt beam="1">  1        2 0.31383852E+00 0.24030835E+04</pdfrwt>
<pdfrwt beam="2">  1       -2 0.10887916E+00 0.24030835E+04</pdfrwt>
<totfact> 0.38431473E+00</totfact>
</mgrwt>
</event>
<event>
 6    1  0.1773638E-005  0.3188573E+04  0.7818608E-02  0.8191841E-01
         -2   -1    0    0    0  501 -0.00000000000E+00  0.00000000000E+00  0.14310793614E+04  0.14310793614E+04  0.00000000000E+00 0.  1.
          2   -1    0    0  501    0  0.00000000000E+00 -0.00000000000E+00 -0.17761069247E+04  0.17761069247E+04  0.00000000000E+00 0. -1.
         23    2    1    2    0    0  0.10791995064E+04  0.97875962872E+03 -0.82055419466E+03  0.16746173439E+04  0.91608278019E+02 0.  0.
         13    1    3    3    0    0  0.58213637779E+02  0.81101841905E+02 -0.45420851836E+02  0.10967857660E+03  0.00000000000E+00 0. -1.
        -13    1    3    3    0    0  0.10209858686E+04  0.89765778682E+03 -0.77513334283E+03  0.15649387673E+04  0.00000000000E+00 0.  1.
         22    1    1    2    0    0 -0.10791995064E+04 -0.97875962872E+03  0.47552663139E+03  0.15325689422E+04  0.00000000000E+00 0.  1.
<mgrwt>
<rscale>  0 0.31885733E+04</rscale>
<asrwt>0</asrwt>
<pdfrwt beam="1">  1        2 0.27324722E+00 0.31885733E+04</pdfrwt>
<pdfrwt beam="2">  1       -2 0.22016606E+00 0.31885733E+04</pdfrwt>
<totfact> 0.73937829E-01</totfact>
</mgrwt>
</event>
<event>
 6    1  0.1773638E-005  0.2995232E+04  0.7818608E-02  0.8245094E-01
          2   -1    0    0  501    0  0.00000000000E+00  0.00000000000E+00  0.20721238869E+04  0.20721238869E+04  0.00000000000E+00 0.  1.
         -2   -1    0    0    0  501 -0.00000000000E+00 -0.00000000000E+00 -0.10823937967E+04  0.10823937967E+04  0.00000000000E+00 0. -1.
         23    2    1    2    0    0 -0.55139443358E+03  0.24202627023E+03 -0.94717107086E+03  0.11261689354E+04  0.92254520922E+02 0.  0.
         13    1    3    3    0    0 -0.36184823775E+03  0.20526088976E+03 -0.65672325343E+03  0.77740054774E+03  0.00000000000E+00 0. -1.
        -13    1    3    3    0    0 -0.18954619583E+03  0.36765380476E+02 -0.29044781743E+03  0.34876838762E+03  0.00000000000E+00 0.  1.
         22    1    1    2    0    0  0.55139443358E+03 -0.24202627023E+03  0.19369011610E+04  0.20283487482E+04  0.00000000000E+00 0.  1.
<mgrwt>
<rscale>  0 0.29952322E+04</rscale>
<asrwt>0</asrwt>
<pdfrwt beam="1">  1        2 0.31878829E+00 0.29952322E+04</pdfrwt>
<pdfrwt beam="2">  1       -2 0.16652212E+00 0.29952322E+04</pdfrwt>
<totfact> 0.11773298E+00</totfact>
</mgrwt>
</event>
<event>
 6    1  0.1773638E-005  0.1369795E+04  0.7818608E-02  0.8975977E-01
         -1   -1    0    0    0  501 -0.00000000000E+00  0.00000000000E+00  0.10002716070E+04  0.10002716070E+04  0.00000000000E+00 0.  1.
          1   -1    0    0  501    0  0.00000000000E+00 -0.00000000000E+00 -0.46895752198E+03  0.46895752198E+03  0.00000000000E+00 0. -1.
         23    2    1    2    0    0  0.17014809479E+03  0.56570776883E+03  0.63212771319E+03  0.86994702392E+03  0.90811479283E+02 0.  0.
         13    1    3    3    0    0  0.65094146528E+02  0.18338311438E+03  0.27111025151E+03  0.33371751981E+03  0.00000000000E+00 0.  1.
        -13    1    3    3    0    0  0.10505394826E+03  0.38232465444E+03  0.36101746168E+03  0.53622950411E+03  0.00000000000E+00 0. -1.
         22    1    1    2    0    0 -0.17014809479E+03 -0.56570776883E+03 -0.10081362812E+03  0.59928210510E+03  0.00000000000E+00 0. -1.
<mgrwt>
<rscale>  0 0.13697955E+04</rscale>
<asrwt>0</asrwt>
<pdfrwt beam="1">  1        1 0.72147311E-01 0.13697955E+04</pdfrwt>
<pdfrwt beam="2">  1       -1 0.15388794E+00 0.13697955E+04</pdfrwt>
<totfact> 0.15398553E+01</totfact>
</mgrwt>
</event>
<event>
 6    1  0.1773638E-005  0.8956086E+03  0.7818608E-02  0.9431088E-01
          1   -1    0    0  501    0  0.00000000000E+00  0.00000000000E+00  0.48250089150E+03  0.48250089150E+03  0.00000000000E+00 0. -1.
         -1   -1    0    0    0  501 -0.00000000000E+00 -0.00000000000E+00 -0.41560270502E+03  0.41560270502E+03  0.00000000000E+00 0.  1.
         23    2    1    2    0    0  0.27287889501E+03 -0.53780133074E+00 -0.31455653406E+03  0.42909305890E+03  0.10349811354E+03 0.  0.
         13    1    3    3    0    0  0.23866890420E+03  0.81483247475E+01 -0.31308653597E+03  0.39376696158E+03  0.00000000000E+00 0. -1.
        -13    1    3    3    0    0  0.34209990811E+02 -0.86861260783E+01 -0.14699980909E+01  0.35326097321E+02  0.00000000000E+00 0.  1.
         22    1    1    2    0    0 -0.27287889501E+03  0.53780133074E+00  0.38145472055E+03  0.46901053762E+03  0.00000000000E+00 0. -1.
<mgrwt>
<rscale>  0 0.89560857E+03</rscale>
<asrwt>0</asrwt>
<pdfrwt beam="1">  1        1 0.74230906E-01 0.89560857E+03</pdfrwt>
<pdfrwt beam="2">  1       -1 0.63938878E-01 0.89560857E+03</pdfrwt>
<totfact> 0.11645704E+02</totfact>
</mgrwt>
</event>
<event>
 6    1  0.1773638E-005  0.3236132E+04  0.7818608E-02  0.8179339E-01
          2   -1    0    0  501    0  0.00000000000E+00  0.00000000000E+00  0.12752426653E+04  0.12752426653E+04  0.00000000000E+00 0. -1.
         -2   -1    0    0    0  501 -0.00000000000E+00 -0.00000000000E+00 -0.20530509858E+04  0.20530509858E+04  0.00000000000E+00 0.  1.
         23    2    1    2    0    0 -0.76595492590E+03 -0.75816109062E+03 -0.16287123366E+04  0.19551465969E+04  0.91646888810E+02 0.  0.
         13    1    3    3    0    0 -0.54342382549E+03 -0.56637651631E+03 -0.11190704779E+04  0.13668981480E+04  0.00000000000E+00 0.  1.
        -13    1    3    3    0    0 -0.22253110041E+03 -0.19178457431E+03 -0.50964185866E+03  0.58824844895E+03  0.00000000000E+00 0. -1.
         22    1    1    2    0    0  0.76595492590E+03  0.75816109062E+03  0.85090401612E+03  0.13731470542E+04  0.00000000000E+00 0. -1.
<mgrwt>
<rscale>  0 0.32361324E+04</rscale>
<asrwt>0</asrwt>
<pdfrwt beam="1">  1        2 0.19619118E+00 0.32361324E+04</pdfrwt>
<pdfrwt beam="2">  1       -2 0.31585399E+00 0.32361324E+04</pdfrwt>
<totfact> 0.36438770E-01</totfact>
</mgrwt>
</event>
<event>
 6    1  0.1773638E-005  0.2160696E+04  0.7818608E-02  0.8534968E-01
          2   -1    0    0  501    0  0.00000000000E+00  0.00000000000E+00  0.35705531537E+04  0.35705531537E+04  0.00000000000E+00 0. -1.
         -2   -1    0    0    0  501 -0.00000000000E+00 -0.00000000000E+00 -0.32688250171E+03  0.32688250171E+03  0.00000000000E+00 0.  1.
         23    2    1    2    0    0 -0.43936825870E+03 -0.80000928390E+03  0.26609214972E+04  0.28145432792E+04  0.89951848558E+02 0.  0.
         13    1    3    3    0    0 -0.34625785568E+03 -0.54823021756E+03  0.19129722482E+04  0.20198796242E+04  0.00000000000E+00 0.  1.
        -13    1    3    3    0    0 -0.93110403015E+02 -0.25177906634E+03  0.74794924902E+03  0.79466365496E+03  0.00000000000E+00 0. -1.
         22    1    1    2    0    0  0.43936825870E+03  0.80000928390E+03  0.58274915478E+03  0.10828923762E+04  0.00000000000E+00 0.  1.
<mgrwt>
<rscale>  0 0.21606956E+04</rscale>
<asrwt>0</asrwt>
<pdfrwt beam="1">  1        2 0.54931584E+00 0.21606956E+04</pdfrwt>
<pdfrwt beam="2">  1       -2 0.50289618E-01 0.21606956E+04</pdfrwt>
<totfact> 0.24963640E+00</totfact>
</mgrwt>
</event>
<event>
 6    1  0.1773638E-005  0.2398916E+04  0.7818608E-02  0.8439910E-01
         -2   -1    0    0    0  501 -0.00000000000E+00  0.00000000000E+00  0.39489524535E+03  0.39489524535E+03  0.00000000000E+00 0.  1.
          2   -1    0    0  501    0  0.00000000000E+00 -0.00000000000E+00 -0.36432424533E+04  0.36432424533E+04  0.00000000000E+00 0. -1.
         23    2    1    2    0    0  0.92063012742E+03  0.69561958900E+03 -0.10850716021E+04  0.15863612425E+04  0.87836017270E+02 0.  0.
         13    1    3    3    0    0  0.58595921746E+03  0.42033510207E+03 -0.73004734012E+03  0.10261573570E+04  0.00000000000E+00 0. -1.
        -13    1    3    3    0    0  0.33467090996E+03  0.27528448693E+03 -0.35502426203E+03  0.56020388551E+03  0.00000000000E+00 0.  1.
         22    1    1    2    0    0 -0.92063012742E+03 -0.69561958900E+03 -0.21632756058E+04  0.24517764561E+04  0.00000000000E+00 0. -1.
<mgrwt>
<rscale>  0 0.23989157E+04</rscale>
<asrwt>0</asrwt>
<pdfrwt beam="1">  1        2 0.56049886E+00 0.23989157E+04</pdfrwt>
<pdfrwt beam="2">  1       -2 0.60753113E-01 0.23989157E+04</pdfrwt>
<totfact> 0.14610448E+00</totfact>
</mgrwt>
</event>
<event>
 6    1  0.1773638E-005  0.2449760E+04  0.7818608E-02  0.8421106E-01
         -3   -1    0    0    0  501 -0.00000000000E+00  0.00000000000E+00  0.11602024227E+04  0.11602024227E+04  0.00000000000E+00 0.  1.
          3   -1    0    0  501    0  0.00000000000E+00 -0.00000000000E+00 -0.12931633712E+04  0.12931633712E+04  0.00000000000E+00 0. -1.
         23    2    1    2    0    0  0.28806697155E+03 -0.69340044112E+03  0.90048133928E+03  0.11759505466E+04  0.90588596935E+02 0.  0.
         13    1    3    3    0    0  0.17544698040E+03 -0.30458002920E+03  0.42005063963E+03  0.54771632893E+03  0.00000000000E+00 0. -1.
        -13    1    3    3    0    0  0.11261999114E+03 -0.38882041192E+03  0.48043069965E+03  0.62823421771E+03  0.00000000000E+00 0.  1.
         22    1    1    2    0    0 -0.28806697155E+03  0.69340044112E+03 -0.10334422878E+04  0.12774152473E+04  0.00000000000E+00 0. -1.
<mgrwt>
<rscale>  0 0.24497602E+04</rscale>
<asrwt>0</asrwt>
<pdfrwt beam="1">  1        3 0.19894821E+00 0.24497602E+04</pdfrwt>
<pdfrwt beam="2">  1       -3 0.17849268E+00 0.24497602E+04</pdfrwt>
<totfact> 0.70601606E-02</totfact>
</mgrwt>
</event>
<event>
 6    1  0.1773638E-005  0.1646309E+04  0.7818608E-02  0.8792593E-01
         -2   -1    0    0    0  501 -0.00000000000E+00  0.00000000000E+00  0.32774942866E+03  0.32774942866E+03  0.00000000000E+00 0.  1.
          2   -1    0    0  501    0  0.00000000000E+00 -0.00000000000E+00 -0.20673830820E+04  0.20673830820E+04  0.00000000000E+00 0. -1.
         23    2    1    2    0    0 -0.60942355299E+03 -0.10845423304E+03 -0.16562069152E+04  0.17705371151E+04  0.92849028887E+02 0.  0.
         11    1    3    3    0    0 -0.34330465796E+03 -0.94619168335E+02 -0.10364407430E+04  0.10959107121E+04  0.00000000000E+00 0. -1.
        -11    1    3    3    0    0 -0.26611889503E+03 -0.13835064706E+02 -0.61976617222E+03  0.67462640293E+03  0.00000000000E+00 0.  1.
         22    1    1    2    0    0  0.60942355299E+03  0.10845423304E+03 -0.83426738138E+02  0.62459539562E+03  0.00000000000E+00 0.  1.
<mgrwt>
<rscale>  0 0.16463094E+04</rscale>
<asrwt>0</asrwt>
<pdfrwt beam="1">  1        2 0.31805893E+00 0.16463094E+04</pdfrwt>
<pdfrwt beam="2">  1       -2 0.50422990E-01 0.16463094E+04</pdfrwt>
<totfact> 0.21785569E+01</totfact>
</mgrwt>
</event>
<event>
 6    1  0.1773638E-005  0.2135728E+04  0.7818608E-02  0.8545666E-01
          2   -1    0    0  501    0  0.00000000000E+00  0.00000000000E+00  0.12611058260E+04  0.12611058260E+04  0.00000000000E+00 0. -1.
         -2   -1    0    0    0  501 -0.00000000000E+00 -0.00000000000E+00 -0.90423268401E+03  0.90423268401E+03  0.00000000000E+00 0.  1.
         23    2    1    2    0    0 -0.74085890884E+03  0.65543865539E+03  0.58173757377E+03  0.11509245085E+04  0.87959455187E+02 0.  0.
         13    1    3    3    0    0 -0.28854671595E+03  0.24225136936E+03  0.17383840789E+03  0.41492737352E+03  0.00000000000E+00 0.  1.
        -13    1    3    3    0    0 -0.45231219289E+03  0.41318728603E+03  0.40789916589E+03  0.73599713498E+03  0.00000000000E+00 0. -1.
         22    1    1    2    0    0  0.74085890884E+03 -0.65543865539E+03 -0.22486443178E+03  0.10144140015E+04  0.00000000000E+00 0.  1.
<mgrwt>
<rscale>  0 0.21357276E+04</rscale>
<asrwt>0</asrwt>
<pdfrwt beam="1">  1        2 0.19401628E+00 0.21357276E+04</pdfrwt>
<pdfrwt beam="2">  1       -2 0.13911272E+00 0.21357276E+04</pdfrwt>
<totfact> 0.58465295E+00</totfact>
</mgrwt>
</event>
<event>
 6    1  0.1773638E-005  0.3191402E+04  0.7818608E-02  0.8191092E-01
          2   -1    0    0  501    0  0.00000000000E+00  0.00000000000E+00  0.24590395168E+04  0.24590395168E+04  0.00000000000E+00 0. -1.
         -2   -1    0    0    0  501 -0.00000000000E+00 -0.00000000000E+00 -0.10354698859E+04  0.10354698859E+04  0.00000000000E+00 0.  1.
         23    2    1    2    0    0  0.79793741787E+03  0.53728969725E+03 -0.68002602234E+03  0.11813948326E+04  0.88735663163E+02 0.  0.
         11    1    3    3    0    0  0.33960812180E+03  0.20916249818E+03 -0.33187450600E+03  0.51886733832E+03  0.00000000000E+00 0. -1.
        -11    1    3    3    0    0  0.45832929606E+03  0.32812719907E+03 -0.34815151635E+03  0.66252749432E+03  0.00000000000E+00 0.  1.
         22    1    1    2    0    0 -0.79793741787E+03 -0.53728969725E+03  0.21035956532E+04  0.23131145700E+04  0.00000000000E+00 0. -1.
<mgrwt>
<rscale>  0 0.31914018E+04</rscale>
<asrwt>0</asrwt>
<pdfrwt beam="1">  1        2 0.37831377E+00 0.31914018E+04</pdfrwt>
<pdfrwt beam="2">  1       -2 0.15930306E+00 0.31914018E+04</pdfrwt>
<totfact> 0.78955344E-01</totfact>
</mgrwt>
</event>
<event>
 6    1  0.1773638E-005  0.4902611E+04  0.7818608E-02  0.7843708E-01
         -2   -1    0    0    0  501 -0.00000000000E+00  0.00000000000E+00  0.26538705451E+04  0.26538705451E+04  0.00000000000E+00 0.  1.
          2   -1    0    0  501    0  0.00000000000E+00 -0.00000000000E+00 -0.22642017693E+04  0.22642017693E+04  0.00000000000E+00 0. -1.
         23    2    1    2    0    0 -0.93400414633E+03  0.12464215379E+04  0.20926808440E+04  0.26102203910E+04  0.89481727219E+02 0.  0.
         13    1    3    3    0    0 -0.21350567117E+03  0.25996043340E+03  0.39717258584E+03  0.52049030874E+03  0.00000000000E+00 0.  1.
        -13    1    3    3    0    0 -0.72049847516E+03  0.98646110449E+03  0.16955082581E+04  0.20897300823E+04  0.00000000000E+00 0. -1.
         22    1    1    2    0    0  0.93400414633E+03 -0.12464215379E+04 -0.17030120682E+04  0.23078519233E+04  0.00000000000E+00 0. -1.
<mgrwt>
<rscale>  0 0.49026109E+04</rscale>
<asrwt>0</asrwt>
<pdfrwt beam="1">  1        2 0.34833873E+00 0.49026109E+04</pdfrwt>
<pdfrwt beam="2">  1       -2 0.40828778E+00 0.49026109E+04</pdfrwt>
<totfact> 0.22844472E-02</totfact>
</mgrwt>
</event>
<event>
 6    1  0.1773638E-005  0.1654836E+04  0.7818608E-02  0.8787551E-01
         -2   -1    0    0    0  501 -0.00000000000E+00  0.00000000000E+00  0.92188958092E+03  0.92188958092E+03  0.00000000000E+00 0.  1.
          2   -1    0    0  501    0  0.00000000000E+00 -0.00000000000E+00 -0.74262754579E+03  0.74262754579E+03  0.00000000000E+00 0. -1.
         23    2    1    2    0    0  0.52219182972E+03  0.45608603319E+03  0.53969373019E+03  0.88310188276E+03  0.88886648225E+02 0.  0.
         11    1    3    3    0    0  0.35716103838E+03  0.33224860144E+03  0.33013980750E+03  0.58902074071E+03  0.00000000000E+00 0. -1.
        -11    1    3    3    0    0  0.16503079134E+03  0.12383743175E+03  0.20955392269E+03  0.29408114204E+03  0.00000000000E+00 0.  1.
         22    1    1    2    0    0 -0.52219182972E+03 -0.45608603319E+03 -0.36043169506E+03  0.78141524396E+03  0.00000000000E+00 0. -1.
<mgrwt>
<rscale>  0 0.16548361E+04</rscale>
<asrwt>0</asrwt>
<pdfrwt beam="1">  1        2 0.11425039E+00 0.16548361E+04</pdfrwt>
<pdfrwt beam="2">  1       -2 0.14182917E+00 0.16548361E+04</pdfrwt>
<totfact> 0.12588559E+01</totfact>
</mgrwt>
</event>
<event>
 6    1  0.1773638E-005  0.4438076E+04  0.7818608E-02  0.7921568E-01
         -1   -1    0    0    0  501 -0.00000000000E+00  0.00000000000E+00  0.14744175975E+04  0.14744175975E+04  0.00000000000E+00 0.  1.
          1   -1    0    0  501    0  0.00000000000E+00 -0.00000000000E+00 -0.33397121564E+04  0.33397121564E+04  0.00000000000E+00 0. -1.
         23    2    1    2    0    0 -0.15977849299E+04  0.71649654060E+03 -0.24099177223E+04  0.29803090524E+04  0.90855075266E+02 0.  0.
         11    1    3    3    0    0 -0.64355648105E+03  0.25285569353E+03 -0.89999032901E+03  0.11349376804E+04  0.00000000000E+00 0.  1.
        -11    1    3    3    0    0 -0.95422844889E+03  0.46364084707E+03 -0.15099273933E+04  0.18453713720E+04  0.00000000000E+00 0. -1.
         22    1    1    2    0    0  0.15977849299E+04 -0.71649654060E+03  0.54462316342E+03  0.18338207015E+04  0.00000000000E+00 0.  1.
<mgrwt>
<rscale>  0 0.44380763E+04</rscale>
<asrwt>0</asrwt>
<pdfrwt beam="1">  1        1 0.51380186E+00 0.44380763E+04</pdfrwt>
<pdfrwt beam="2">  1       -1 0.22683348E+00 0.44380763E+04</pdfrwt>
<totfact> 0.24893215E-02</totfact>
</mgrwt>
</event>
<event>
 6    1  0.1773638E-005  0.2511564E+04  0.7818608E-02  0.8398877E-01
         -2   -1    0    0    0  501 -0.00000000000E+00  0.00000000000E+00  0.47022663166E+03  0.47022663166E+03  0.00000000000E+00 0.  1.
          2   -1    0    0  501    0  0.00000000000E+00 -0.00000000000E+00 -0.33536774911E+04  0.33536774911E+04  0.00000000000E+00 0. -1.
         23    2    1    2    0    0 -0.18054738476E+03 -0.58512721468E+03 -0.31099702357E+04  0.31710011871E+04  0.91446410866E+02 0.  0.
         11    1    3    3    0    0 -0.90751881750E+02 -0.36225097413E+03 -0.20907144508E+04  0.21238052140E+04  0.00000000000E+00 0. -1.
        -11    1    3    3    0    0 -0.89795503006E+02 -0.22287624054E+03 -0.10192557849E+04  0.10471959731E+04  0.00000000000E+00 0.  1.
         22    1    1    2    0    0  0.18054738476E+03  0.58512721468E+03  0.22651937631E+03  0.65290293562E+03  0.00000000000E+00 0.  1.
<mgrwt>
<rscale>  0 0.25115640E+04</rscale>
<asrwt>0</asrwt>
<pdfrwt beam="1">  1        2 0.51595038E+00 0.25115640E+04</pdfrwt>
<pdfrwt beam="2">  1       -2 0.72342559E-01 0.25115640E+04</pdfrwt>
<totfact> 0.15808943E+00</totfact>
</mgrwt>
</event>
<event>
 6    1  0.1773638E-005  0.1660154E+04  0.7818608E-02  0.8784422E-01
         -1   -1    0    0    0  501 -0.00000000000E+00  0.00000000000E+00  0.67307700564E+03  0.67307700564E+03  0.00000000000E+00 0.  1.
          1   -1    0    0  501    0  0.00000000000E+00 -0.00000000000E+00 -0.10236984145E+04  0.10236984145E+04  0.00000000000E+00 0. -1.
         23    2    1    2    0    0  0.33137695090E+03  0.65363978870E+03  0.21730054857E+03  0.76963411123E+03  0.89785743895E+02 0.  0.
         13    1    3    3    0    0  0.69722800152E+02  0.18815147790E+03  0.25607600317E+02  0.20228197323E+03  0.00000000000E+00 0.  1.
        -13    1    3    3    0    0  0.26165415075E+03  0.46548831079E+03  0.19169294825E+03  0.56735213801E+03  0.00000000000E+00 0. -1.
         22    1    1    2    0    0 -0.33137695090E+03 -0.65363978870E+03 -0.56792195742E+03  0.92714130890E+03  0.00000000000E+00 0. -1.
<mgrwt>
<rscale>  0 0.16601540E+04</rscale>
<asrwt>0</asrwt>
<pdfrwt beam="1">  1        1 0.15749206E+00 0.16601540E+04</pdfrwt>
<pdfrwt beam="2">  1       -1 0.10355031E+00 0.16601540E+04</pdfrwt>
<totfact> 0.12177699E+01</totfact>
</mgrwt>
</event>
<event>
 6    1  0.1773638E-005  0.5089492E+04  0.7818608E-02  0.7814849E-01
         -2   -1    0    0    0  501 -0.00000000000E+00  0.00000000000E+00  0.22549045892E+04  0.22549045892E+04  0.00000000000E+00 0. -1.
          2   -1    0    0  501    0  0.00000000000E+00 -0.00000000000E+00 -0.28718425654E+04  0.28718425654E+04  0.00000000000E+00 0.  1.
         23    2    1    2    0    0  0.17398461302E+04  0.18443617772E+04 -0.10018053467E+03  0.25391279447E+04  0.91649645941E+02 0.  0.
         13    1    3    3    0    0  0.12707381134E+04  0.13148408326E+04 -0.37538305454E+02  0.18289316259E+04  0.00000000000E+00 0.  1.
        -13    1    3    3    0    0  0.46910801684E+03  0.52952094468E+03 -0.62642229211E+02  0.71019631877E+03  0.00000000000E+00 0. -1.
         22    1    1    2    0    0 -0.17398461302E+04 -0.18443617772E+04 -0.51675744153E+03  0.25876192099E+04  0.00000000000E+00 0.  1.
<mgrwt>
<rscale>  0 0.50894915E+04</rscale>
<asrwt>0</asrwt>
<pdfrwt beam="1">  1        2 0.44182194E+00 0.50894915E+04</pdfrwt>
<pdfrwt beam="2">  1       -2 0.34690840E+00 0.50894915E+04</pdfrwt>
<totfact> 0.24587702E-02</totfact>
</mgrwt>
</event>
<event>
 6    1  0.1773638E-005  0.2184530E+04  0.7818608E-02  0.8524895E-01
          2   -1    0    0  501    0  0.00000000000E+00  0.00000000000E+00  0.17065644669E+04  0.17065644669E+04  0.00000000000E+00 0. -1.
         -2   -1    0    0    0  501 -0.00000000000E+00 -0.00000000000E+00 -0.69909054626E+03  0.69909054626E+03  0.00000000000E+00 0.  1.
         23    2    1    2    0    0 -0.40035589953E+03  0.20914772955E+03 -0.58812968031E+03  0.74734910940E+03  0.92771501019E+02 0.  0.
         11    1    3    3    0    0 -0.28242081378E+03  0.16769041488E+03 -0.36078059268E+03  0.48789776322E+03  0.00000000000E+00 0.  1.
        -11    1    3    3    0    0 -0.11793508574E+03  0.41457314668E+02 -0.22734908764E+03  0.25945134618E+03  0.00000000000E+00 0. -1.
         22    1    1    2    0    0  0.40035589953E+03 -0.20914772955E+03  0.15956036009E+04  0.16583059037E+04  0.00000000000E+00 0. -1.
<mgrwt>
<rscale>  0 0.21845302E+04</rscale>
<asrwt>0</asrwt>
<pdfrwt beam="1">  1        2 0.26254838E+00 0.21845302E+04</pdfrwt>
<pdfrwt beam="2">  1       -2 0.10755239E+00 0.21845302E+04</pdfrwt>
<totfact> 0.61750567E+00</totfact>
</mgrwt>
</event>
<event>
 6    1  0.1773638E-005  0.1573269E+04  0.7818608E-02  0.8837140E-01
         -1   -1    0    0    0  501 -0.00000000000E+00  0.00000000000E+00  0.66238057208E+03  0.66238057208E+03  0.00000000000E+00 0.  1.
          1   -1    0    0  501    0  0.00000000000E+00 -0.00000000000E+00 -0.93419639153E+03  0.93419639153E+03  0.00000000000E+00 0. -1.
         23    2    1    2    0    0 -0.13723994932E+03  0.47323503342E+03 -0.75553945383E+03  0.90608818382E+03  0.85847131712E+02 0.  0.
         13    1    3    3    0    0 -0.99063511610E+02  0.19168504778E+03 -0.31171542176E+03  0.37910848189E+03  0.00000000000E+00 0. -1.
        -13    1    3    3    0    0 -0.38176437712E+02  0.28154998564E+03 -0.44382403207E+03  0.52697970193E+03  0.00000000000E+00 0.  1.
         22    1    1    2    0    0  0.13723994932E+03 -0.47323503342E+03  0.48372363438E+03  0.69048877978E+03  0.00000000000E+00 0.  1.
<mgrwt>
<rscale>  0 0.15732686E+04</rscale>
<asrwt>0</asrwt>
<pdfrwt beam="1">  1        1 0.14372252E+00 0.15732686E+04</pdfrwt>
<pdfrwt beam="2">  1       -1 0.10190470E+00 0.15732686E+04</pdfrwt>
<totfact> 0.14981682E+01</totfact>
</mgrwt>
</event>
<event>
 6    1  0.1773638E-005  0.1928870E+04  0.7818608E-02  0.8640618E-01
          2   -1    0    0  501    0  0.00000000000E+00  0.00000000000E+00  0.21198302872E+04  0.21198302872E+04  0.00000000000E+00 0. -1.
         -2   -1    0    0    0  501 -0.00000000000E+00 -0.00000000000E+00 -0.43877804044E+03  0.43877804044E+03  0.00000000000E+00 0.  1.
         23    2    1    2    0    0 -0.55591943546E+03 -0.47630371379E+03  0.16716774826E+04  0.18264884381E+04  0.75118319791E+02 0.  0.
         13    1    3    3    0    0 -0.27634237035E+03 -0.28209180517E+03  0.86100715515E+03  0.94724559298E+03  0.00000000000E+00 0.  1.
        -13    1    3    3    0    0 -0.27957706511E+03 -0.19421190861E+03  0.81067032747E+03  0.87924284508E+03  0.00000000000E+00 0. -1.
         22    1    1    2    0    0  0.55591943546E+03  0.47630371379E+03  0.93747641129E+01  0.73211988956E+03  0.00000000000E+00 0.  1.
<mgrwt>
<rscale>  0 0.19288701E+04</rscale>
<asrwt>0</asrwt>
<pdfrwt beam="1">  1        2 0.32612773E+00 0.19288701E+04</pdfrwt>
<pdfrwt beam="2">  1       -2 0.67504315E-01 0.19288701E+04</pdfrwt>
<totfact> 0.10767523E+01</totfact>
</mgrwt>
</event>
<event>
 6    1  0.1773638E-005  0.7956280E+03  0.7818608E-02  0.9566367E-01
          2   -1    0    0  501    0  0.00000000000E+00  0.00000000000E+00  0.25751044685E+04  0.25751044685E+04  0.00000000000E+00 0.  1.
         -2   -1    0    0    0  501 -0.00000000000E+00 -0.00000000000E+00 -0.61456143694E+02  0.61456143694E+02  0.00000000000E+00 0. -1.
         23    2    1    2    0    0  0.33617649911E+03 -0.78282420395E+02  0.18937961032E+04  0.19270822457E+04  0.89663399952E+02 0.  0.
         13    1    3    3    0    0  0.16342826838E+03 -0.65873050791E+02  0.76172571035E+03  0.78184021100E+03  0.00000000000E+00 0.  1.
        -13    1    3    3    0    0  0.17274823074E+03 -0.12409369604E+02  0.11320703929E+04  0.11452420347E+04  0.00000000000E+00 0. -1.
         22    1    1    2    0    0 -0.33617649911E+03  0.78282420395E+02  0.61985222162E+03  0.70947836651E+03  0.00000000000E+00 0. -1.
<mgrwt>
<rscale>  0 0.79562803E+03</rscale>
<asrwt>0</asrwt>
<pdfrwt beam="1">  1        2 0.39616983E+00 0.79562803E+03</pdfrwt>
<pdfrwt beam="2">  1       -2 0.94547933E-02 0.79562803E+03</pdfrwt>
<totfact> 0.24509677E+02</totfact>
</mgrwt>
</event>
<event>
 6    1  0.1773638E-005  0.3555556E+04  0.7818608E-02  0.8100749E-01
          1   -1    0    0  501    0  0.00000000000E+00  0.00000000000E+00  0.14041928121E+04  0.14041928121E+04  0.00000000000E+00 0. -1.
         -1   -1    0    0    0  501 -0.00000000000E+00 -0.00000000000E+00 -0.22507550929E+04  0.22507550929E+04  0.00000000000E+00 0.  1.
         23    2    1    2    0    0 -0.16805887947E+04 -0.55009642415E+03 -0.59998691228E+03  0.18695112119E+04  0.90017241139E+02 0.  0.
         11    1    3    3    0    0 -0.70242146720E+03 -0.21333079129E+03 -0.20537710130E+03  0.76228977288E+03  0.00000000000E+00 0. -1.
        -11    1    3    3    0    0 -0.97816732752E+03 -0.33676563286E+03 -0.39460981098E+03  0.11072214390E+04  0.00000000000E+00 0.  1.
         22    1    1    2    0    0  0.16805887947E+04  0.55009642415E+03 -0.24657536849E+03  0.17854366931E+04  0.00000000000E+00 0.  1.
<mgrwt>
<rscale>  0 0.35555557E+04</rscale>
<asrwt>0</asrwt>
<pdfrwt beam="1">  1        1 0.21602966E+00 0.35555557E+04</pdfrwt>
<pdfrwt beam="2">  1       -1 0.34627001E+00 0.35555557E+04</pdfrwt>
<totfact> 0.10187774E-01</totfact>
</mgrwt>
</event>
<event>
 6    1  0.1773638E-005  0.2062646E+04  0.7818608E-02  0.8577879E-01
         -2   -1    0    0    0  501 -0.00000000000E+00  0.00000000000E+00  0.89450947640E+03  0.89450947640E+03  0.00000000000E+00 0.  1.
          2   -1    0    0  501    0  0.00000000000E+00 -0.00000000000E+00 -0.11890613609E+04  0.11890613609E+04  0.00000000000E+00 0. -1.
         23    2    1    2    0    0 -0.94313704974E+03 -0.23346887641E+03 -0.49141231583E+03  0.10922236527E+04  0.86320522282E+02 0.  0.
         13    1    3    3    0    0 -0.52550089619E+03 -0.15876055062E+03 -0.31345701826E+03  0.63214824735E+03  0.00000000000E+00 0. -1.
        -13    1    3    3    0    0 -0.41763615355E+03 -0.74708325786E+02 -0.17795529757E+03  0.46007540537E+03  0.00000000000E+00 0.  1.
         22    1    1    2    0    0  0.94313704974E+03  0.23346887641E+03  0.19686043137E+03  0.99134718454E+03  0.00000000000E+00 0.  1.
<mgrwt>
<rscale>  0 0.20626455E+04</rscale>
<asrwt>0</asrwt>
<pdfrwt beam="1">  1        2 0.18293252E+00 0.20626455E+04</pdfrwt>
<pdfrwt beam="2">  1       -2 0.13761684E+00 0.20626455E+04</pdfrwt>
<totfact> 0.66754208E+00</totfact>
</mgrwt>
</event>
<event>
 6    1  0.1773638E-005  0.2441437E+04  0.7818608E-02  0.8424151E-01
          1   -1    0    0  501    0  0.00000000000E+00  0.00000000000E+00  0.36534705682E+04  0.36534705682E+04  0.00000000000E+00 0. -1.
         -1   -1    0    0    0  501 -0.00000000000E+00 -0.00000000000E+00 -0.40787347385E+03  0.40787347385E+03  0.00000000000E+00 0.  1.
         23    2    1    2    0    0 -0.40179203750E+03 -0.52672872433E+03 -0.74980107326E+02  0.67532677353E+03  0.10753717553E+03 0.  0.
         11    1    3    3    0    0 -0.17163801275E+03 -0.29230643631E+03 -0.73280097124E+02  0.34680344976E+03  0.00000000000E+00 0. -1.
        -11    1    3    3    0    0 -0.23015402475E+03 -0.23442228802E+03 -0.17000102026E+01  0.32852332377E+03  0.00000000000E+00 0.  1.
         22    1    1    2    0    0  0.40179203750E+03  0.52672872433E+03  0.33205772017E+04  0.33860172685E+04  0.00000000000E+00 0. -1.
<mgrwt>
<rscale>  0 0.24414371E+04</rscale>
<asrwt>0</asrwt>
<pdfrwt beam="1">  1        1 0.56207237E+00 0.24414371E+04</pdfrwt>
<pdfrwt beam="2">  1       -1 0.62749768E-01 0.24414371E+04</pdfrwt>
<totfact> 0.43387827E-01</totfact>
</mgrwt>
</event>
<event>
 6    1  0.1773638E-005  0.2808819E+04  0.7818608E-02  0.8300536E-01
         -1   -1    0    0    0  501 -0.00000000000E+00  0.00000000000E+00  0.11605147023E+04  0.11605147023E+04  0.00000000000E+00 0.  1.
          1   -1    0    0  501    0  0.00000000000E+00 -0.00000000000E+00 -0.16995613173E+04  0.16995613173E+04  0.00000000000E+00 0. -1.
         23    2    1    2    0    0  0.27317648035E+03 -0.14604656741E+03 -0.16630774791E+04  0.16941427570E+04  0.91312596822E+02 0.  0.
         13    1    3    3    0    0  0.21058010540E+03 -0.14748444615E+03 -0.12317071433E+04  0.12582520135E+04  0.00000000000E+00 0. -1.
        -13    1    3    3    0    0  0.62596374952E+02  0.14378787403E+01 -0.43137033579E+03  0.43589074348E+03  0.00000000000E+00 0.  1.
         22    1    1    2    0    0 -0.27317648035E+03  0.14604656741E+03  0.11240308641E+04  0.11659332625E+04  0.00000000000E+00 0.  1.
<mgrwt>
<rscale>  0 0.28088189E+04</rscale>
<asrwt>0</asrwt>
<pdfrwt beam="1">  1        1 0.26147097E+00 0.28088189E+04</pdfrwt>
<pdfrwt beam="2">  1       -1 0.17854072E+00 0.28088189E+04</pdfrwt>
<totfact> 0.87968692E-01</totfact>
</mgrwt>
</event>
<event>
 6    1  0.1773638E-005  0.1785459E+04  0.7818608E-02  0.8714071E-01
          2   -1    0    0  501    0  0.00000000000E+00  0.00000000000E+00  0.23348773866E+04  0.23348773866E+04  0.00000000000E+00 0. -1.
         -2   -1    0    0    0  501 -0.00000000000E+00 -0.00000000000E+00 -0.34133084716E+03  0.34133084716E+03  0.00000000000E+00 0.  1.
         23    2    1    2    0    0 -0.17839107741E+03  0.56615767387E+03  0.43954752596E+01  0.60037590808E+03  0.89855565344E+02 0.  0.
         13    1    3    3    0    0 -0.11762068918E+03  0.22725913879E+03  0.87835389989E+01  0.25604392835E+03  0.00000000000E+00 0. -1.
        -13    1    3    3    0    0 -0.60770388228E+02  0.33889853508E+03 -0.43880637393E+01  0.34433197973E+03  0.00000000000E+00 0.  1.
         22    1    1    2    0    0  0.17839107741E+03 -0.56615767387E+03  0.19891510642E+04  0.20758323257E+04  0.00000000000E+00 0. -1.
<mgrwt>
<rscale>  0 0.17854587E+04</rscale>
<asrwt>0</asrwt>
<pdfrwt beam="1">  1        2 0.35921190E+00 0.17854587E+04</pdfrwt>
<pdfrwt beam="2">  1       -2 0.52512439E-01 0.17854587E+04</pdfrwt>
<totfact> 0.14017654E+01</totfact>
</mgrwt>
</event>
<event>
 6    1  0.1773638E-005  0.4734297E+04  0.7818608E-02  0.7870855E-01
          2   -1    0    0  501    0  0.00000000000E+00  0.00000000000E+00  0.31870126042E+04  0.31870126042E+04  0.00000000000E+00 0.  1.
         -2   -1    0    0    0  501 -0.00000000000E+00 -0.00000000000E+00 -0.17581957825E+04  0.17581957825E+04  0.00000000000E+00 0. -1.
         23    2    1    2    0    0  0.20988371059E+03  0.22189701928E+04 -0.11584753536E+03  0.22334067965E+04  0.82494717767E+02 0.  0.
         11    1    3    3    0    0  0.54194193477E+02  0.67762511241E+03  0.13732271643E+01  0.67979018037E+03  0.00000000000E+00 0. -1.
        -11    1    3    3    0    0  0.15568951711E+03  0.15413450804E+04 -0.11722076253E+03  0.15536166161E+04  0.00000000000E+00 0.  1.
         22    1    1    2    0    0 -0.20988371059E+03 -0.22189701928E+04  0.15446643571E+04  0.27118015902E+04  0.00000000000E+00 0.  1.
<mgrwt>
<rscale>  0 0.47342970E+04</rscale>
<asrwt>0</asrwt>
<pdfrwt beam="1">  1        2 0.49030963E+00 0.47342970E+04</pdfrwt>
<pdfrwt beam="2">  1       -2 0.27049166E+00 0.47342970E+04</pdfrwt>
<totfact> 0.47278806E-02</totfact>
</mgrwt>
</event>
<event>
 6    1  0.1773638E-005  0.1489123E+04  0.7818608E-02  0.8891719E-01
         -1   -1    0    0    0  501 -0.00000000000E+00  0.00000000000E+00  0.68120425532E+03  0.68120425532E+03  0.00000000000E+00 0.  1.
          1   -1    0    0  501    0  0.00000000000E+00 -0.00000000000E+00 -0.81381123966E+03  0.81381123966E+03  0.00000000000E+00 0. -1.
         23    2    1    2    0    0 -0.44904381362E+03  0.35985142593E+03  0.40411012785E+03  0.70812372745E+03  0.83670918754E+02 0.  0.
         11    1    3    3    0    0 -0.31698647390E+03  0.30023622123E+03  0.30329140771E+03  0.53160877642E+03  0.00000000000E+00 0. -1.
        -11    1    3    3    0    0 -0.13205733973E+03  0.59615204704E+02  0.10081872014E+03  0.17651495103E+03  0.00000000000E+00 0.  1.
         22    1    1    2    0    0  0.44904381362E+03 -0.35985142593E+03 -0.53671711219E+03  0.78689176754E+03  0.00000000000E+00 0. -1.
<mgrwt>
<rscale>  0 0.14891228E+04</rscale>
<asrwt>0</asrwt>
<pdfrwt beam="1">  1        1 0.12520173E+00 0.14891228E+04</pdfrwt>
<pdfrwt beam="2">  1       -1 0.10480065E+00 0.14891228E+04</pdfrwt>
<totfact> 0.17812827E+01</totfact>
</mgrwt>
</event>
<event>
 6    1  0.1773638E-005  0.1223254E+04  0.7818608E-02  0.9092742E-01
         -1   -1    0    0    0  501 -0.00000000000E+00  0.00000000000E+00  0.14650515604E+04  0.14650515604E+04  0.00000000000E+00 0.  1.
          1   -1    0    0  501    0  0.00000000000E+00 -0.00000000000E+00 -0.25534099656E+03  0.25534099656E+03  0.00000000000E+00 0. -1.
         23    2    1    2    0    0  0.57588257726E+03  0.12146949391E+03  0.39132532233E+03  0.71234990693E+03  0.88945496073E+02 0.  0.
         13    1    3    3    0    0  0.24760114544E+03  0.96414870024E+01  0.17946127005E+03  0.30595037660E+03  0.00000000000E+00 0. -1.
        -13    1    3    3    0    0  0.32828143182E+03  0.11182800691E+03  0.21186405228E+03  0.40639953033E+03  0.00000000000E+00 0.  1.
         22    1    1    2    0    0 -0.57588257726E+03 -0.12146949391E+03  0.81838524152E+03  0.10080426500E+04  0.00000000000E+00 0.  1.
<mgrwt>
<rscale>  0 0.12232542E+04</rscale>
<asrwt>0</asrwt>
<pdfrwt beam="1">  1        1 0.39283231E-01 0.12232542E+04</pdfrwt>
<pdfrwt beam="2">  1       -1 0.22539254E+00 0.12232542E+04</pdfrwt>
<totfact> 0.10838239E+01</totfact>
</mgrwt>
</event>
<event>
 6    1  0.1773638E-005  0.5714595E+04  0.7818608E-02  0.7726832E-01
          2   -1    0    0  501    0  0.00000000000E+00  0.00000000000E+00  0.25018073393E+04  0.25018073393E+04  0.00000000000E+00 0. -1.
         -2   -1    0    0    0  501 -0.00000000000E+00 -0.00000000000E+00 -0.32633004006E+04  0.32633004006E+04  0.00000000000E+00 0.  1.
         23    2    1    2    0    0 -0.17836646638E+04  0.15502222019E+04  0.12380893889E+04  0.26694691170E+04  0.92474446818E+02 0.  0.
         13    1    3    3    0    0 -0.89844570291E+03  0.71970914705E+03  0.60545014117E+03  0.13006751366E+04  0.00000000000E+00 0. -1.
        -13    1    3    3    0    0 -0.88521896092E+03  0.83051305484E+03  0.63263924774E+03  0.13687939804E+04  0.00000000000E+00 0.  1.
         22    1    1    2    0    0  0.17836646638E+04 -0.15502222019E+04 -0.19995824502E+04  0.30956386229E+04  0.00000000000E+00 0.  1.
<mgrwt>
<rscale>  0 0.57145950E+04</rscale>
<asrwt>0</asrwt>
<pdfrwt beam="1">  1        2 0.38489344E+00 0.57145950E+04</pdfrwt>
<pdfrwt beam="2">  1       -2 0.50204621E+00 0.57145950E+04</pdfrwt>
<totfact> 0.38693297E-03</totfact>
</mgrwt>
</event>
<event>
 6    1  0.1773638E-005  0.2490405E+04  0.7818608E-02  0.8406412E-01
         -3   -1    0    0    0  501 -0.00000000000E+00  0.00000000000E+00  0.16936427828E+04  0.16936427828E+04  0.00000000000E+00 0.  1.
          3   -1    0    0  501    0  0.00000000000E+00 -0.00000000000E+00 -0.91549972049E+03  0.91549972049E+03  0.00000000000E+00 0. -1.
         23    2    1    2    0    0  0.99307878492E+02 -0.58206630119E+03  0.15361775494E+04  0.16482681529E+04  0.91012123520E+02 0.  0.
         13    1    3    3    0    0  0.65436757087E+02 -0.51533840374E+03  0.12803495349E+04  0.13817201493E+04  0.00000000000E+00 0.  1.
        -13    1    3    3    0    0  0.33871121405E+02 -0.66727897455E+02  0.25582801458E+03  0.26654800357E+03  0.00000000000E+00 0. -1.
         22    1    1    2    0    0 -0.99307878492E+02  0.58206630119E+03 -0.75803448711E+03  0.96087435045E+03  0.00000000000E+00 0. -1.
<mgrwt>
<rscale>  0 0.24904052E+04</rscale>
<asrwt>0</asrwt>
<pdfrwt beam="1">  1        3 0.14084611E+00 0.24904052E+04</pdfrwt>
<pdfrwt beam="2">  1       -3 0.26056043E+00 0.24904052E+04</pdfrwt>
<totfact> 0.56181108E-02</totfact>
</mgrwt>
</event>
<event>
 6    1  0.1773638E-005  0.5666919E+03  0.7818608E-02  0.9977026E-01
         -2   -1    0    0    0  501 -0.00000000000E+00  0.00000000000E+00  0.76771255509E+02  0.76771255509E+02  0.00000000000E+00 0.  1.
          2   -1    0    0  501    0  0.00000000000E+00 -0.00000000000E+00 -0.10457680091E+04  0.10457680091E+04  0.00000000000E+00 0. -1.
         23    2    1    2    0    0 -0.21705738170E+03 -0.52086363555E+02 -0.19916711083E+03  0.32100038527E+03  0.11639077751E+03 0.  0.
         11    1    3    3    0    0 -0.78154652020E+02  0.23020697575E+02 -0.23506510184E+02  0.84797748615E+02  0.00000000000E+00 0. -1.
        -11    1    3    3    0    0 -0.13890272968E+03 -0.75107061130E+02 -0.17566060065E+03  0.23620263666E+03  0.00000000000E+00 0.  1.
         22    1    1    2    0    0  0.21705738170E+03  0.52086363555E+02 -0.76982964274E+03  0.80153887932E+03  0.00000000000E+00 0. -1.
<mgrwt>
<rscale>  0 0.56669188E+03</rscale>
<asrwt>0</asrwt>
<pdfrwt beam="1">  1        2 0.16088739E+00 0.56669188E+03</pdfrwt>
<pdfrwt beam="2">  1       -2 0.11810962E-01 0.56669188E+03</pdfrwt>
<totfact> 0.12412799E+03</totfact>
</mgrwt>
</event>
<event>
 6    1  0.1773638E-005  0.3176150E+04  0.7818608E-02  0.8195144E-01
         -1   -1    0    0    0  501 -0.00000000000E+00  0.00000000000E+00  0.13914634536E+04  0.13914634536E+04  0.00000000000E+00 0.  1.
          1   -1    0    0  501    0  0.00000000000E+00 -0.00000000000E+00 -0.18124676303E+04  0.18124676303E+04  0.00000000000E+00 0. -1.
         23    2    1    2    0    0 -0.52906934157E+03 -0.54545349959E+03 -0.16158568696E+04  0.17879131299E+04  0.90587243023E+02 0.  0.
         11    1    3    3    0    0 -0.30880176327E+03 -0.29646295075E+03 -0.80951103129E+03  0.91572753587E+03  0.00000000000E+00 0.  1.
        -11    1    3    3    0    0 -0.22026757830E+03 -0.24899054884E+03 -0.80634583830E+03  0.87218559402E+03  0.00000000000E+00 0. -1.
         22    1    1    2    0    0  0.52906934157E+03  0.54545349959E+03  0.11948526929E+04  0.14160179540E+04  0.00000000000E+00 0.  1.
<mgrwt>
<rscale>  0 0.31761502E+04</rscale>
<asrwt>0</asrwt>
<pdfrwt beam="1">  1        1 0.27884117E+00 0.31761502E+04</pdfrwt>
<pdfrwt beam="2">  1       -1 0.21407130E+00 0.31761502E+04</pdfrwt>
<totfact> 0.40411848E-01</totfact>
</mgrwt>
</event>
<event>
 6    1  0.1773638E-005  0.1276844E+04  0.7818608E-02  0.9048132E-01
         -3   -1    0    0    0  501 -0.00000000000E+00  0.00000000000E+00  0.87943416358E+03  0.87943416358E+03  0.00000000000E+00 0.  1.
          3   -1    0    0  501    0  0.00000000000E+00 -0.00000000000E+00 -0.46346018028E+03  0.46346018028E+03  0.00000000000E+00 0. -1.
         23    2    1    2    0    0  0.18532136891E+03  0.54978331593E+03  0.47999819509E+03  0.75919510286E+03  0.96815456703E+02 0.  0.
         11    1    3    3    0    0  0.53093312489E+02  0.21186813509E+03  0.12549469766E+03  0.25190459630E+03  0.00000000000E+00 0. -1.
        -11    1    3    3    0    0  0.13222805642E+03  0.33791518084E+03  0.35450349743E+03  0.50729050655E+03  0.00000000000E+00 0.  1.
         22    1    1    2    0    0 -0.18532136891E+03 -0.54978331593E+03 -0.64024211788E+02  0.58369924100E+03  0.00000000000E+00 0.  1.
<mgrwt>
<rscale>  0 0.12768441E+04</rscale>
<asrwt>0</asrwt>
<pdfrwt beam="1">  1        3 0.71301566E-01 0.12768441E+04</pdfrwt>
<pdfrwt beam="2">  1       -3 0.13529756E+00 0.12768441E+04</pdfrwt>
<totfact> 0.20261597E+00</totfact>
</mgrwt>
</event>
<event>
 6    1  0.1773638E-005  0.3742727E+04  0.7818608E-02  0.8058558E-01
         -1   -1    0    0    0  501 -0.00000000000E+00  0.00000000000E+00  0.82652306108E+03  0.82652306108E+03  0.00000000000E+00 0.  1.
          1   -1    0    0  501    0  0.00000000000E+00 -0.00000000000E+00 -0.42370280895E+04  0.42370280895E+04  0.00000000000E+00 0. -1.
         23    2    1    2    0    0  0.18540058710E+04  0.46416789817E+02 -0.20327437243E+04  0.27532008526E+04  0.92604524664E+02 0.  0.
         13    1    3    3    0    0  0.10425084780E+04 -0.10785554433E+02 -0.11010423189E+04  0.15163226711E+04  0.00000000000E+00 0. -1.
        -13    1    3    3    0    0  0.81149739298E+03  0.57202344250E+02 -0.93170140548E+03  0.12368781815E+04  0.00000000000E+00 0.  1.
         22    1    1    2    0    0 -0.18540058710E+04 -0.46416789817E+02 -0.13777613040E+04  0.23103502979E+04  0.00000000000E+00 0.  1.
<mgrwt>
<rscale>  0 0.37427270E+04</rscale>
<asrwt>0</asrwt>
<pdfrwt beam="1">  1        1 0.65185046E+00 0.37427270E+04</pdfrwt>
<pdfrwt beam="2">  1       -1 0.12715740E+00 0.37427270E+04</pdfrwt>
<totfact> 0.24936885E-02</totfact>
</mgrwt>
</event>
<event>
 6    1  0.1773638E-005  0.2978180E+04  0.7818608E-02  0.8249989E-01
         -2   -1    0    0    0  501 -0.00000000000E+00  0.00000000000E+00  0.75144756311E+03  0.75144756311E+03  0.00000000000E+00 0.  1.
          2   -1    0    0  501    0  0.00000000000E+00 -0.00000000000E+00 -0.29508233807E+04  0.29508233807E+04  0.00000000000E+00 0. -1.
         23    2    1    2    0    0  0.13132161371E+04  0.48617740600E+03 -0.47639879138E+03  0.14820108407E+04  0.92169575600E+02 0.  0.
         13    1    3    3    0    0  0.33159373807E+03  0.81116506437E+02 -0.12226188624E+03  0.36260483115E+03  0.00000000000E+00 0.  1.
        -13    1    3    3    0    0  0.98162239900E+03  0.40506089956E+03 -0.35413690514E+03  0.11194060095E+04  0.00000000000E+00 0. -1.
         22    1    1    2    0    0 -0.13132161371E+04 -0.48617740600E+03 -0.17229770262E+04  0.22202601032E+04  0.00000000000E+00 0. -1.
<mgrwt>
<rscale>  0 0.29781800E+04</rscale>
<asrwt>0</asrwt>
<pdfrwt beam="1">  1        2 0.45397283E+00 0.29781800E+04</pdfrwt>
<pdfrwt beam="2">  1       -2 0.11560732E+00 0.29781800E+04</pdfrwt>
<totfact> 0.93232238E-01</totfact>
</mgrwt>
</event>
<event>
 6    1  0.2248920E-005  0.3681984E+04  0.7818608E-02  0.8071966E-01
          2   -1    0    0  501    0  0.00000000000E+00  0.00000000000E+00  0.25062007211E+04  0.25062007211E+04  0.00000000000E+00 0. -1.
         -2   -1    0    0    0  501 -0.00000000000E+00 -0.00000000000E+00 -0.13523465913E+04  0.13523465913E+04  0.00000000000E+00 0.  1.
         23    2    1    2    0    0 -0.14561065158E+04 -0.47043230093E+03  0.16478174795E+04  0.22505819752E+04  0.90906799765E+02 0.  0.
         11    1    3    3    0    0 -0.59381934917E+03 -0.16706474836E+03  0.71991984211E+03  0.94805940144E+03  0.00000000000E+00 0. -1.
        -11    1    3    3    0    0 -0.86228716661E+03 -0.30336755256E+03  0.92789763735E+03  0.13025225737E+04  0.00000000000E+00 0.  1.
         22    1    1    2    0    0  0.14561065158E+04  0.47043230093E+03 -0.49396334965E+03  0.16079653373E+04  0.00000000000E+00 0.  1.
<mgrwt>
<rscale>  0 0.36819842E+04</rscale>
<asrwt>0</asrwt>
<pdfrwt beam="1">  1        2 0.38556934E+00 0.36819842E+04</pdfrwt>
<pdfrwt beam="2">  1       -2 0.20805332E+00 0.36819842E+04</pdfrwt>
<totfact> 0.32941752E-01</totfact>
</mgrwt>
</event>
<event>
 6    1  0.1773638E-005  0.3087285E+04  0.7818608E-02  0.8219236E-01
          2   -1    0    0  501    0  0.00000000000E+00  0.00000000000E+00  0.10581919831E+04  0.10581919831E+04  0.00000000000E+00 0. -1.
         -2   -1    0    0    0  501 -0.00000000000E+00 -0.00000000000E+00 -0.22517953075E+04  0.22517953075E+04  0.00000000000E+00 0.  1.
         23    2    1    2    0    0 -0.14109617918E+04  0.29370009379E+03 -0.86409046569E+01  0.14441874999E+04  0.92357710418E+02 0.  0.
         11    1    3    3    0    0 -0.11574027808E+03  0.44372047153E+02 -0.17316576823E+02  0.12515811748E+03  0.00000000000E+00 0. -1.
        -11    1    3    3    0    0 -0.12952215137E+04  0.24932804664E+03  0.86756721659E+01  0.13190293824E+04  0.00000000000E+00 0.  1.
         22    1    1    2    0    0  0.14109617918E+04 -0.29370009379E+03 -0.11849624197E+04  0.18657997907E+04  0.00000000000E+00 0.  1.
<mgrwt>
<rscale>  0 0.30872847E+04</rscale>
<asrwt>0</asrwt>
<pdfrwt beam="1">  1        2 0.16279877E+00 0.30872847E+04</pdfrwt>
<pdfrwt beam="2">  1       -2 0.34643005E+00 0.30872847E+04</pdfrwt>
<totfact> 0.32203599E-01</totfact>
</mgrwt>
</event>
<event>
 6    1  0.1773638E-005  0.1600940E+04  0.7818608E-02  0.8819971E-01
         -2   -1    0    0    0  501 -0.00000000000E+00  0.00000000000E+00  0.48748442792E+03  0.48748442792E+03  0.00000000000E+00 0.  1.
          2   -1    0    0  501    0  0.00000000000E+00 -0.00000000000E+00 -0.13144050544E+04  0.13144050544E+04  0.00000000000E+00 0. -1.
         23    2    1    2    0    0  0.36013017752E+03 -0.58663308723E+03 -0.86873881393E+03  0.11122657555E+04  0.92713862169E+02 0.  0.
         13    1    3    3    0    0  0.26141514475E+03 -0.43038442364E+03 -0.69776830886E+03  0.86049360420E+03  0.00000000000E+00 0. -1.
        -13    1    3    3    0    0  0.98715032773E+02 -0.15624866358E+03 -0.17097050508E+03  0.25177215131E+03  0.00000000000E+00 0.  1.
         22    1    1    2    0    0 -0.36013017752E+03  0.58663308723E+03  0.41818187454E+02  0.68962372682E+03  0.00000000000E+00 0.  1.
<mgrwt>
<rscale>  0 0.16009397E+04</rscale>
<asrwt>0</asrwt>
<pdfrwt beam="1">  1        2 0.20221616E+00 0.16009397E+04</pdfrwt>
<pdfrwt beam="2">  1       -2 0.74997606E-01 0.16009397E+04</pdfrwt>
<totfact> 0.24829691E+01</totfact>
</mgrwt>
</event>
<event>
 6    1  0.1773638E-005  0.1479403E+04  0.7818608E-02  0.8898266E-01
          2   -1    0    0  501    0  0.00000000000E+00  0.00000000000E+00  0.92886030945E+03  0.92886030945E+03  0.00000000000E+00 0. -1.
         -2   -1    0    0    0  501 -0.00000000000E+00 -0.00000000000E+00 -0.58906420281E+03  0.58906420281E+03  0.00000000000E+00 0.  1.
         23    2    1    2    0    0  0.48240493705E+03 -0.14459736302E+03 -0.38131687194E+03  0.63836391254E+03  0.92103242740E+02 0.  0.
         11    1    3    3    0    0  0.59259779102E+02 -0.10696228311E+01 -0.79473816668E+02  0.99141076492E+02  0.00000000000E+00 0. -1.
        -11    1    3    3    0    0  0.42314515795E+03 -0.14352774019E+03 -0.30184305528E+03  0.53922283605E+03  0.00000000000E+00 0.  1.
         22    1    1    2    0    0 -0.48240493705E+03  0.14459736302E+03  0.72111297859E+03  0.87956059972E+03  0.00000000000E+00 0. -1.
<mgrwt>
<rscale>  0 0.14794031E+04</rscale>
<asrwt>0</asrwt>
<pdfrwt beam="1">  1        2 0.14290159E+00 0.14794031E+04</pdfrwt>
<pdfrwt beam="2">  1       -2 0.90625262E-01 0.14794031E+04</pdfrwt>
<totfact> 0.28227915E+01</totfact>
</mgrwt>
</event>
<event>
 6    1  0.1773638E-005  0.1575451E+04  0.7818608E-02  0.8835773E-01
          1   -1    0    0  501    0  0.00000000000E+00  0.00000000000E+00  0.19158667961E+04  0.19158667961E+04  0.00000000000E+00 0. -1.
         -1   -1    0    0    0  501 -0.00000000000E+00 -0.00000000000E+00 -0.32388018672E+03  0.32388018672E+03  0.00000000000E+00 0.  1.
         23    2    1    2    0    0 -0.67123943722E+03 -0.38462036966E+03  0.61087573474E+03  0.99031760939E+03  0.95208157952E+02 0.  0.
         13    1    3    3    0    0 -0.28621744515E+03 -0.11812376565E+03  0.27418010037E+03  0.41357995280E+03  0.00000000000E+00 0. -1.
        -13    1    3    3    0    0 -0.38502199208E+03 -0.26649660401E+03  0.33669563437E+03  0.57673765659E+03  0.00000000000E+00 0.  1.
         22    1    1    2    0    0  0.67123943722E+03  0.38462036966E+03  0.98111087468E+03  0.12494293735E+04  0.00000000000E+00 0. -1.
<mgrwt>
<rscale>  0 0.15754508E+04</rscale>
<asrwt>0</asrwt>
<pdfrwt beam="1">  1        1 0.29474873E+00 0.15754508E+04</pdfrwt>
<pdfrwt beam="2">  1       -1 0.49827722E-01 0.15754508E+04</pdfrwt>
<totfact> 0.13207068E+01</totfact>
</mgrwt>
</event>
<event>
 6    1  0.2046059E-005  0.2946361E+04  0.7818608E-02  0.8259216E-01
          1   -1    0    0  501    0  0.00000000000E+00  0.00000000000E+00  0.15718532018E+04  0.15718532018E+04  0.00000000000E+00 0. -1.
         -1   -1    0    0    0  501 -0.00000000000E+00 -0.00000000000E+00 -0.13807015894E+04  0.13807015894E+04  0.00000000000E+00 0.  1.
         23    2    1    2    0    0 -0.11827920173E+04  0.87412744208E+03  0.14921458845E+03  0.14812103533E+04  0.92862135091E+02 0.  0.
         13    1    3    3    0    0 -0.53381213531E+03  0.45053640738E+03  0.81731853001E+02  0.70329122416E+03  0.00000000000E+00 0.  1.
        -13    1    3    3    0    0 -0.64897988200E+03  0.42359103469E+03  0.67482735446E+02  0.77791912915E+03  0.00000000000E+00 0. -1.
         22    1    1    2    0    0  0.11827920173E+04 -0.87412744208E+03  0.41937023946E+02  0.14713444380E+04  0.00000000000E+00 0.  1.
<mgrwt>
<rscale>  0 0.29463606E+04</rscale>
<asrwt>0</asrwt>
<pdfrwt beam="1">  1        1 0.24182357E+00 0.29463606E+04</pdfrwt>
<pdfrwt beam="2">  1       -1 0.21241563E+00 0.29463606E+04</pdfrwt>
<totfact> 0.61758058E-01</totfact>
</mgrwt>
</event>
<event>
 6    1  0.1773638E-005  0.7411414E+03  0.7818608E-02  0.9649351E-01
         -2   -1    0    0    0  501 -0.00000000000E+00  0.00000000000E+00  0.41348781699E+03  0.41348781699E+03  0.00000000000E+00 0.  1.
          2   -1    0    0  501    0  0.00000000000E+00 -0.00000000000E+00 -0.33210809656E+03  0.33210809656E+03  0.00000000000E+00 0. -1.
         23    2    1    2    0    0 -0.27890760375E+02  0.14566721958E+03  0.37697218598E+03  0.41488192978E+03  0.89566474066E+02 0.  0.
         11    1    3    3    0    0  0.24187656913E+02  0.11443070149E+02  0.88835337641E+02  0.92777711845E+02  0.00000000000E+00 0. -1.
        -11    1    3    3    0    0 -0.52078417288E+02  0.13422414943E+03  0.28813684834E+03  0.32210421793E+03  0.00000000000E+00 0.  1.
         22    1    1    2    0    0  0.27890760375E+02 -0.14566721958E+03 -0.29559246555E+03  0.33071398377E+03  0.00000000000E+00 0. -1.
<mgrwt>
<rscale>  0 0.74114142E+03</rscale>
<asrwt>0</asrwt>
<pdfrwt beam="1">  1        2 0.51093553E-01 0.74114142E+03</pdfrwt>
<pdfrwt beam="2">  1       -2 0.63613511E-01 0.74114142E+03</pdfrwt>
<totfact> 0.22615160E+02</totfact>
</mgrwt>
</event>
<event>
 6    1  0.1773638E-005  0.3371928E+04  0.7818608E-02  0.8144831E-01
         -1   -1    0    0    0  501 -0.00000000000E+00  0.00000000000E+00  0.11144364678E+04  0.11144364678E+04  0.00000000000E+00 0.  1.
          1   -1    0    0  501    0  0.00000000000E+00 -0.00000000000E+00 -0.25505930105E+04  0.25505930105E+04  0.00000000000E+00 0. -1.
         23    2    1    2    0    0 -0.77703906897E+03  0.11993984932E+04 -0.16883388946E+04  0.22138429297E+04  0.90916632693E+02 0.  0.
         11    1    3    3    0    0 -0.14238336262E+03  0.16029868551E+03 -0.25518113773E+03  0.33329581993E+03  0.00000000000E+00 0. -1.
        -11    1    3    3    0    0 -0.63465570635E+03  0.10390998077E+04 -0.14331577569E+04  0.18805471098E+04  0.00000000000E+00 0.  1.
         22    1    1    2    0    0  0.77703906897E+03 -0.11993984932E+04  0.25218235197E+03  0.14511865486E+04  0.00000000000E+00 0.  1.
<mgrwt>
<rscale>  0 0.33719276E+04</rscale>
<asrwt>0</asrwt>
<pdfrwt beam="1">  1        1 0.39239892E+00 0.33719276E+04</pdfrwt>
<pdfrwt beam="2">  1       -1 0.17145177E+00 0.33719276E+04</pdfrwt>
<totfact> 0.24727592E-01</totfact>
</mgrwt>
</event>
<event>
 6    1  0.1773638E-005  0.2370744E+04  0.7818608E-02  0.8450538E-01
          2   -1    0    0  501    0  0.00000000000E+00  0.00000000000E+00  0.19515539401E+04  0.19515539401E+04  0.00000000000E+00 0. -1.
         -2   -1    0    0    0  501 -0.00000000000E+00 -0.00000000000E+00 -0.71999385826E+03  0.71999385826E+03  0.00000000000E+00 0.  1.
         23    2    1    2    0    0  0.55668067997E+03  0.14187168916E+03  0.17828593847E+04  0.18753368483E+04  0.90993150427E+02 0.  0.
         13    1    3    3    0    0  0.37448342130E+02  0.97351709402E+01  0.62796032702E+02  0.73759701766E+02  0.00000000000E+00 0. -1.
        -13    1    3    3    0    0  0.51923233784E+03  0.13213651822E+03  0.17200633520E+04  0.18015771465E+04  0.00000000000E+00 0.  1.
         22    1    1    2    0    0 -0.55668067997E+03 -0.14187168916E+03 -0.55129930285E+03  0.79621095004E+03  0.00000000000E+00 0.  1.
<mgrwt>
<rscale>  0 0.23707441E+04</rscale>
<asrwt>0</asrwt>
<pdfrwt beam="1">  1        2 0.30023907E+00 0.23707441E+04</pdfrwt>
<pdfrwt beam="2">  1       -2 0.11076829E+00 0.23707441E+04</pdfrwt>
<totfact> 0.41395478E+00</totfact>
</mgrwt>
</event>
<event>
 6    1  0.1773638E-005  0.5026455E+03  0.7818608E-02  0.1013091E+00
          2   -1    0    0  501    0  0.00000000000E+00  0.00000000000E+00  0.52530203744E+03  0.52530203744E+03  0.00000000000E+00 0. -1.
         -2   -1    0    0    0  501 -0.00000000000E+00 -0.00000000000E+00 -0.12024153938E+03  0.12024153938E+03  0.00000000000E+00 0.  1.
         23    2    1    2    0    0  0.18565210300E+03 -0.66787266126E+02  0.23866796475E+02  0.21631650358E+03  0.85416412242E+02 0.  0.
         13    1    3    3    0    0  0.73458085953E+02 -0.66304195717E+02  0.31535579602E+02  0.10385966273E+03  0.00000000000E+00 0.  1.
        -13    1    3    3    0    0  0.11219401705E+03 -0.48307040924E+00 -0.76687831270E+01  0.11245684085E+03  0.00000000000E+00 0. -1.
         22    1    1    2    0    0 -0.18565210300E+03  0.66787266126E+02  0.38119370159E+03  0.42922707324E+03  0.00000000000E+00 0. -1.
<mgrwt>
<rscale>  0 0.50264550E+03</rscale>
<asrwt>0</asrwt>
<pdfrwt beam="1">  1        2 0.80815697E-01 0.50264550E+03</pdfrwt>
<pdfrwt beam="2">  1       -2 0.18498699E-01 0.50264550E+03</pdfrwt>
<totfact> 0.14209174E+03</totfact>
</mgrwt>
</event>
<event>
 6    1  0.1773638E-005  0.5839885E+03  0.7818608E-02  0.9939193E-01
         -2   -1    0    0    0  501 -0.00000000000E+00  0.00000000000E+00  0.22714244919E+03  0.22714244919E+03  0.00000000000E+00 0. -1.
          2   -1    0    0  501    0  0.00000000000E+00 -0.00000000000E+00 -0.37536201948E+03  0.37536201948E+03  0.00000000000E+00 0.  1.
         23    2    1    2    0    0 -0.23723772186E+02  0.24557801996E+03  0.71155700784E+02  0.27235769705E+03  0.90797577813E+02 0.  0.
         13    1    3    3    0    0 -0.18913762691E+02  0.58922378801E+02 -0.19381382067E+02  0.64847629977E+02  0.00000000000E+00 0. -1.
        -13    1    3    3    0    0 -0.48100094949E+01  0.18665564116E+03  0.90537082851E+02  0.20751006708E+03  0.00000000000E+00 0.  1.
         22    1    1    2    0    0  0.23723772186E+02 -0.24557801996E+03 -0.21937527107E+03  0.33014677162E+03  0.00000000000E+00 0.  1.
<mgrwt>
<rscale>  0 0.58398852E+03</rscale>
<asrwt>0</asrwt>
<pdfrwt beam="1">  1        2 0.57748002E-01 0.58398852E+03</pdfrwt>
<pdfrwt beam="2">  1       -2 0.34944993E-01 0.58398852E+03</pdfrwt>
<totfact> 0.66043847E+02</totfact>
</mgrwt>
</event>
<event>
 6    1  0.1773638E-005  0.3048562E+04  0.7818608E-02  0.8229998E-01
          1   -1    0    0  501    0  0.00000000000E+00  0.00000000000E+00  0.13116884235E+04  0.13116884235E+04  0.00000000000E+00 0. -1.
         -1   -1    0    0    0  501 -0.00000000000E+00 -0.00000000000E+00 -0.17713290965E+04  0.17713290965E+04  0.00000000000E+00 0.  1.
         23    2    1    2    0    0 -0.46813832629E+03 -0.11256702768E+04 -0.11530522545E+04  0.16804817144E+04  0.90566143114E+02 0.  0.
         13    1    3    3    0    0 -0.25447852833E+03 -0.68544913952E+03 -0.73746214319E+03  0.10384845964E+04  0.00000000000E+00 0. -1.
        -13    1    3    3    0    0 -0.21365979795E+03 -0.44022113725E+03 -0.41559011131E+03  0.64199711803E+03  0.00000000000E+00 0.  1.
         22    1    1    2    0    0  0.46813832629E+03  0.11256702768E+04  0.69341158149E+03  0.14025358056E+04  0.00000000000E+00 0. -1.
<mgrwt>
<rscale>  0 0.30485615E+04</rscale>
<asrwt>0</asrwt>
<pdfrwt beam="1">  1        1 0.20179822E+00 0.30485615E+04</pdfrwt>
<pdfrwt beam="2">  1       -1 0.27251217E+00 0.30485615E+04</pdfrwt>
<totfact> 0.37423979E-01</totfact>
</mgrwt>
</event>
<event>
 6    1  0.1773638E-005  0.2748544E+04  0.7818608E-02  0.8319424E-01
         -2   -1    0    0    0  501 -0.00000000000E+00  0.00000000000E+00  0.78294964819E+03  0.78294964819E+03  0.00000000000E+00 0.  1.
          2   -1    0    0  501    0  0.00000000000E+00 -0.00000000000E+00 -0.24121903682E+04  0.24121903682E+04  0.00000000000E+00 0. -1.
         23    2    1    2    0    0  0.36345070730E+03 -0.87145378081E+03 -0.19738867993E+04  0.21899987186E+04  0.91308170492E+02 0.  0.
         11    1    3    3    0    0  0.23028666002E+03 -0.49177760621E+03 -0.10434480331E+04  0.11762911874E+04  0.00000000000E+00 0. -1.
        -11    1    3    3    0    0  0.13316404728E+03 -0.37967617460E+03 -0.93043876619E+03  0.10137075311E+04  0.00000000000E+00 0.  1.
         22    1    1    2    0    0 -0.36345070730E+03  0.87145378081E+03  0.34464607928E+03  0.10051412979E+04  0.00000000000E+00 0.  1.
<mgrwt>
<rscale>  0 0.27485441E+04</rscale>
<asrwt>0</asrwt>
<pdfrwt beam="1">  1        2 0.37110621E+00 0.27485441E+04</pdfrwt>
<pdfrwt beam="2">  1       -2 0.12045379E+00 0.27485441E+04</pdfrwt>
<totfact> 0.17978587E+00</totfact>
</mgrwt>
</event>
<event>
 6    1  0.1773638E-005  0.5317229E+04  0.7818608E-02  0.7781352E-01
          2   -1    0    0  501    0  0.00000000000E+00  0.00000000000E+00  0.17828969958E+04  0.17828969958E+04  0.00000000000E+00 0. -1.
         -2   -1    0    0    0  501 -0.00000000000E+00 -0.00000000000E+00 -0.39644639047E+04  0.39644639047E+04  0.00000000000E+00 0.  1.
         23    2    1    2    0    0 -0.11804281505E+04  0.21991832132E+04 -0.10399923027E+03  0.24998842058E+04  0.93743155338E+02 0.  0.
         13    1    3    3    0    0 -0.40898523426E+03  0.85816241816E+03 -0.38457857834E+02  0.95141508534E+03  0.00000000000E+00 0.  1.
        -13    1    3    3    0    0 -0.77144291621E+03  0.13410207950E+04 -0.65541372433E+02  0.15484691205E+04  0.00000000000E+00 0. -1.
         22    1    1    2    0    0  0.11804281505E+04 -0.21991832132E+04 -0.20775676786E+04  0.32474766947E+04  0.00000000000E+00 0.  1.
<mgrwt>
<rscale>  0 0.53172289E+04</rscale>
<asrwt>0</asrwt>
<pdfrwt beam="1">  1        2 0.27429185E+00 0.53172289E+04</pdfrwt>
<pdfrwt beam="2">  1       -2 0.60991752E+00 0.53172289E+04</pdfrwt>
<totfact> 0.29523565E-03</totfact>
</mgrwt>
</event>
<event>
 6    1  0.1773638E-005  0.3525572E+03  0.7818608E-02  0.1061570E+00
          1   -1    0    0  501    0  0.00000000000E+00  0.00000000000E+00  0.80093321781E+02  0.80093321781E+02  0.00000000000E+00 0. -1.
         -1   -1    0    0    0  501 -0.00000000000E+00 -0.00000000000E+00 -0.38797430073E+03  0.38797430073E+03  0.00000000000E+00 0.  1.
         23    2    1    2    0    0 -0.57335356500E+02 -0.59106170166E+02  0.25648290711E+02  0.12452336601E+03  0.89818435796E+02 0.  0.
         13    1    3    3    0    0 -0.62446571227E+02 -0.19116926631E+00  0.17313991622E+02  0.64802662828E+02  0.00000000000E+00 0.  1.
        -13    1    3    3    0    0  0.51112147268E+01 -0.58915000900E+02  0.83342990889E+01  0.59720703180E+02  0.00000000000E+00 0. -1.
         22    1    1    2    0    0  0.57335356500E+02  0.59106170166E+02 -0.33352926966E+03  0.34354425651E+03  0.00000000000E+00 0.  1.
<mgrwt>
<rscale>  0 0.35255723E+03</rscale>
<asrwt>0</asrwt>
<pdfrwt beam="1">  1        1 0.12322049E-01 0.35255723E+03</pdfrwt>
<pdfrwt beam="2">  1       -1 0.59688354E-01 0.35255723E+03</pdfrwt>
<totfact> 0.14266084E+03</totfact>
</mgrwt>
</event>
<event>
 6    1  0.1773638E-005  0.2349154E+04  0.7818608E-02  0.8458789E-01
         -1   -1    0    0    0  501 -0.00000000000E+00  0.00000000000E+00  0.19398978627E+04  0.19398978627E+04  0.00000000000E+00 0.  1.
          1   -1    0    0  501    0  0.00000000000E+00 -0.00000000000E+00 -0.71118769780E+03  0.71118769780E+03  0.00000000000E+00 0. -1.
         23    2    1    2    0    0 -0.87892920905E+03  0.96135279085E+02  0.14857671772E+04  0.17303049927E+04  0.68503405339E+02 0.  0.
         11    1    3    3    0    0 -0.53157832159E+03  0.57125173235E+02  0.96280909393E+03  0.11012902200E+04  0.00000000000E+00 0. -1.
        -11    1    3    3    0    0 -0.34735088747E+03  0.39010105850E+02  0.52295808327E+03  0.62901477267E+03  0.00000000000E+00 0.  1.
         22    1    1    2    0    0  0.87892920905E+03 -0.96135279085E+02 -0.25705701231E+03  0.92078056778E+03  0.00000000000E+00 0. -1.
<mgrwt>
<rscale>  0 0.23491543E+04</rscale>
<asrwt>0</asrwt>
<pdfrwt beam="1">  1        1 0.10941349E+00 0.23491543E+04</pdfrwt>
<pdfrwt beam="2">  1       -1 0.29844582E+00 0.23491543E+04</pdfrwt>
<totfact> 0.80915834E-01</totfact>
</mgrwt>
</event>
<event>
 6    1  0.1773638E-005  0.1655533E+04  0.7818608E-02  0.8787140E-01
         -2   -1    0    0    0  501 -0.00000000000E+00  0.00000000000E+00  0.30287657480E+03  0.30287657480E+03  0.00000000000E+00 0. -1.
          2   -1    0    0  501    0  0.00000000000E+00 -0.00000000000E+00 -0.22622980875E+04  0.22622980875E+04  0.00000000000E+00 0.  1.
         23    2    1    2    0    0 -0.35986427300E+03  0.73632817939E+03 -0.11333966250E+04  0.14015602082E+04  0.90009026378E+02 0.  0.
         13    1    3    3    0    0 -0.27154852317E+03  0.45837136750E+03 -0.74118357650E+03  0.91279570828E+03  0.00000000000E+00 0. -1.
        -13    1    3    3    0    0 -0.88315749833E+02  0.27795681189E+03 -0.39221304853E+03  0.48876449992E+03  0.00000000000E+00 0.  1.
         22    1    1    2    0    0  0.35986427300E+03 -0.73632817939E+03 -0.82602488769E+03  0.11636144541E+04  0.00000000000E+00 0.  1.
<mgrwt>
<rscale>  0 0.16555327E+04</rscale>
<asrwt>0</asrwt>
<pdfrwt beam="1">  1        2 0.34804584E+00 0.16555327E+04</pdfrwt>
<pdfrwt beam="2">  1       -2 0.46596399E-01 0.16555327E+04</pdfrwt>
<totfact> 0.19871213E+01</totfact>
</mgrwt>
</event>
<event>
 6    1  0.1773638E-005  0.5026092E+03  0.7818608E-02  0.1013100E+00
         -2   -1    0    0    0  501 -0.00000000000E+00  0.00000000000E+00  0.22798984828E+02  0.22798984828E+02  0.00000000000E+00 0.  1.
          2   -1    0    0  501    0  0.00000000000E+00 -0.00000000000E+00 -0.27700360701E+04  0.27700360701E+04  0.00000000000E+00 0. -1.
         23    2    1    2    0    0  0.65478878955E+02 -0.10685603167E+03 -0.25763435199E+04  0.25809145373E+04  0.88702995368E+02 0.  0.
         11    1    3    3    0    0  0.14490979785E+02 -0.88051550724E+02 -0.11167320347E+04  0.11202917037E+04  0.00000000000E+00 0. -1.
        -11    1    3    3    0    0  0.50987899170E+02 -0.18804480947E+02 -0.14596114852E+04  0.14606228336E+04  0.00000000000E+00 0.  1.
         22    1    1    2    0    0 -0.65478878955E+02  0.10685603167E+03 -0.17089356539E+03  0.21192051761E+03  0.00000000000E+00 0.  1.
<mgrwt>
<rscale>  0 0.50260923E+03</rscale>
<asrwt>0</asrwt>
<pdfrwt beam="1">  1        2 0.42615904E+00 0.50260923E+03</pdfrwt>
<pdfrwt beam="2">  1       -2 0.35075391E-02 0.50260923E+03</pdfrwt>
<totfact> 0.92072107E+02</totfact>
</mgrwt>
</event>
<event>
 6    1  0.1773638E-005  0.4221377E+04  0.7818608E-02  0.7961318E-01
         -2   -1    0    0    0  501 -0.00000000000E+00  0.00000000000E+00  0.13049398137E+04  0.13049398137E+04  0.00000000000E+00 0. -1.
          2   -1    0    0  501    0  0.00000000000E+00 -0.00000000000E+00 -0.34139559038E+04  0.34139559038E+04  0.00000000000E+00 0.  1.
         23    2    1    2    0    0  0.13963635427E+04 -0.11560993017E+04  0.15141072638E+03  0.18213232625E+04  0.88862139428E+02 0.  0.
         11    1    3    3    0    0  0.11942251128E+04 -0.95298788373E+03  0.14457343609E+03  0.15346859630E+04  0.00000000000E+00 0. -1.
        -11    1    3    3    0    0  0.20213842990E+03 -0.20311141798E+03  0.68372902877E+01  0.28663729955E+03  0.00000000000E+00 0.  1.
         22    1    1    2    0    0 -0.13963635427E+04  0.11560993017E+04 -0.22604268166E+04  0.28975724550E+04  0.00000000000E+00 0.  1.
<mgrwt>
<rscale>  0 0.42213775E+04</rscale>
<asrwt>0</asrwt>
<pdfrwt beam="1">  1        2 0.52522398E+00 0.42213775E+04</pdfrwt>
<pdfrwt beam="2">  1       -2 0.20075997E+00 0.42213775E+04</pdfrwt>
<totfact> 0.94875977E-02</totfact>
</mgrwt>
</event>
<event>
 6    1  0.1773638E-005  0.2070124E+04  0.7818608E-02  0.8574520E-01
          1   -1    0    0  501    0  0.00000000000E+00  0.00000000000E+00  0.88089943923E+03  0.88089943923E+03  0.00000000000E+00 0. -1.
         -1   -1    0    0    0  501 -0.00000000000E+00 -0.00000000000E+00 -0.12162033266E+04  0.12162033266E+04  0.00000000000E+00 0.  1.
         23    2    1    2    0    0  0.64509269208E+03 -0.71682536770E+03 -0.54260105497E+03  0.11107177980E+04  0.96410231714E+02 0.  0.
         11    1    3    3    0    0  0.41999008135E+03 -0.40162980755E+03 -0.34651192574E+03  0.67658605175E+03  0.00000000000E+00 0. -1.
        -11    1    3    3    0    0  0.22510261073E+03 -0.31519556015E+03 -0.19608912923E+03  0.43413174625E+03  0.00000000000E+00 0.  1.
         22    1    1    2    0    0 -0.64509269208E+03  0.71682536770E+03  0.20729716756E+03  0.98638496787E+03  0.00000000000E+00 0. -1.
<mgrwt>
<rscale>  0 0.20701235E+04</rscale>
<asrwt>0</asrwt>
<pdfrwt beam="1">  1        1 0.13552299E+00 0.20701235E+04</pdfrwt>
<pdfrwt beam="2">  1       -1 0.18710820E+00 0.20701235E+04</pdfrwt>
<totfact> 0.32219187E+00</totfact>
</mgrwt>
</event>
<event>
 6    1  0.1773638E-005  0.1645825E+04  0.7818608E-02  0.8792880E-01
         -1   -1    0    0    0  501 -0.00000000000E+00  0.00000000000E+00  0.13531123070E+04  0.13531123070E+04  0.00000000000E+00 0.  1.
          1   -1    0    0  501    0  0.00000000000E+00 -0.00000000000E+00 -0.50046488348E+03  0.50046488348E+03  0.00000000000E+00 0. -1.
         23    2    1    2    0    0  0.33969836053E+03 -0.32555568173E+03  0.11846217676E+04  0.12777400232E+04  0.88934563553E+02 0.  0.
         11    1    3    3    0    0  0.90969593095E+02 -0.47165988449E+02  0.31883232343E+03  0.33489423375E+03  0.00000000000E+00 0.  1.
        -11    1    3    3    0    0  0.24872876744E+03 -0.27838969328E+03  0.86578944420E+03  0.94284578949E+03  0.00000000000E+00 0. -1.
         22    1    1    2    0    0 -0.33969836053E+03  0.32555568173E+03 -0.33197434409E+03  0.57583716725E+03  0.00000000000E+00 0. -1.
<mgrwt>
<rscale>  0 0.16458253E+04</rscale>
<asrwt>0</asrwt>
<pdfrwt beam="1">  1        1 0.76994598E-01 0.16458253E+04</pdfrwt>
<pdfrwt beam="2">  1       -1 0.20817112E+00 0.16458253E+04</pdfrwt>
<totfact> 0.55968807E+00</totfact>
</mgrwt>
</event>
<event>
 6    1  0.1773638E-005  0.1825373E+04  0.7818608E-02  0.8692922E-01
         -2   -1    0    0    0  501 -0.00000000000E+00  0.00000000000E+00  0.95256094362E+03  0.95256094362E+03  0.00000000000E+00 0.  1.
          2   -1    0    0  501    0  0.00000000000E+00 -0.00000000000E+00 -0.87448112931E+03  0.87448112931E+03  0.00000000000E+00 0. -1.
         23    2    1    2    0    0  0.69448094345E+03 -0.48966475529E+03  0.36607454832E+03  0.92981505584E+03  0.92033199126E+02 0.  0.
         11    1    3    3    0    0  0.25903276336E+03 -0.21108776014E+03  0.10221298204E+03  0.34943312475E+03  0.00000000000E+00 0. -1.
        -11    1    3    3    0    0  0.43544818009E+03 -0.27857699515E+03  0.26386156628E+03  0.58038193109E+03  0.00000000000E+00 0.  1.
         22    1    1    2    0    0 -0.69448094345E+03  0.48966475529E+03 -0.28799473401E+03  0.89722701710E+03  0.00000000000E+00 0. -1.
<mgrwt>
<rscale>  0 0.18253729E+04</rscale>
<asrwt>0</asrwt>
<pdfrwt beam="1">  1        2 0.13453556E+00 0.18253729E+04</pdfrwt>
<pdfrwt beam="2">  1       -2 0.14654784E+00 0.18253729E+04</pdfrwt>
<totfact> 0.91609416E+00</totfact>
</mgrwt>
</event>
<event>
 6    1  0.1773638E-005  0.5414046E+03  0.7818608E-02  0.1003503E+00
         -1   -1    0    0    0  501 -0.00000000000E+00  0.00000000000E+00  0.20783687785E+03  0.20783687785E+03  0.00000000000E+00 0.  1.
          1   -1    0    0  501    0  0.00000000000E+00 -0.00000000000E+00 -0.35258287810E+03  0.35258287810E+03  0.00000000000E+00 0. -1.
         23    2    1    2    0    0  0.13685559418E+03 -0.10865588914E+03 -0.27826484085E+03  0.34050423422E+03  0.89309887280E+02 0.  0.
         13    1    3    3    0    0  0.14275869980E+02 -0.55626296599E+02 -0.50528110908E+02  0.76492975684E+02  0.00000000000E+00 0.  1.
        -13    1    3    3    0    0  0.12257972420E+03 -0.53029592544E+02 -0.22773672994E+03  0.26401125854E+03  0.00000000000E+00 0. -1.
         22    1    1    2    0    0 -0.13685559418E+03  0.10865588914E+03  0.13351884060E+03  0.21991552173E+03  0.00000000000E+00 0.  1.
<mgrwt>
<rscale>  0 0.54140456E+03</rscale>
<asrwt>0</asrwt>
<pdfrwt beam="1">  1        1 0.54243520E-01 0.54140456E+03</pdfrwt>
<pdfrwt beam="2">  1       -1 0.31974904E-01 0.54140456E+03</pdfrwt>
<totfact> 0.65206048E+02</totfact>
</mgrwt>
</event>
<event>
 6    1  0.1773638E-005  0.2153519E+04  0.7818608E-02  0.8538027E-01
         -2   -1    0    0    0  501 -0.00000000000E+00  0.00000000000E+00  0.86045286472E+03  0.86045286472E+03  0.00000000000E+00 0.  1.
          2   -1    0    0  501    0  0.00000000000E+00 -0.00000000000E+00 -0.13474431590E+04  0.13474431590E+04  0.00000000000E+00 0. -1.
         23    2    1    2    0    0  0.44991806626E+03  0.21185192811E+03 -0.12210076265E+04  0.13212794493E+04  0.87248228585E+02 0.  0.
         11    1    3    3    0    0  0.25263988430E+03  0.11783154747E+03 -0.79555181475E+03  0.84297916622E+03  0.00000000000E+00 0.  1.
        -11    1    3    3    0    0  0.19727818196E+03  0.94020380641E+02 -0.42545581178E+03  0.47830028312E+03  0.00000000000E+00 0. -1.
         22    1    1    2    0    0 -0.44991806626E+03 -0.21185192811E+03  0.73401733229E+03  0.88661657434E+03  0.00000000000E+00 0.  1.
<mgrwt>
<rscale>  0 0.21535193E+04</rscale>
<asrwt>0</asrwt>
<pdfrwt beam="1">  1        2 0.20729895E+00 0.21535193E+04</pdfrwt>
<pdfrwt beam="2">  1       -2 0.13237736E+00 0.21535193E+04</pdfrwt>
<totfact> 0.59052631E+00</totfact>
</mgrwt>
</event>
<event>
 6    1  0.1773638E-005  0.3444004E+04  0.7818608E-02  0.8127190E-01
          2   -1    0    0  501    0  0.00000000000E+00  0.00000000000E+00  0.24692331475E+04  0.24692331475E+04  0.00000000000E+00 0. -1.
         -2   -1    0    0    0  501 -0.00000000000E+00 -0.00000000000E+00 -0.12008951338E+04  0.12008951338E+04  0.00000000000E+00 0.  1.
         23    2    1    2    0    0  0.11209822238E+04  0.40292949880E+03  0.19579104802E+04  0.22937331659E+04  0.94048182978E+02 0.  0.
         11    1    3    3    0    0  0.19112856747E+03  0.34436333264E+02  0.34317554059E+03  0.39431642372E+03  0.00000000000E+00 0. -1.
        -11    1    3    3    0    0  0.92985365636E+03  0.36849316553E+03  0.16147349396E+04  0.18994167422E+04  0.00000000000E+00 0.  1.
         22    1    1    2    0    0 -0.11209822238E+04 -0.40292949880E+03 -0.68957246643E+03  0.13763951154E+04  0.00000000000E+00 0.  1.
<mgrwt>
<rscale>  0 0.34440035E+04</rscale>
<asrwt>0</asrwt>
<pdfrwt beam="1">  1        2 0.37988202E+00 0.34440035E+04</pdfrwt>
<pdfrwt beam="2">  1       -2 0.18475310E+00 0.34440035E+04</pdfrwt>
<totfact> 0.50352536E-01</totfact>
</mgrwt>
</event>
<event>
 6    1  0.1773638E-005  0.1628672E+04  0.7818608E-02  0.8803125E-01
         -2   -1    0    0    0  501 -0.00000000000E+00  0.00000000000E+00  0.48872418999E+03  0.48872418999E+03  0.00000000000E+00 0.  1.
          2   -1    0    0  501    0  0.00000000000E+00 -0.00000000000E+00 -0.13568856083E+04  0.13568856083E+04  0.00000000000E+00 0. -1.
         23    2    1    2    0    0  0.33842529447E+03  0.11235174239E+02  0.40049390407E+03  0.53254306880E+03  0.92459958107E+02 0.  0.
         13    1    3    3    0    0  0.13014113345E+03  0.43177690933E+02  0.12371440477E+03  0.18467886062E+03  0.00000000000E+00 0. -1.
        -13    1    3    3    0    0  0.20828416101E+03 -0.31942516694E+02  0.27677949930E+03  0.34786420818E+03  0.00000000000E+00 0.  1.
         22    1    1    2    0    0 -0.33842529447E+03 -0.11235174239E+02 -0.12686553224E+04  0.13130667295E+04  0.00000000000E+00 0. -1.
<mgrwt>
<rscale>  0 0.16286716E+04</rscale>
<asrwt>0</asrwt>
<pdfrwt beam="1">  1        2 0.20875163E+00 0.16286716E+04</pdfrwt>
<pdfrwt beam="2">  1       -2 0.75188337E-01 0.16286716E+04</pdfrwt>
<totfact> 0.23278973E+01</totfact>
</mgrwt>
</event>
<event>
 6    1  0.1773638E-005  0.4802559E+04  0.7818608E-02  0.7859708E-01
         -1   -1    0    0    0  501 -0.00000000000E+00  0.00000000000E+00  0.14168461693E+04  0.14168461693E+04  0.00000000000E+00 0.  1.
          1   -1    0    0  501    0  0.00000000000E+00 -0.00000000000E+00 -0.40697031845E+04  0.40697031845E+04  0.00000000000E+00 0. -1.
         23    2    1    2    0    0 -0.14842182973E+03  0.22214213192E+04 -0.30143174457E+03  0.22483488473E+04  0.86427573611E+02 0.  0.
         13    1    3    3    0    0 -0.14399975534E+03  0.16359298948E+04 -0.23809104605E+03  0.16594245679E+04  0.00000000000E+00 0. -1.
        -13    1    3    3    0    0 -0.44220743925E+01  0.58549142437E+03 -0.63340698527E+02  0.58892427938E+03  0.00000000000E+00 0.  1.
         22    1    1    2    0    0  0.14842182973E+03 -0.22214213192E+04 -0.23514252707E+04  0.32382005065E+04  0.00000000000E+00 0. -1.
<mgrwt>
<rscale>  0 0.48025591E+04</rscale>
<asrwt>0</asrwt>
<pdfrwt beam="1">  1        1 0.62610818E+00 0.48025591E+04</pdfrwt>
<pdfrwt beam="2">  1       -1 0.21797634E+00 0.48025591E+04</pdfrwt>
<totfact> 0.69003688E-03</totfact>
</mgrwt>
</event>
<event>
 6    1  0.1773638E-005  0.3515618E+04  0.7818608E-02  0.8110099E-01
         -1   -1    0    0    0  501 -0.00000000000E+00  0.00000000000E+00  0.14580731388E+04  0.14580731388E+04  0.00000000000E+00 0.  1.
          1   -1    0    0  501    0  0.00000000000E+00 -0.00000000000E+00 -0.21191617694E+04  0.21191617694E+04  0.00000000000E+00 0. -1.
         23    2    1    2    0    0 -0.11452979516E+04  0.35853535127E+03 -0.16359491088E+04  0.20310758129E+04  0.93190531270E+02 0.  0.
         13    1    3    3    0    0 -0.29578160263E+03  0.88933667888E+02 -0.35483145813E+03  0.47042673969E+03  0.00000000000E+00 0.  1.
        -13    1    3    3    0    0 -0.84951634895E+03  0.26960168338E+03 -0.12811176507E+04  0.15606490732E+04  0.00000000000E+00 0. -1.
         22    1    1    2    0    0  0.11452979516E+04 -0.35853535127E+03  0.97486047817E+03  0.15461590953E+04  0.00000000000E+00 0.  1.
<mgrwt>
<rscale>  0 0.35156182E+04</rscale>
<asrwt>0</asrwt>
<pdfrwt beam="1">  1        1 0.32602489E+00 0.35156182E+04</pdfrwt>
<pdfrwt beam="2">  1       -1 0.22431895E+00 0.35156182E+04</pdfrwt>
<totfact> 0.20750253E-01</totfact>
</mgrwt>
</event>
<event>
 6    1  0.1773638E-005  0.1853439E+04  0.7818608E-02  0.8678386E-01
          1   -1    0    0  501    0  0.00000000000E+00  0.00000000000E+00  0.13671105927E+04  0.13671105927E+04  0.00000000000E+00 0. -1.
         -1   -1    0    0    0  501 -0.00000000000E+00 -0.00000000000E+00 -0.62819287346E+03  0.62819287346E+03  0.00000000000E+00 0.  1.
         23    2    1    2    0    0  0.55208639367E+03  0.71734358981E+02 -0.42409797941E+03  0.70590410225E+03  0.92175382270E+02 0.  0.
         13    1    3    3    0    0  0.41817611485E+03  0.91067898702E+02 -0.34005324644E+03  0.54662677909E+03  0.00000000000E+00 0.  1.
        -13    1    3    3    0    0  0.13391027882E+03 -0.19333539721E+02 -0.84044732966E+02  0.15927732316E+03  0.00000000000E+00 0. -1.
         22    1    1    2    0    0 -0.55208639367E+03 -0.71734358981E+02  0.11630156986E+04  0.12893993639E+04  0.00000000000E+00 0. -1.
<mgrwt>
<rscale>  0 0.18534391E+04</rscale>
<asrwt>0</asrwt>
<pdfrwt beam="1">  1        1 0.21032471E+00 0.18534391E+04</pdfrwt>
<pdfrwt beam="2">  1       -1 0.96645058E-01 0.18534391E+04</pdfrwt>
<totfact> 0.78416179E+00</totfact>
</mgrwt>
</event>
<event>
 6    1  0.1773638E-005  0.8926951E+03  0.7818608E-02  0.9434759E-01
         -1   -1    0    0    0  501 -0.00000000000E+00  0.00000000000E+00  0.10961686763E+04  0.10961686763E+04  0.00000000000E+00 0.  1.
          1   -1    0    0  501    0  0.00000000000E+00 -0.00000000000E+00 -0.18174770221E+03  0.18174770221E+03  0.00000000000E+00 0. -1.
         23    2    1    2    0    0  0.30817976308E+03 -0.23394138290E+03  0.15253920101E+03  0.42341817890E+03  0.79444379094E+02 0.  0.
         13    1    3    3    0    0  0.90191128765E+02 -0.74223091105E+02  0.83125043989E+01  0.11710083130E+03  0.00000000000E+00 0.  1.
        -13    1    3    3    0    0  0.21798863432E+03 -0.15971829180E+03  0.14422669662E+03  0.30631734760E+03  0.00000000000E+00 0. -1.
         22    1    1    2    0    0 -0.30817976308E+03  0.23394138290E+03  0.76188177310E+03  0.85449819964E+03  0.00000000000E+00 0.  1.
<mgrwt>
<rscale>  0 0.89269511E+03</rscale>
<asrwt>0</asrwt>
<pdfrwt beam="1">  1        1 0.27961186E-01 0.89269511E+03</pdfrwt>
<pdfrwt beam="2">  1       -1 0.16864133E+00 0.89269511E+03</pdfrwt>
<totfact> 0.42886821E+01</totfact>
</mgrwt>
</event>
<event>
 6    1  0.1773638E-005  0.1251271E+04  0.7818608E-02  0.9069126E-01
         -1   -1    0    0    0  501 -0.00000000000E+00  0.00000000000E+00  0.14437617080E+03  0.14437617080E+03  0.00000000000E+00 0.  1.
          1   -1    0    0  501    0  0.00000000000E+00 -0.00000000000E+00 -0.27111110269E+04  0.27111110269E+04  0.00000000000E+00 0. -1.
         23    2    1    2    0    0 -0.21923284873E+02  0.36816421036E+03 -0.24337474082E+04  0.24634270269E+04  0.96544051489E+02 0.  0.
         13    1    3    3    0    0  0.38185632145E+02  0.13501961242E+03 -0.86205957935E+03  0.87340434885E+03  0.00000000000E+00 0.  1.
        -13    1    3    3    0    0 -0.60108917018E+02  0.23314459794E+03 -0.15716878288E+04  0.15900226781E+04  0.00000000000E+00 0. -1.
         22    1    1    2    0    0  0.21923284873E+02 -0.36816421036E+03 -0.13298744791E+03  0.39206017078E+03  0.00000000000E+00 0.  1.
<mgrwt>
<rscale>  0 0.12512711E+04</rscale>
<asrwt>0</asrwt>
<pdfrwt beam="1">  1        1 0.41709398E+00 0.12512711E+04</pdfrwt>
<pdfrwt beam="2">  1       -1 0.22211720E-01 0.12512711E+04</pdfrwt>
<totfact> 0.16414035E+01</totfact>
</mgrwt>
</event>
<event>
 6    1  0.1773638E-005  0.2882854E+04  0.7818608E-02  0.8277997E-01
          2   -1    0    0  501    0  0.00000000000E+00  0.00000000000E+00  0.11726744001E+04  0.11726744001E+04  0.00000000000E+00 0. -1.
         -2   -1    0    0    0  501 -0.00000000000E+00 -0.00000000000E+00 -0.17717716713E+04  0.17717716713E+04  0.00000000000E+00 0.  1.
         23    2    1    2    0    0  0.14303531298E+04  0.73984934709E+02 -0.14818637431E+03  0.14428787291E+04  0.92498535316E+02 0.  0.
         13    1    3    3    0    0  0.44016424129E+03  0.65586312685E+02 -0.46655449605E+02  0.44746268526E+03  0.00000000000E+00 0. -1.
        -13    1    3    3    0    0  0.99018888849E+03  0.83986220243E+01 -0.10153092470E+03  0.99541604388E+03  0.00000000000E+00 0.  1.
         22    1    1    2    0    0 -0.14303531298E+04 -0.73984934709E+02 -0.45091089683E+03  0.15015673423E+04  0.00000000000E+00 0. -1.
<mgrwt>
<rscale>  0 0.28828536E+04</rscale>
<asrwt>0</asrwt>
<pdfrwt beam="1">  1        2 0.18041145E+00 0.28828536E+04</pdfrwt>
<pdfrwt beam="2">  1       -2 0.27258026E+00 0.28828536E+04</pdfrwt>
<totfact> 0.79459993E-01</totfact>
</mgrwt>
</event>
<event>
 6    1  0.1871707E-005  0.4670124E+04  0.7818608E-02  0.7881512E-01
         -2   -1    0    0    0  501 -0.00000000000E+00  0.00000000000E+00  0.17667088571E+04  0.17667088571E+04  0.00000000000E+00 0.  1.
          2   -1    0    0  501    0  0.00000000000E+00 -0.00000000000E+00 -0.30862554829E+04  0.30862554829E+04  0.00000000000E+00 0. -1.
         23    2    1    2    0    0  0.11138154264E+04 -0.15824675899E+03  0.14652692065E+04  0.18494953355E+04  0.89399707110E+02 0.  0.
         13    1    3    3    0    0  0.46162703377E+03 -0.54754463985E+02  0.53612931739E+03  0.70960003847E+03  0.00000000000E+00 0. -1.
        -13    1    3    3    0    0  0.65218839261E+03 -0.10349229501E+03  0.92913988913E+03  0.11398952970E+04  0.00000000000E+00 0.  1.
         22    1    1    2    0    0 -0.11138154264E+04  0.15824675899E+03 -0.27848158324E+04  0.30034690045E+04  0.00000000000E+00 0. -1.
<mgrwt>
<rscale>  0 0.46701242E+04</rscale>
<asrwt>0</asrwt>
<pdfrwt beam="1">  1        2 0.47480854E+00 0.46701242E+04</pdfrwt>
<pdfrwt beam="2">  1       -2 0.27180136E+00 0.46701242E+04</pdfrwt>
<totfact> 0.54194228E-02</totfact>
</mgrwt>
</event>
<event>
 6    1  0.1773638E-005  0.2997854E+04  0.7818608E-02  0.8244344E-01
          1   -1    0    0  501    0  0.00000000000E+00  0.00000000000E+00  0.26501731621E+04  0.26501731621E+04  0.00000000000E+00 0. -1.
         -1   -1    0    0    0  501 -0.00000000000E+00 -0.00000000000E+00 -0.84778674663E+03  0.84778674663E+03  0.00000000000E+00 0.  1.
         23    2    1    2    0    0  0.13675588456E+04 -0.36033760416E+03  0.32734567907E+03  0.14544811202E+04  0.91102966068E+02 0.  0.
         13    1    3    3    0    0  0.32137628627E+03 -0.83966370909E+02  0.37580000477E+02  0.33428330090E+03  0.00000000000E+00 0. -1.
        -13    1    3    3    0    0  0.10461825593E+04 -0.27637123325E+03  0.28976567859E+03  0.11201978193E+04  0.00000000000E+00 0.  1.
         22    1    1    2    0    0 -0.13675588456E+04  0.36033760416E+03  0.14750407364E+04  0.20434787885E+04  0.00000000000E+00 0. -1.
<mgrwt>
<rscale>  0 0.29978537E+04</rscale>
<asrwt>0</asrwt>
<pdfrwt beam="1">  1        1 0.40771894E+00 0.29978537E+04</pdfrwt>
<pdfrwt beam="2">  1       -1 0.13042873E+00 0.29978537E+04</pdfrwt>
<totfact> 0.45527748E-01</totfact>
</mgrwt>
</event>
<event>
 6    1  0.1773638E-005  0.1073198E+04  0.7818608E-02  0.9231716E-01
          1   -1    0    0  501    0  0.00000000000E+00  0.00000000000E+00  0.27214819420E+04  0.27214819420E+04  0.00000000000E+00 0. -1.
         -1   -1    0    0    0  501 -0.00000000000E+00 -0.00000000000E+00 -0.10580205412E+03  0.10580205412E+03  0.00000000000E+00 0.  1.
         23    2    1    2    0    0 -0.45932000096E+03 -0.26607271387E+03  0.12033522150E+04  0.13184967321E+04  0.92776758974E+02 0.  0.
         11    1    3    3    0    0 -0.31292919355E+02 -0.39918377336E+02  0.73504422640E+02  0.89306348030E+02  0.00000000000E+00 0.  1.
        -11    1    3    3    0    0 -0.42802708160E+03 -0.22615433654E+03  0.11298477923E+04  0.12291903841E+04  0.00000000000E+00 0. -1.
         22    1    1    2    0    0  0.45932000096E+03  0.26607271387E+03  0.14123276729E+04  0.15087872640E+04  0.00000000000E+00 0.  1.
<mgrwt>
<rscale>  0 0.10731978E+04</rscale>
<asrwt>0</asrwt>
<pdfrwt beam="1">  1        1 0.41868948E+00 0.10731978E+04</pdfrwt>
<pdfrwt beam="2">  1       -1 0.16277241E-01 0.10731978E+04</pdfrwt>
<totfact> 0.27596594E+01</totfact>
</mgrwt>
</event>
<event>
 6    1  0.1773638E-005  0.2742391E+04  0.7818608E-02  0.8321380E-01
          1   -1    0    0  501    0  0.00000000000E+00  0.00000000000E+00  0.96781401588E+03  0.96781401588E+03  0.00000000000E+00 0. -1.
         -1   -1    0    0    0  501 -0.00000000000E+00 -0.00000000000E+00 -0.19427053541E+04  0.19427053541E+04  0.00000000000E+00 0.  1.
         23    2    1    2    0    0  0.11667500365E+04 -0.52179716478E+03 -0.10106632079E+04  0.16319038861E+04  0.89956906483E+02 0.  0.
         13    1    3    3    0    0  0.89104536717E+03 -0.38774088302E+03 -0.81440877909E+03  0.12678984574E+04  0.00000000000E+00 0.  1.
        -13    1    3    3    0    0  0.27570466931E+03 -0.13405628175E+03 -0.19625442880E+03  0.36400542878E+03  0.00000000000E+00 0. -1.
         22    1    1    2    0    0 -0.11667500365E+04  0.52179716478E+03  0.35771869687E+02  0.12786154838E+04  0.00000000000E+00 0. -1.
<mgrwt>
<rscale>  0 0.27423913E+04</rscale>
<asrwt>0</asrwt>
<pdfrwt beam="1">  1        1 0.14889447E+00 0.27423913E+04</pdfrwt>
<pdfrwt beam="2">  1       -1 0.29887774E+00 0.27423913E+04</pdfrwt>
<totfact> 0.46866150E-01</totfact>
</mgrwt>
</event>
<event>
 6    1  0.1773638E-005  0.2999801E+04  0.7818608E-02  0.8243788E-01
         -2   -1    0    0    0  501 -0.00000000000E+00  0.00000000000E+00  0.19403436218E+04  0.19403436218E+04  0.00000000000E+00 0.  1.
          2   -1    0    0  501    0  0.00000000000E+00 -0.00000000000E+00 -0.11594348417E+04  0.11594348417E+04  0.00000000000E+00 0. -1.
         23    2    1    2    0    0  0.12402526897E+04 -0.37641530407E+03  0.11679789748E+04  0.17471001755E+04  0.90933614132E+02 0.  0.
         11    1    3    3    0    0  0.50935424463E+03 -0.14000821546E+03  0.41930539777E+03  0.67443388373E+03  0.00000000000E+00 0.  1.
        -11    1    3    3    0    0  0.73089844511E+03 -0.23640708861E+03  0.74867357698E+03  0.10726662918E+04  0.00000000000E+00 0. -1.
         22    1    1    2    0    0 -0.12402526897E+04  0.37641530407E+03 -0.38707019465E+03  0.13526782881E+04  0.00000000000E+00 0.  1.
<mgrwt>
<rscale>  0 0.29998013E+04</rscale>
<asrwt>0</asrwt>
<pdfrwt beam="1">  1        2 0.17837459E+00 0.29998013E+04</pdfrwt>
<pdfrwt beam="2">  1       -2 0.29851440E+00 0.29998013E+04</pdfrwt>
<totfact> 0.55664854E-01</totfact>
</mgrwt>
</event>
<event>
 6    1  0.1773638E-005  0.3870121E+04  0.7818608E-02  0.8031272E-01
         -2   -1    0    0    0  501 -0.00000000000E+00  0.00000000000E+00  0.14538545990E+04  0.14538545990E+04  0.00000000000E+00 0.  1.
          2   -1    0    0  501    0  0.00000000000E+00 -0.00000000000E+00 -0.25755395110E+04  0.25755395110E+04  0.00000000000E+00 0. -1.
         23    2    1    2    0    0 -0.80222640174E+03  0.60337303548E+03  0.11599965897E+04  0.15366653453E+04  0.90122559245E+02 0.  0.
         11    1    3    3    0    0 -0.61824525045E+03  0.41586395066E+03  0.86438302515E+03  0.11411958768E+04  0.00000000000E+00 0. -1.
        -11    1    3    3    0    0 -0.18398115129E+03  0.18750908482E+03  0.29561356455E+03  0.39546946843E+03  0.00000000000E+00 0.  1.
         22    1    1    2    0    0  0.80222640174E+03 -0.60337303548E+03 -0.22816815017E+04  0.24927287648E+04  0.00000000000E+00 0. -1.
<mgrwt>
<rscale>  0 0.38701214E+04</rscale>
<asrwt>0</asrwt>
<pdfrwt beam="1">  1        2 0.39623685E+00 0.38701214E+04</pdfrwt>
<pdfrwt beam="2">  1       -2 0.22366994E+00 0.38701214E+04</pdfrwt>
<totfact> 0.23493414E-01</totfact>
</mgrwt>
</event>
<event>
 6    1  0.1773638E-005  0.4406565E+04  0.7818608E-02  0.7927202E-01
         -1   -1    0    0    0  501 -0.00000000000E+00  0.00000000000E+00  0.14023927069E+04  0.14023927069E+04  0.00000000000E+00 0.  1.
          1   -1    0    0  501    0  0.00000000000E+00 -0.00000000000E+00 -0.34615502978E+04  0.34615502978E+04  0.00000000000E+00 0. -1.
         23    2    1    2    0    0 -0.11730043435E+04 -0.91025129854E+03  0.76522125117E+03  0.16730790998E+04  0.95569319260E+02 0.  0.
         11    1    3    3    0    0 -0.53643674735E+03 -0.41498385477E+03  0.29615658635E+03  0.74005723243E+03  0.00000000000E+00 0. -1.
        -11    1    3    3    0    0 -0.63656759612E+03 -0.49526744377E+03  0.46906466482E+03  0.93302186741E+03  0.00000000000E+00 0.  1.
         22    1    1    2    0    0  0.11730043435E+04  0.91025129854E+03 -0.28243788421E+04  0.31908639049E+04  0.00000000000E+00 0. -1.
<mgrwt>
<rscale>  0 0.44065646E+04</rscale>
<asrwt>0</asrwt>
<pdfrwt beam="1">  1        1 0.53254619E+00 0.44065646E+04</pdfrwt>
<pdfrwt beam="2">  1       -1 0.21575273E+00 0.44065646E+04</pdfrwt>
<totfact> 0.23810355E-02</totfact>
</mgrwt>
</event>
<event>
 6    1  0.1773638E-005  0.4547319E+04  0.7818608E-02  0.7902405E-01
         -2   -1    0    0    0  501 -0.00000000000E+00  0.00000000000E+00  0.17586662957E+04  0.17586662957E+04  0.00000000000E+00 0.  1.
          2   -1    0    0  501    0  0.00000000000E+00 -0.00000000000E+00 -0.29394594818E+04  0.29394594818E+04  0.00000000000E+00 0. -1.
         23    2    1    2    0    0  0.20616486389E+03  0.16652731154E+04 -0.21744036147E+04  0.27480231690E+04  0.89228682586E+02 0.  0.
         11    1    3    3    0    0  0.11765581047E+03  0.61821441346E+03 -0.79143569068E+03  0.10111391612E+04  0.00000000000E+00 0. -1.
        -11    1    3    3    0    0  0.88509053417E+02  0.10470587019E+04 -0.13829679240E+04  0.17368840079E+04  0.00000000000E+00 0.  1.
         22    1    1    2    0    0 -0.20616486389E+03 -0.16652731154E+04  0.99361042857E+03  0.19501026085E+04  0.00000000000E+00 0.  1.
<mgrwt>
<rscale>  0 0.45473194E+04</rscale>
<asrwt>0</asrwt>
<pdfrwt beam="1">  1        2 0.45222454E+00 0.45473194E+04</pdfrwt>
<pdfrwt beam="2">  1       -2 0.27056404E+00 0.45473194E+04</pdfrwt>
<totfact> 0.68906924E-02</totfact>
</mgrwt>
</event>
<event>
 6    1  0.1773638E-005  0.1582153E+04  0.7818608E-02  0.8831588E-01
         -2   -1    0    0    0  501 -0.00000000000E+00  0.00000000000E+00  0.57342654242E+03  0.57342654242E+03  0.00000000000E+00 0.  1.
          2   -1    0    0  501    0  0.00000000000E+00 -0.00000000000E+00 -0.10913379291E+04  0.10913379291E+04  0.00000000000E+00 0. -1.
         23    2    1    2    0    0 -0.53515256341E+03  0.11427311281E+03  0.33788798701E+03  0.64896962095E+03  0.86871552987E+02 0.  0.
         13    1    3    3    0    0 -0.40114678175E+03  0.10346544222E+03  0.21460673152E+03  0.46656177239E+03  0.00000000000E+00 0.  1.
        -13    1    3    3    0    0 -0.13400578165E+03  0.10807670588E+02  0.12328125549E+03  0.18240784856E+03  0.00000000000E+00 0. -1.
         22    1    1    2    0    0  0.53515256341E+03 -0.11427311281E+03 -0.85579937370E+03  0.10157948506E+04  0.00000000000E+00 0. -1.
<mgrwt>
<rscale>  0 0.15821531E+04</rscale>
<asrwt>0</asrwt>
<pdfrwt beam="1">  1        2 0.16789814E+00 0.15821531E+04</pdfrwt>
<pdfrwt beam="2">  1       -2 0.88219468E-01 0.15821531E+04</pdfrwt>
<totfact> 0.23442323E+01</totfact>
</mgrwt>
</event>
<event>
 6    1  0.1773638E-005  0.1317938E+04  0.7818608E-02  0.9015460E-01
          2   -1    0    0  501    0  0.00000000000E+00  0.00000000000E+00  0.19873298999E+04  0.19873298999E+04  0.00000000000E+00 0. -1.
         -2   -1    0    0    0  501 -0.00000000000E+00 -0.00000000000E+00 -0.21850444675E+03  0.21850444675E+03  0.00000000000E+00 0.  1.
         23    2    1    2    0    0  0.70800989742E+02  0.42287912378E+03  0.58438135910E+02  0.44252373633E+03  0.92588919452E+02 0.  0.
         11    1    3    3    0    0  0.23606446225E+02  0.29624610599E+03  0.74638408568E+02  0.30641460744E+03  0.00000000000E+00 0.  1.
        -11    1    3    3    0    0  0.47194543516E+02  0.12663301779E+03 -0.16200272658E+02  0.13610912889E+03  0.00000000000E+00 0. -1.
         22    1    1    2    0    0 -0.70800989742E+02 -0.42287912378E+03  0.17103873173E+04  0.17633106103E+04  0.00000000000E+00 0. -1.
<mgrwt>
<rscale>  0 0.13179384E+04</rscale>
<asrwt>0</asrwt>
<pdfrwt beam="1">  1        2 0.30574305E+00 0.13179384E+04</pdfrwt>
<pdfrwt beam="2">  1       -2 0.33616070E-01 0.13179384E+04</pdfrwt>
<totfact> 0.55047512E+01</totfact>
</mgrwt>
</event>
<event>
 6    1  0.1773638E-005  0.4717576E+04  0.7818608E-02  0.7873615E-01
         -2   -1    0    0    0  501 -0.00000000000E+00  0.00000000000E+00  0.16928273995E+04  0.16928273995E+04  0.00000000000E+00 0.  1.
          2   -1    0    0  501    0  0.00000000000E+00 -0.00000000000E+00 -0.32867382471E+04  0.32867382471E+04  0.00000000000E+00 0. -1.
         23    2    1    2    0    0 -0.97823416847E+02 -0.10978612802E+04 -0.29974234959E+04  0.31949882274E+04  0.92376123486E+02 0.  0.
         13    1    3    3    0    0 -0.72314382454E+02 -0.10056414208E+04 -0.26764881429E+04  0.28600931482E+04  0.00000000000E+00 0.  1.
        -13    1    3    3    0    0 -0.25509034393E+02 -0.92219859349E+02 -0.32093535293E+03  0.33489507918E+03  0.00000000000E+00 0. -1.
         22    1    1    2    0    0  0.97823416847E+02  0.10978612802E+04  0.14035126483E+04  0.17845774193E+04  0.00000000000E+00 0.  1.
<mgrwt>
<rscale>  0 0.47175759E+04</rscale>
<asrwt>0</asrwt>
<pdfrwt beam="1">  1        2 0.50565204E+00 0.47175759E+04</pdfrwt>
<pdfrwt beam="2">  1       -2 0.26043498E+00 0.47175759E+04</pdfrwt>
<totfact> 0.46874117E-02</totfact>
</mgrwt>
</event>
<event>
 6    1  0.1773638E-005  0.2124629E+04  0.7818608E-02  0.8550471E-01
          2   -1    0    0  501    0  0.00000000000E+00  0.00000000000E+00  0.20455076932E+04  0.20455076932E+04  0.00000000000E+00 0. -1.
         -2   -1    0    0    0  501 -0.00000000000E+00 -0.00000000000E+00 -0.55170247672E+03  0.55170247672E+03  0.00000000000E+00 0.  1.
         23    2    1    2    0    0  0.59955682032E+03 -0.68816746448E+03  0.88248263447E+02  0.92131244387E+03  0.89364552543E+02 0.  0.
         11    1    3    3    0    0  0.32079889226E+03 -0.43510918365E+03  0.51126977035E+02  0.54299714433E+03  0.00000000000E+00 0. -1.
        -11    1    3    3    0    0  0.27875792806E+03 -0.25305828083E+03  0.37121286411E+02  0.37831529953E+03  0.00000000000E+00 0.  1.
         22    1    1    2    0    0 -0.59955682032E+03  0.68816746448E+03  0.14055569530E+04  0.16758977261E+04  0.00000000000E+00 0.  1.
<mgrwt>
<rscale>  0 0.21246286E+04</rscale>
<asrwt>0</asrwt>
<pdfrwt beam="1">  1        2 0.31469349E+00 0.21246286E+04</pdfrwt>
<pdfrwt beam="2">  1       -2 0.84877305E-01 0.21246286E+04</pdfrwt>
<totfact> 0.70063138E+00</totfact>
</mgrwt>
</event>
<event>
 6    1  0.1773638E-005  0.6336450E+03  0.7818608E-02  0.9837961E-01
         -2   -1    0    0    0  501 -0.00000000000E+00  0.00000000000E+00  0.20853933450E+03  0.20853933450E+03  0.00000000000E+00 0.  1.
          2   -1    0    0  501    0  0.00000000000E+00 -0.00000000000E+00 -0.48133131128E+03  0.48133131128E+03  0.00000000000E+00 0. -1.
         23    2    1    2    0    0  0.11931028841E+03  0.20471916848E+02 -0.45018759765E+03  0.47510740264E+03  0.91674023923E+02 0.  0.
         13    1    3    3    0    0  0.28295514476E+02  0.48103557015E+02 -0.14190621323E+03  0.15248593932E+03  0.00000000000E+00 0.  1.
        -13    1    3    3    0    0  0.91014773939E+02 -0.27631640167E+02 -0.30828138442E+03  0.32262146332E+03  0.00000000000E+00 0. -1.
         22    1    1    2    0    0 -0.11931028841E+03 -0.20471916848E+02  0.17739562087E+03  0.21476324315E+03  0.00000000000E+00 0.  1.
<mgrwt>
<rscale>  0 0.63364505E+03</rscale>
<asrwt>0</asrwt>
<pdfrwt beam="1">  1        2 0.74050971E-01 0.63364505E+03</pdfrwt>
<pdfrwt beam="2">  1       -2 0.32082975E-01 0.63364505E+03</pdfrwt>
<totfact> 0.58552192E+02</totfact>
</mgrwt>
</event>
<event>
 6    1  0.1773638E-005  0.1212940E+04  0.7818608E-02  0.9101605E-01
         -1   -1    0    0    0  501 -0.00000000000E+00  0.00000000000E+00  0.16716706555E+04  0.16716706555E+04  0.00000000000E+00 0. -1.
          1   -1    0    0  501    0  0.00000000000E+00 -0.00000000000E+00 -0.22002294663E+03  0.22002294663E+03  0.00000000000E+00 0.  1.
         23    2    1    2    0    0  0.36285820882E+03 -0.47538583586E+03  0.61047003613E+03  0.85959009484E+03  0.92540226341E+02 0.  0.
         11    1    3    3    0    0  0.10344937719E+03 -0.97836172631E+02  0.10164187390E+03  0.17494216429E+03  0.00000000000E+00 0.  1.
        -11    1    3    3    0    0  0.25940883163E+03 -0.37754966323E+03  0.50882816223E+03  0.68464793055E+03  0.00000000000E+00 0. -1.
         22    1    1    2    0    0 -0.36285820882E+03  0.47538583586E+03  0.84117767275E+03  0.10321035073E+04  0.00000000000E+00 0.  1.
<mgrwt>
<rscale>  0 0.12129401E+04</rscale>
<asrwt>0</asrwt>
<pdfrwt beam="1">  1        1 0.33849685E-01 0.12129401E+04</pdfrwt>
<pdfrwt beam="2">  1       -1 0.25718009E+00 0.12129401E+04</pdfrwt>
<totfact> 0.81525836E+00</totfact>
</mgrwt>
</event>
<event>
 6    1  0.1773638E-005  0.3111291E+04  0.7818608E-02  0.8212646E-01
          2   -1    0    0  501    0  0.00000000000E+00  0.00000000000E+00  0.24246364592E+04  0.24246364592E+04  0.00000000000E+00 0.  1.
         -2   -1    0    0    0  501 -0.00000000000E+00 -0.00000000000E+00 -0.99810132840E+03  0.99810132840E+03  0.00000000000E+00 0. -1.
         23    2    1    2    0    0 -0.86699465783E+03  0.32985932246E+03  0.20860282897E+04  0.22845734164E+04  0.85292204013E+02 0.  0.
         13    1    3    3    0    0 -0.33790493294E+03  0.10965914143E+03  0.89194767190E+03  0.96009141253E+03  0.00000000000E+00 0.  1.
        -13    1    3    3    0    0 -0.52908972489E+03  0.22020018103E+03  0.11940806178E+04  0.13244820039E+04  0.00000000000E+00 0. -1.
         22    1    1    2    0    0  0.86699465783E+03 -0.32985932246E+03 -0.65949315889E+03  0.11381643712E+04  0.00000000000E+00 0. -1.
<mgrwt>
<rscale>  0 0.31112910E+04</rscale>
<asrwt>0</asrwt>
<pdfrwt beam="1">  1        2 0.37302099E+00 0.31112910E+04</pdfrwt>
<pdfrwt beam="2">  1       -2 0.15355405E+00 0.31112910E+04</pdfrwt>
<totfact> 0.91869968E-01</totfact>
</mgrwt>
</event>
<event>
 6    1  0.2361935E-005  0.3317721E+04  0.7818608E-02  0.8158401E-01
          2   -1    0    0  501    0  0.00000000000E+00  0.00000000000E+00  0.15053926612E+04  0.15053926612E+04  0.00000000000E+00 0. -1.
         -2   -1    0    0    0  501 -0.00000000000E+00 -0.00000000000E+00 -0.18279733161E+04  0.18279733161E+04  0.00000000000E+00 0.  1.
         23    2    1    2    0    0  0.12028092933E+04  0.11346319418E+04 -0.27835963292E+03  0.16792513083E+04  0.90890219147E+02 0.  0.
         13    1    3    3    0    0  0.39891228326E+03  0.37135063291E+03 -0.13506736582E+03  0.56149398537E+03  0.00000000000E+00 0. -1.
        -13    1    3    3    0    0  0.80389701007E+03  0.76328130884E+03 -0.14329226710E+03  0.11177573230E+04  0.00000000000E+00 0.  1.
         22    1    1    2    0    0 -0.12028092933E+04 -0.11346319418E+04 -0.44221022015E+02  0.16541146690E+04  0.00000000000E+00 0. -1.
<mgrwt>
<rscale>  0 0.33177207E+04</rscale>
<asrwt>0</asrwt>
<pdfrwt beam="1">  1        2 0.23159887E+00 0.33177207E+04</pdfrwt>
<pdfrwt beam="2">  1       -2 0.28122666E+00 0.33177207E+04</pdfrwt>
<totfact> 0.43513408E-01</totfact>
</mgrwt>
</event>
<event>
 6    1  0.1773638E-005  0.6320420E+03  0.7818608E-02  0.9841072E-01
          1   -1    0    0  501    0  0.00000000000E+00  0.00000000000E+00  0.48612762243E+03  0.48612762243E+03  0.00000000000E+00 0. -1.
         -1   -1    0    0    0  501 -0.00000000000E+00 -0.00000000000E+00 -0.20543837274E+03  0.20543837274E+03  0.00000000000E+00 0.  1.
         23    2    1    2    0    0 -0.50580525620E+02  0.27927953837E+03  0.27714815836E+03  0.40772098561E+03  0.94179882671E+02 0.  0.
         11    1    3    3    0    0 -0.16701672919E+02  0.14262129317E+03  0.20283046291E+03  0.24851554444E+03  0.00000000000E+00 0. -1.
        -11    1    3    3    0    0 -0.33878852701E+02  0.13665824520E+03  0.74317695450E+02  0.15920544117E+03  0.00000000000E+00 0.  1.
         22    1    1    2    0    0  0.50580525620E+02 -0.27927953837E+03  0.35410913331E+01  0.28384500956E+03  0.00000000000E+00 0.  1.
<mgrwt>
<rscale>  0 0.63204198E+03</rscale>
<asrwt>0</asrwt>
<pdfrwt beam="1">  1        1 0.74788865E-01 0.63204198E+03</pdfrwt>
<pdfrwt beam="2">  1       -1 0.31605904E-01 0.63204198E+03</pdfrwt>
<totfact> 0.43369747E+02</totfact>
</mgrwt>
</event>
<event>
 6    1  0.1773638E-005  0.2136349E+04  0.7818608E-02  0.8545398E-01
         -3   -1    0    0    0  501 -0.00000000000E+00  0.00000000000E+00  0.12283952696E+04  0.12283952696E+04  0.00000000000E+00 0.  1.
          3   -1    0    0  501    0  0.00000000000E+00 -0.00000000000E+00 -0.92885119697E+03  0.92885119697E+03  0.00000000000E+00 0. -1.
         23    2    1    2    0    0 -0.33325643920E+03 -0.25439972496E+03 -0.83989423635E+03  0.94312178835E+03  0.90979695952E+02 0.  0.
         11    1    3    3    0    0 -0.56661928702E+02 -0.90516387630E+02 -0.23392810895E+03  0.25715005493E+03  0.00000000000E+00 0. -1.
        -11    1    3    3    0    0 -0.27659451050E+03 -0.16388333733E+03 -0.60596612740E+03  0.68597173341E+03  0.00000000000E+00 0.  1.
         22    1    1    2    0    0  0.33325643920E+03  0.25439972496E+03  0.11394383090E+04  0.12141246782E+04  0.00000000000E+00 0.  1.
<mgrwt>
<rscale>  0 0.21363487E+04</rscale>
<asrwt>0</asrwt>
<pdfrwt beam="1">  1        3 0.14290018E+00 0.21363487E+04</pdfrwt>
<pdfrwt beam="2">  1       -3 0.18898389E+00 0.21363487E+04</pdfrwt>
<totfact> 0.15155390E-01</totfact>
</mgrwt>
</event>
<event>
 6    1  0.1773638E-005  0.6195057E+03  0.7818608E-02  0.9865744E-01
         -2   -1    0    0    0  501 -0.00000000000E+00  0.00000000000E+00  0.86287254451E+02  0.86287254451E+02  0.00000000000E+00 0.  1.
          2   -1    0    0  501    0  0.00000000000E+00 -0.00000000000E+00 -0.11119468127E+04  0.11119468127E+04  0.00000000000E+00 0. -1.
         23    2    1    2    0    0  0.11414536728E+03  0.24481708527E+03 -0.78982773882E+03  0.83965183505E+03  0.90679529013E+02 0.  0.
         11    1    3    3    0    0  0.10499694327E+03  0.13326646091E+03 -0.53684312698E+03  0.56301407680E+03  0.00000000000E+00 0.  1.
        -11    1    3    3    0    0  0.91484240107E+01  0.11155062436E+03 -0.25298461184E+03  0.27663775825E+03  0.00000000000E+00 0. -1.
         22    1    1    2    0    0 -0.11414536728E+03 -0.24481708527E+03 -0.23583181938E+03  0.35858223206E+03  0.00000000000E+00 0. -1.
<mgrwt>
<rscale>  0 0.61950573E+03</rscale>
<asrwt>0</asrwt>
<pdfrwt beam="1">  1        2 0.17106875E+00 0.61950573E+03</pdfrwt>
<pdfrwt beam="2">  1       -2 0.13274962E-01 0.61950573E+03</pdfrwt>
<totfact> 0.93069616E+02</totfact>
</mgrwt>
</event>
<event>
 6    1  0.1773638E-005  0.3855811E+04  0.7818608E-02  0.8034283E-01
          2   -1    0    0  501    0  0.00000000000E+00  0.00000000000E+00  0.19961966775E+04  0.19961966775E+04  0.00000000000E+00 0. -1.
         -2   -1    0    0    0  501 -0.00000000000E+00 -0.00000000000E+00 -0.18619504344E+04  0.18619504344E+04  0.00000000000E+00 0.  1.
         23    2    1    2    0    0 -0.16762123159E+04  0.29922436642E+03 -0.83539111821E+03  0.18987034250E+04  0.89294044372E+02 0.  0.
         11    1    3    3    0    0 -0.80083228127E+03  0.16573925326E+03 -0.44407392727E+03  0.93059308813E+03  0.00000000000E+00 0.  1.
        -11    1    3    3    0    0 -0.87538003466E+03  0.13348511317E+03 -0.39131719094E+03  0.96811033691E+03  0.00000000000E+00 0. -1.
         22    1    1    2    0    0  0.16762123159E+04 -0.29922436642E+03  0.96963736137E+03  0.19594436869E+04  0.00000000000E+00 0. -1.
<mgrwt>
<rscale>  0 0.38558108E+04</rscale>
<asrwt>0</asrwt>
<pdfrwt beam="1">  1        2 0.30710718E+00 0.38558108E+04</pdfrwt>
<pdfrwt beam="2">  1       -2 0.28645391E+00 0.38558108E+04</pdfrwt>
<totfact> 0.20611208E-01</totfact>
</mgrwt>
</event>
<event>
 6    1  0.1773638E-005  0.1426429E+04  0.7818608E-02  0.8934907E-01
         -1   -1    0    0    0  501 -0.00000000000E+00  0.00000000000E+00  0.38046628022E+03  0.38046628022E+03  0.00000000000E+00 0.  1.
          1   -1    0    0  501    0  0.00000000000E+00 -0.00000000000E+00 -0.13369786093E+04  0.13369786093E+04  0.00000000000E+00 0. -1.
         23    2    1    2    0    0 -0.64914617241E+03  0.12708226099E+03 -0.79169553331E+03  0.10357519745E+04  0.91976524322E+02 0.  0.
         13    1    3    3    0    0 -0.35578044386E+03  0.40962255337E+02 -0.48283055962E+03  0.60115137852E+03  0.00000000000E+00 0. -1.
        -13    1    3    3    0    0 -0.29336572855E+03  0.86120005652E+02 -0.30886497369E+03  0.43460059599E+03  0.00000000000E+00 0.  1.
         22    1    1    2    0    0  0.64914617241E+03 -0.12708226099E+03 -0.16481679578E+03  0.68169291501E+03  0.00000000000E+00 0. -1.
<mgrwt>
<rscale>  0 0.14264295E+04</rscale>
<asrwt>0</asrwt>
<pdfrwt beam="1">  1        1 0.20568902E+00 0.14264295E+04</pdfrwt>
<pdfrwt beam="2">  1       -1 0.58533274E-01 0.14264295E+04</pdfrwt>
<totfact> 0.24498191E+01</totfact>
</mgrwt>
</event>
<event>
 6    1  0.1773638E-005  0.1772317E+04  0.7818608E-02  0.8721161E-01
          3   -1    0    0  501    0  0.00000000000E+00  0.00000000000E+00  0.25238656853E+03  0.25238656853E+03  0.00000000000E+00 0. -1.
         -3   -1    0    0    0  501 -0.00000000000E+00 -0.00000000000E+00 -0.31114044227E+04  0.31114044227E+04  0.00000000000E+00 0.  1.
         23    2    1    2    0    0  0.25224697131E+03  0.57684923860E+03 -0.26105387425E+04  0.26869413421E+04  0.91420298462E+02 0.  0.
         11    1    3    3    0    0  0.11958441350E+03  0.24046667860E+03 -0.12988252261E+04  0.13262999749E+04  0.00000000000E+00 0.  1.
        -11    1    3    3    0    0  0.13266255781E+03  0.33638256000E+03 -0.13117135164E+04  0.13606413671E+04  0.00000000000E+00 0. -1.
         22    1    1    2    0    0 -0.25224697131E+03 -0.57684923860E+03 -0.24847911161E+03  0.67684964912E+03  0.00000000000E+00 0. -1.
<mgrwt>
<rscale>  0 0.17723168E+04</rscale>
<asrwt>0</asrwt>
<pdfrwt beam="1">  1        3 0.38828702E-01 0.17723168E+04</pdfrwt>
<pdfrwt beam="2">  1       -3 0.47867762E+00 0.17723168E+04</pdfrwt>
<totfact> 0.64853106E-02</totfact>
</mgrwt>
</event>
<event>
 6    1  0.1773638E-005  0.1975005E+04  0.7818608E-02  0.8618397E-01
          1   -1    0    0  501    0  0.00000000000E+00  0.00000000000E+00  0.19908267130E+04  0.19908267130E+04  0.00000000000E+00 0. -1.
         -1   -1    0    0    0  501 -0.00000000000E+00 -0.00000000000E+00 -0.48982709214E+03  0.48982709214E+03  0.00000000000E+00 0.  1.
         23    2    1    2    0    0  0.18541864669E+03  0.52174117906E+03 -0.27159775292E+03  0.62358746761E+03  0.92206604392E+02 0.  0.
         13    1    3    3    0    0  0.98368836169E+02  0.22116564965E+03 -0.72448791726E+02  0.25266479758E+03  0.00000000000E+00 0. -1.
        -13    1    3    3    0    0  0.87049810523E+02  0.30057552942E+03 -0.19914896119E+03  0.37092267003E+03  0.00000000000E+00 0.  1.
         22    1    1    2    0    0 -0.18541864669E+03 -0.52174117906E+03  0.17725973737E+04  0.18570663375E+04  0.00000000000E+00 0. -1.
<mgrwt>
<rscale>  0 0.19750047E+04</rscale>
<asrwt>0</asrwt>
<pdfrwt beam="1">  1        1 0.30628103E+00 0.19750047E+04</pdfrwt>
<pdfrwt beam="2">  1       -1 0.75358015E-01 0.19750047E+04</pdfrwt>
<totfact> 0.49744184E+00</totfact>
</mgrwt>
</event>
<event>
 6    1  0.1773638E-005  0.1133159E+04  0.7818608E-02  0.9173462E-01
         -2   -1    0    0    0  501 -0.00000000000E+00  0.00000000000E+00  0.16673209825E+03  0.16673209825E+03  0.00000000000E+00 0.  1.
          2   -1    0    0  501    0  0.00000000000E+00 -0.00000000000E+00 -0.19253177568E+04  0.19253177568E+04  0.00000000000E+00 0. -1.
         23    2    1    2    0    0  0.74786729847E+02 -0.55364047665E+03 -0.10137883876E+04  0.11610107543E+04  0.89823406750E+02 0.  0.
         13    1    3    3    0    0  0.18436217993E+02 -0.28679825712E+02 -0.10007635918E+03  0.10572466223E+03  0.00000000000E+00 0. -1.
        -13    1    3    3    0    0  0.56350511854E+02 -0.52496065094E+03 -0.91371202845E+03  0.10552860921E+04  0.00000000000E+00 0.  1.
         22    1    1    2    0    0 -0.74786729847E+02  0.55364047665E+03 -0.74479727095E+03  0.93103910077E+03  0.00000000000E+00 0. -1.
<mgrwt>
<rscale>  0 0.11331589E+04</rscale>
<asrwt>0</asrwt>
<pdfrwt beam="1">  1        2 0.29620273E+00 0.11331589E+04</pdfrwt>
<pdfrwt beam="2">  1       -2 0.25651092E-01 0.11331589E+04</pdfrwt>
<totfact> 0.99855599E+01</totfact>
</mgrwt>
</event>
<event>
 6    1  0.1773638E-005  0.8681105E+03  0.7818608E-02  0.9466347E-01
         -1   -1    0    0    0  501 -0.00000000000E+00  0.00000000000E+00  0.10334653677E+03  0.10334653677E+03  0.00000000000E+00 0.  1.
          1   -1    0    0  501    0  0.00000000000E+00 -0.00000000000E+00 -0.18230313830E+04  0.18230313830E+04  0.00000000000E+00 0. -1.
         23    2    1    2    0    0 -0.39533008548E+03  0.10105089931E+03 -0.11660073418E+04  0.12385872978E+04  0.89600292571E+02 0.  0.
         11    1    3    3    0    0 -0.18217568731E+03  0.20654107086E+01 -0.47763330965E+03  0.51120037701E+03  0.00000000000E+00 0. -1.
        -11    1    3    3    0    0 -0.21315439817E+03  0.98985488598E+02 -0.68837403215E+03  0.72738692080E+03  0.00000000000E+00 0.  1.
         22    1    1    2    0    0  0.39533008548E+03 -0.10105089931E+03 -0.55367750445E+03  0.68779062197E+03  0.00000000000E+00 0.  1.
<mgrwt>
<rscale>  0 0.86811055E+03</rscale>
<asrwt>0</asrwt>
<pdfrwt beam="1">  1        1 0.28046636E+00 0.86811055E+03</pdfrwt>
<pdfrwt beam="2">  1       -1 0.15899468E-01 0.86811055E+03</pdfrwt>
<totfact> 0.11938196E+02</totfact>
</mgrwt>
</event>
<event>
 6    1  0.1773638E-005  0.1955681E+04  0.7818608E-02  0.8627626E-01
          4   -1    0    0  501    0  0.00000000000E+00  0.00000000000E+00  0.86821918271E+03  0.86821918271E+03  0.00000000000E+00 0. -1.
         -4   -1    0    0    0  501 -0.00000000000E+00 -0.00000000000E+00 -0.11013022935E+04  0.11013022935E+04  0.00000000000E+00 0.  1.
         23    2    1    2    0    0  0.79950830875E+03  0.22985359110E+03  0.39687839668E+03  0.92601886003E+03  0.89175435409E+02 0.  0.
         13    1    3    3    0    0  0.56329542238E+03  0.18805211445E+03  0.24708355220E+03  0.64320728571E+03  0.00000000000E+00 0. -1.
        -13    1    3    3    0    0  0.23621288637E+03  0.41801476654E+02  0.14979484448E+03  0.28281157432E+03  0.00000000000E+00 0.  1.
         22    1    1    2    0    0 -0.79950830875E+03 -0.22985359110E+03 -0.62996150744E+03  0.10435026162E+04  0.00000000000E+00 0.  1.
<mgrwt>
<rscale>  0 0.19556807E+04</rscale>
<asrwt>0</asrwt>
<pdfrwt beam="1">  1        4 0.13357218E+00 0.19556807E+04</pdfrwt>
<pdfrwt beam="2">  1       -4 0.16943112E+00 0.19556807E+04</pdfrwt>
<totfact> 0.16073132E-01</totfact>
</mgrwt>
</event>
<event>
 6    1  0.1773638E-005  0.4578889E+04  0.7818608E-02  0.7896969E-01
          2   -1    0    0  501    0  0.00000000000E+00  0.00000000000E+00  0.13946055946E+04  0.13946055946E+04  0.00000000000E+00 0. -1.
         -2   -1    0    0    0  501 -0.00000000000E+00 -0.00000000000E+00 -0.37584505029E+04  0.37584505029E+04  0.00000000000E+00 0.  1.
         23    2    1    2    0    0  0.74701972749E+03 -0.15499912270E+04  0.51447676445E+03  0.17996627521E+04  0.11656930579E+03 0.  0.
         13    1    3    3    0    0  0.32958141399E+03 -0.81610998827E+03  0.25224021048E+03  0.91557880338E+03  0.00000000000E+00 0.  1.
        -13    1    3    3    0    0  0.41743831350E+03 -0.73388123877E+03  0.26223655397E+03  0.88408394875E+03  0.00000000000E+00 0. -1.
         22    1    1    2    0    0 -0.74701972749E+03  0.15499912270E+04 -0.28783216728E+04  0.33533933454E+04  0.00000000000E+00 0.  1.
<mgrwt>
<rscale>  0 0.45788890E+04</rscale>
<asrwt>0</asrwt>
<pdfrwt beam="1">  1        2 0.21455471E+00 0.45788890E+04</pdfrwt>
<pdfrwt beam="2">  1       -2 0.57822314E+00 0.45788890E+04</pdfrwt>
<totfact> 0.69080751E-03</totfact>
</mgrwt>
</event>
<event>
 6    1  0.1773638E-005  0.2308552E+04  0.7818608E-02  0.8474557E-01
          1   -1    0    0  501    0  0.00000000000E+00  0.00000000000E+00  0.89104932248E+03  0.89104932248E+03  0.00000000000E+00 0. -1.
         -1   -1    0    0    0  501 -0.00000000000E+00 -0.00000000000E+00 -0.14952633010E+04  0.14952633010E+04  0.00000000000E+00 0.  1.
         23    2    1    2    0    0 -0.10669611171E+04  0.34703007999E+03 -0.57436857777E+03  0.12639371739E+04  0.93819052954E+02 0.  0.
         11    1    3    3    0    0 -0.29204292361E+03  0.51662416595E+02 -0.14834068115E+03  0.33160674331E+03  0.00000000000E+00 0.  1.
        -11    1    3    3    0    0 -0.77491819349E+03  0.29536766339E+03 -0.42602789662E+03  0.93233043063E+03  0.00000000000E+00 0. -1.
         22    1    1    2    0    0  0.10669611171E+04 -0.34703007999E+03 -0.29845400759E+02  0.11223754496E+04  0.00000000000E+00 0. -1.
<mgrwt>
<rscale>  0 0.23085522E+04</rscale>
<asrwt>0</asrwt>
<pdfrwt beam="1">  1        1 0.13708451E+00 0.23085522E+04</pdfrwt>
<pdfrwt beam="2">  1       -1 0.23004050E+00 0.23085522E+04</pdfrwt>
<totfact> 0.15768563E+00</totfact>
</mgrwt>
</event>
<event>
 6    1  0.1773638E-005  0.4870742E+04  0.7818608E-02  0.7848762E-01
          1   -1    0    0  501    0  0.00000000000E+00  0.00000000000E+00  0.23104588810E+04  0.23104588810E+04  0.00000000000E+00 0. -1.
         -1   -1    0    0    0  501 -0.00000000000E+00 -0.00000000000E+00 -0.25670366265E+04  0.25670366265E+04  0.00000000000E+00 0.  1.
         23    2    1    2    0    0  0.96079935990E+03  0.58265230119E+02  0.21109069262E+04  0.23218128359E+04  0.91414149629E+02 0.  0.
         13    1    3    3    0    0  0.36583013969E+03 -0.11522050873E+02  0.87095176623E+03  0.94473352215E+03  0.00000000000E+00 0. -1.
        -13    1    3    3    0    0  0.59496922022E+03  0.69787280992E+02  0.12399551600E+04  0.13770793138E+04  0.00000000000E+00 0.  1.
         22    1    1    2    0    0 -0.96079935990E+03 -0.58265230119E+02 -0.23674846717E+04  0.25556826716E+04  0.00000000000E+00 0.  1.
<mgrwt>
<rscale>  0 0.48707423E+04</rscale>
<asrwt>0</asrwt>
<pdfrwt beam="1">  1        1 0.35545521E+00 0.48707423E+04</pdfrwt>
<pdfrwt beam="2">  1       -1 0.39492871E+00 0.48707423E+04</pdfrwt>
<totfact> 0.10347759E-02</totfact>
</mgrwt>
</event>
<event>
 6    1  0.1773638E-005  0.2219050E+04  0.7818608E-02  0.8510541E-01
          1   -1    0    0  501    0  0.00000000000E+00  0.00000000000E+00  0.60336148992E+03  0.60336148992E+03  0.00000000000E+00 0. -1.
         -1   -1    0    0    0  501 -0.00000000000E+00 -0.00000000000E+00 -0.20403128225E+04  0.20403128225E+04  0.00000000000E+00 0.  1.
         23    2    1    2    0    0  0.51275940878E+03  0.22403295271E+03  0.41887417746E+03  0.70532416374E+03  0.94411991926E+02 0.  0.
         11    1    3    3    0    0  0.73949453706E+02  0.48251258231E+02  0.30128505275E+02  0.93297547955E+02  0.00000000000E+00 0.  1.
        -11    1    3    3    0    0  0.43880995507E+03  0.17578169448E+03  0.38874567219E+03  0.61202661579E+03  0.00000000000E+00 0. -1.
         22    1    1    2    0    0 -0.51275940878E+03 -0.22403295271E+03 -0.18558255101E+04  0.19383501487E+04  0.00000000000E+00 0.  1.
<mgrwt>
<rscale>  0 0.22190504E+04</rscale>
<asrwt>0</asrwt>
<pdfrwt beam="1">  1        1 0.92824844E-01 0.22190504E+04</pdfrwt>
<pdfrwt beam="2">  1       -1 0.31389428E+00 0.22190504E+04</pdfrwt>
<totfact> 0.82986922E-01</totfact>
</mgrwt>
</event>
<event>
 6    1  0.1773638E-005  0.1085938E+04  0.7818608E-02  0.9219007E-01
          2   -1    0    0  501    0  0.00000000000E+00  0.00000000000E+00  0.10943850087E+04  0.10943850087E+04  0.00000000000E+00 0. -1.
         -2   -1    0    0    0  501 -0.00000000000E+00 -0.00000000000E+00 -0.26938903342E+03  0.26938903342E+03  0.00000000000E+00 0.  1.
         23    2    1    2    0    0 -0.23103295253E+03  0.19970488996E+03 -0.14248666493E+03  0.34923920913E+03  0.91691369719E+02 0.  0.
         13    1    3    3    0    0 -0.43151451378E+02  0.93579220654E+02 -0.47825992965E+02  0.11360653105E+03  0.00000000000E+00 0. -1.
        -13    1    3    3    0    0 -0.18788150115E+03  0.10612566930E+03 -0.94660671965E+02  0.23563267808E+03  0.00000000000E+00 0.  1.
         22    1    1    2    0    0  0.23103295253E+03 -0.19970488996E+03  0.96748264020E+03  0.10145348330E+04  0.00000000000E+00 0. -1.
<mgrwt>
<rscale>  0 0.10859380E+04</rscale>
<asrwt>0</asrwt>
<pdfrwt beam="1">  1        2 0.16836692E+00 0.10859380E+04</pdfrwt>
<pdfrwt beam="2">  1       -2 0.41444467E-01 0.10859380E+04</pdfrwt>
<totfact> 0.12027873E+02</totfact>
</mgrwt>
</event>
<event>
 6    1  0.1773638E-005  0.8222424E+03  0.7818608E-02  0.9528369E-01
         -1   -1    0    0    0  501 -0.00000000000E+00  0.00000000000E+00  0.23706467346E+03  0.23706467346E+03  0.00000000000E+00 0.  1.
          1   -1    0    0  501    0  0.00000000000E+00 -0.00000000000E+00 -0.71297262739E+03  0.71297262739E+03  0.00000000000E+00 0. -1.
         23    2    1    2    0    0  0.21420925711E+03  0.33099292260E+03 -0.12858104340E+03  0.42460614131E+03  0.91188649938E+02 0.  0.
         11    1    3    3    0    0  0.13946001579E+03  0.22951074085E+03 -0.13042028327E+03  0.29855271973E+03  0.00000000000E+00 0. -1.
        -11    1    3    3    0    0  0.74749241315E+02  0.10148218175E+03  0.18392398662E+01  0.12605342158E+03  0.00000000000E+00 0.  1.
         22    1    1    2    0    0 -0.21420925711E+03 -0.33099292260E+03 -0.34732691053E+03  0.52543115954E+03  0.00000000000E+00 0. -1.
<mgrwt>
<rscale>  0 0.82224236E+03</rscale>
<asrwt>0</asrwt>
<pdfrwt beam="1">  1        1 0.10968809E+00 0.82224236E+03</pdfrwt>
<pdfrwt beam="2">  1       -1 0.36471489E-01 0.82224236E+03</pdfrwt>
<totfact> 0.19268600E+02</totfact>
</mgrwt>
</event>
<event>
 6    1  0.1773638E-005  0.8511773E+03  0.7818608E-02  0.9488758E-01
         -2   -1    0    0    0  501 -0.00000000000E+00  0.00000000000E+00  0.57365948011E+03  0.57365948011E+03  0.00000000000E+00 0.  1.
          2   -1    0    0  501    0  0.00000000000E+00 -0.00000000000E+00 -0.31573730469E+03  0.31573730469E+03  0.00000000000E+00 0. -1.
         23    2    1    2    0    0  0.18657903238E+03  0.64305741878E+02 -0.25774487538E+03  0.33725597754E+03  0.91445119258E+02 0.  0.
         11    1    3    3    0    0  0.12045885109E+03  0.42942891109E+02 -0.22852992109E+03  0.26187850530E+03  0.00000000000E+00 0. -1.
        -11    1    3    3    0    0  0.66120181290E+02  0.21362850769E+02 -0.29214954288E+02  0.75377472237E+02  0.00000000000E+00 0.  1.
         22    1    1    2    0    0 -0.18657903238E+03 -0.64305741878E+02  0.51566705080E+03  0.55214080726E+03  0.00000000000E+00 0.  1.
<mgrwt>
<rscale>  0 0.85117730E+03</rscale>
<asrwt>0</asrwt>
<pdfrwt beam="1">  1        2 0.48574970E-01 0.85117730E+03</pdfrwt>
<pdfrwt beam="2">  1       -2 0.88255304E-01 0.85117730E+03</pdfrwt>
<totfact> 0.11529970E+02</totfact>
</mgrwt>
</event>
<event>
 6    1  0.1773638E-005  0.2043361E+04  0.7818608E-02  0.8586612E-01
         -2   -1    0    0    0  501 -0.00000000000E+00  0.00000000000E+00  0.10332810141E+04  0.10332810141E+04  0.00000000000E+00 0.  1.
          2   -1    0    0  501    0  0.00000000000E+00 -0.00000000000E+00 -0.10102097364E+04  0.10102097364E+04  0.00000000000E+00 0. -1.
         23    2    1    2    0    0  0.85785082265E+02 -0.35440157530E+03  0.96326347593E+03  0.10350657773E+04  0.10259182419E+03 0.  0.
         11    1    3    3    0    0  0.42602011426E+02 -0.29458920550E+03  0.84269594350E+03  0.89371929854E+03  0.00000000000E+00 0. -1.
        -11    1    3    3    0    0  0.43183070839E+02 -0.59812369792E+02  0.12056753243E+03  0.14134647878E+03  0.00000000000E+00 0.  1.
         22    1    1    2    0    0 -0.85785082265E+02  0.35440157530E+03 -0.94019219828E+03  0.10084249732E+04  0.00000000000E+00 0. -1.
<mgrwt>
<rscale>  0 0.20433605E+04</rscale>
<asrwt>0</asrwt>
<pdfrwt beam="1">  1        2 0.15541688E+00 0.20433605E+04</pdfrwt>
<pdfrwt beam="2">  1       -2 0.15896631E+00 0.20433605E+04</pdfrwt>
<totfact> 0.58882188E+00</totfact>
</mgrwt>
</event>
<event>
 6    1  0.1835851E-005  0.3329953E+04  0.7818608E-02  0.8155315E-01
         -2   -1    0    0    0  501 -0.00000000000E+00  0.00000000000E+00  0.26751185073E+04  0.26751185073E+04  0.00000000000E+00 0.  1.
          2   -1    0    0  501    0  0.00000000000E+00 -0.00000000000E+00 -0.10362705364E+04  0.10362705364E+04  0.00000000000E+00 0. -1.
         23    2    1    2    0    0 -0.64281516901E+03  0.15649782638E+03 -0.88176784393E+03  0.11053946083E+04  0.81730032432E+02 0.  0.
         11    1    3    3    0    0 -0.42730870186E+03  0.65304942354E+02 -0.55500564605E+03  0.70348328291E+03  0.00000000000E+00 0. -1.
        -11    1    3    3    0    0 -0.21550646714E+03  0.91192884029E+02 -0.32676219788E+03  0.40191132535E+03  0.00000000000E+00 0.  1.
         22    1    1    2    0    0  0.64281516901E+03 -0.15649782638E+03  0.25206158148E+04  0.26059944354E+04  0.00000000000E+00 0.  1.
<mgrwt>
<rscale>  0 0.33299528E+04</rscale>
<asrwt>0</asrwt>
<pdfrwt beam="1">  1        2 0.15942624E+00 0.33299528E+04</pdfrwt>
<pdfrwt beam="2">  1       -2 0.41155669E+00 0.33299528E+04</pdfrwt>
<totfact> 0.12389174E-01</totfact>
</mgrwt>
</event>
<event>
 6    1  0.1773638E-005  0.9430527E+03  0.7818608E-02  0.9373308E-01
          1   -1    0    0  501    0  0.00000000000E+00  0.00000000000E+00  0.93628103172E+03  0.93628103172E+03  0.00000000000E+00 0. -1.
         -1   -1    0    0    0  501 -0.00000000000E+00 -0.00000000000E+00 -0.23746833607E+03  0.23746833607E+03  0.00000000000E+00 0.  1.
         23    2    1    2    0    0 -0.12945799776E+03  0.40282685379E+03  0.10655455679E+03  0.44587674819E+03  0.91778830273E+02 0.  0.
         11    1    3    3    0    0 -0.33112384132E+02  0.22361785861E+02  0.16336265335E+02  0.43166572888E+02  0.00000000000E+00 0. -1.
        -11    1    3    3    0    0 -0.96345613632E+02  0.38046506793E+03  0.90218291459E+02  0.40271017530E+03  0.00000000000E+00 0.  1.
         22    1    1    2    0    0  0.12945799776E+03 -0.40282685379E+03  0.59225813886E+03  0.72787261960E+03  0.00000000000E+00 0. -1.
<mgrwt>
<rscale>  0 0.94305270E+03</rscale>
<asrwt>0</asrwt>
<pdfrwt beam="1">  1        1 0.14404323E+00 0.94305270E+03</pdfrwt>
<pdfrwt beam="2">  1       -1 0.36533591E-01 0.94305270E+03</pdfrwt>
<totfact> 0.12266290E+02</totfact>
</mgrwt>
</event>
<event>
 6    1  0.1773638E-005  0.2576368E+04  0.7818608E-02  0.8376273E-01
          2   -1    0    0  501    0  0.00000000000E+00  0.00000000000E+00  0.90602601159E+03  0.90602601159E+03  0.00000000000E+00 0. -1.
         -2   -1    0    0    0  501 -0.00000000000E+00 -0.00000000000E+00 -0.18315345484E+04  0.18315345484E+04  0.00000000000E+00 0.  1.
         23    2    1    2    0    0 -0.72086043218E+02 -0.12210395750E+04 -0.88730215762E+03  0.15137984226E+04  0.90257985906E+02 0.  0.
         11    1    3    3    0    0 -0.70607615082E+02 -0.69570834366E+03 -0.54789744100E+03  0.88836205491E+03  0.00000000000E+00 0.  1.
        -11    1    3    3    0    0 -0.14784281354E+01 -0.52533123139E+03 -0.33940471661E+03  0.62543636773E+03  0.00000000000E+00 0. -1.
         22    1    1    2    0    0  0.72086043218E+02  0.12210395750E+04 -0.38206379224E+02  0.12237621374E+04  0.00000000000E+00 0. -1.
<mgrwt>
<rscale>  0 0.25763679E+04</rscale>
<asrwt>0</asrwt>
<pdfrwt beam="1">  1        2 0.13938862E+00 0.25763679E+04</pdfrwt>
<pdfrwt beam="2">  1       -2 0.28177454E+00 0.25763679E+04</pdfrwt>
<totfact> 0.10574878E+00</totfact>
</mgrwt>
</event>
<event>
 6    1  0.1773638E-005  0.1047995E+04  0.7818608E-02  0.9257417E-01
          2   -1    0    0  501    0  0.00000000000E+00  0.00000000000E+00  0.68266412142E+03  0.68266412142E+03  0.00000000000E+00 0. -1.
         -2   -1    0    0    0  501 -0.00000000000E+00 -0.00000000000E+00 -0.40220826683E+03  0.40220826683E+03  0.00000000000E+00 0.  1.
         23    2    1    2    0    0  0.18795769492E+03 -0.36618691050E+03  0.47035489094E+03  0.63157051034E+03  0.90700813669E+02 0.  0.
         11    1    3    3    0    0  0.30538829468E+02 -0.14671496746E+03  0.14254538130E+03  0.20682622540E+03  0.00000000000E+00 0.  1.
        -11    1    3    3    0    0  0.15741886545E+03 -0.21947194304E+03  0.32780950964E+03  0.42474428494E+03  0.00000000000E+00 0. -1.
         22    1    1    2    0    0 -0.18795769492E+03  0.36618691050E+03 -0.18989903635E+03  0.45330187790E+03  0.00000000000E+00 0.  1.
<mgrwt>
<rscale>  0 0.10479946E+04</rscale>
<asrwt>0</asrwt>
<pdfrwt beam="1">  1        2 0.10502525E+00 0.10479946E+04</pdfrwt>
<pdfrwt beam="2">  1       -2 0.61878195E-01 0.10479946E+04</pdfrwt>
<totfact> 0.10222033E+02</totfact>
</mgrwt>
</event>
<event>
 6    1  0.1773638E-005  0.2473481E+04  0.7818608E-02  0.8412494E-01
          2   -1    0    0  501    0  0.00000000000E+00  0.00000000000E+00  0.15295774006E+04  0.15295774006E+04  0.00000000000E+00 0. -1.
         -2   -1    0    0    0  501 -0.00000000000E+00 -0.00000000000E+00 -0.99996691795E+03  0.99996691795E+03  0.00000000000E+00 0.  1.
         23    2    1    2    0    0  0.40642556553E+03  0.71267738755E+03 -0.67892512886E+03  0.10688427326E+04  0.91622362546E+02 0.  0.
         13    1    3    3    0    0  0.33327677250E+03  0.51762839805E+03 -0.47801335533E+03  0.77942885078E+03  0.00000000000E+00 0.  1.
        -13    1    3    3    0    0  0.73148793030E+02  0.19504898950E+03 -0.20091177352E+03  0.28941388178E+03  0.00000000000E+00 0. -1.
         22    1    1    2    0    0 -0.40642556553E+03 -0.71267738755E+03  0.12085356115E+04  0.14607015860E+04  0.00000000000E+00 0. -1.
<mgrwt>
<rscale>  0 0.24734808E+04</rscale>
<asrwt>0</asrwt>
<pdfrwt beam="1">  1        2 0.23531960E+00 0.24734808E+04</pdfrwt>
<pdfrwt beam="2">  1       -2 0.15384106E+00 0.24734808E+04</pdfrwt>
<totfact> 0.30587032E+00</totfact>
</mgrwt>
</event>
<event>
 6    1  0.1773638E-005  0.1752932E+04  0.7818608E-02  0.8731738E-01
         -2   -1    0    0    0  501 -0.00000000000E+00  0.00000000000E+00  0.11466868036E+04  0.11466868036E+04  0.00000000000E+00 0.  1.
          2   -1    0    0  501    0  0.00000000000E+00 -0.00000000000E+00 -0.66992358921E+03  0.66992358921E+03  0.00000000000E+00 0. -1.
         23    2    1    2    0    0  0.34166435499E+03 -0.80391869011E+03  0.22211201246E+03  0.90673840924E+03  0.99100983443E+02 0.  0.
         13    1    3    3    0    0  0.26960485032E+03 -0.71300599860E+03  0.17926295235E+03  0.78307058139E+03  0.00000000000E+00 0.  1.
        -13    1    3    3    0    0  0.72059504670E+02 -0.90912691518E+02  0.42849060111E+02  0.12366782785E+03  0.00000000000E+00 0. -1.
         22    1    1    2    0    0 -0.34166435499E+03  0.80391869011E+03  0.25465120189E+03  0.90987198353E+03  0.00000000000E+00 0. -1.
<mgrwt>
<rscale>  0 0.17529319E+04</rscale>
<asrwt>0</asrwt>
<pdfrwt beam="1">  1        2 0.10306517E+00 0.17529319E+04</pdfrwt>
<pdfrwt beam="2">  1       -2 0.17641335E+00 0.17529319E+04</pdfrwt>
<totfact> 0.78744334E+00</totfact>
</mgrwt>
</event>
<event>
 6    1  0.1773638E-005  0.2647451E+04  0.7818608E-02  0.8352260E-01
         -1   -1    0    0    0  501 -0.00000000000E+00  0.00000000000E+00  0.49847375056E+03  0.49847375056E+03  0.00000000000E+00 0.  1.
          1   -1    0    0  501    0  0.00000000000E+00 -0.00000000000E+00 -0.35152276307E+04  0.35152276307E+04  0.00000000000E+00 0. -1.
         23    2    1    2    0    0 -0.52627062119E+03 -0.12068965407E+04 -0.16926529210E+04  0.21464029646E+04  0.91715586809E+02 0.  0.
         13    1    3    3    0    0 -0.23501238736E+03 -0.64756443376E+03 -0.90748299141E+03  0.11393401151E+04  0.00000000000E+00 0. -1.
        -13    1    3    3    0    0 -0.29125823383E+03 -0.55933210696E+03 -0.78516992959E+03  0.10070628496E+04  0.00000000000E+00 0.  1.
         22    1    1    2    0    0  0.52627062119E+03  0.12068965407E+04 -0.13241009591E+04  0.18672984166E+04  0.00000000000E+00 0.  1.
<mgrwt>
<rscale>  0 0.26474506E+04</rscale>
<asrwt>0</asrwt>
<pdfrwt beam="1">  1        1 0.54080425E+00 0.26474506E+04</pdfrwt>
<pdfrwt beam="2">  1       -1 0.76688270E-01 0.26474506E+04</pdfrwt>
<totfact> 0.36384777E-01</totfact>
</mgrwt>
</event>
<event>
 6    1  0.1773638E-005  0.3265435E+04  0.7818608E-02  0.8171746E-01
          1   -1    0    0  501    0  0.00000000000E+00  0.00000000000E+00  0.16624509909E+04  0.16624509909E+04  0.00000000000E+00 0. -1.
         -1   -1    0    0    0  501 -0.00000000000E+00 -0.00000000000E+00 -0.16035161721E+04  0.16035161721E+04  0.00000000000E+00 0.  1.
         23    2    1    2    0    0  0.82913765541E+03 -0.11366959451E+04 -0.79651887600E+03  0.16193500408E+04  0.91133481915E+02 0.  0.
         11    1    3    3    0    0  0.13609874564E+03 -0.14841899264E+03 -0.14046549224E+03  0.24552315665E+03  0.00000000000E+00 0. -1.
        -11    1    3    3    0    0  0.69303890977E+03 -0.98827695242E+03 -0.65605338377E+03  0.13738268841E+04  0.00000000000E+00 0.  1.
         22    1    1    2    0    0 -0.82913765541E+03  0.11366959451E+04  0.85545369486E+03  0.16466171222E+04  0.00000000000E+00 0. -1.
<mgrwt>
<rscale>  0 0.32654354E+04</rscale>
<asrwt>0</asrwt>
<pdfrwt beam="1">  1        1 0.25576169E+00 0.32654354E+04</pdfrwt>
<pdfrwt beam="2">  1       -1 0.24669480E+00 0.32654354E+04</pdfrwt>
<totfact> 0.30828186E-01</totfact>
</mgrwt>
</event>
<event>
 6    1  0.1773638E-005  0.2962008E+04  0.7818608E-02  0.8254664E-01
         -2   -1    0    0    0  501 -0.00000000000E+00  0.00000000000E+00  0.29293871490E+04  0.29293871490E+04  0.00000000000E+00 0.  1.
          2   -1    0    0  501    0  0.00000000000E+00 -0.00000000000E+00 -0.74874808935E+03  0.74874808935E+03  0.00000000000E+00 0. -1.
         23    2    1    2    0    0  0.19397506133E+03 -0.16870043269E+03  0.29007341178E+04  0.29135287688E+04  0.91133440999E+02 0.  0.
         11    1    3    3    0    0  0.32521871023E+02 -0.49746605769E+02  0.11121649042E+04  0.11137518444E+04  0.00000000000E+00 0.  1.
        -11    1    3    3    0    0  0.16145319031E+03 -0.11895382692E+03  0.17885692137E+04  0.17997769244E+04  0.00000000000E+00 0. -1.
         22    1    1    2    0    0 -0.19397506133E+03  0.16870043269E+03 -0.72009505818E+03  0.76460646951E+03  0.00000000000E+00 0. -1.
<mgrwt>
<rscale>  0 0.29620081E+04</rscale>
<asrwt>0</asrwt>
<pdfrwt beam="1">  1        2 0.11519202E+00 0.29620081E+04</pdfrwt>
<pdfrwt beam="2">  1       -2 0.45067494E+00 0.29620081E+04</pdfrwt>
<totfact> 0.11069598E-01</totfact>
</mgrwt>
</event>
<event>
 6    1  0.1773638E-005  0.7384121E+03  0.7818608E-02  0.9653707E-01
          2   -1    0    0  501    0  0.00000000000E+00  0.00000000000E+00  0.69738340500E+03  0.69738340500E+03  0.00000000000E+00 0. -1.
         -2   -1    0    0    0  501 -0.00000000000E+00 -0.00000000000E+00 -0.19546367601E+03  0.19546367601E+03  0.00000000000E+00 0.  1.
         23    2    1    2    0    0 -0.19894853646E+03 -0.73601293197E+02  0.61178375526E+03  0.65395845677E+03  0.91567622318E+02 0.  0.
         13    1    3    3    0    0 -0.99331619329E+02  0.89026133807E+01  0.30927433379E+03  0.32495636732E+03  0.00000000000E+00 0. -1.
        -13    1    3    3    0    0 -0.99616917134E+02 -0.82503906578E+02  0.30250942147E+03  0.32900208945E+03  0.00000000000E+00 0.  1.
         22    1    1    2    0    0  0.19894853646E+03  0.73601293197E+02 -0.10986402627E+03  0.23888862424E+03  0.00000000000E+00 0.  1.
<mgrwt>
<rscale>  0 0.73841214E+03</rscale>
<asrwt>0</asrwt>
<pdfrwt beam="1">  1        2 0.10728975E+00 0.73841214E+03</pdfrwt>
<pdfrwt beam="2">  1       -2 0.30071335E-01 0.73841214E+03</pdfrwt>
<totfact> 0.42263223E+02</totfact>
</mgrwt>
</event>
<event>
 6    1  0.1773638E-005  0.1346589E+04  0.7818608E-02  0.8993414E-01
          2   -1    0    0  501    0  0.00000000000E+00  0.00000000000E+00  0.11041519975E+04  0.11041519975E+04  0.00000000000E+00 0. -1.
         -2   -1    0    0    0  501 -0.00000000000E+00 -0.00000000000E+00 -0.41056416753E+03  0.41056416753E+03  0.00000000000E+00 0.  1.
         23    2    1    2    0    0  0.47409390708E+03 -0.46162146101E+03  0.22944873461E+03  0.70645599290E+03  0.92595583535E+02 0.  0.
         13    1    3    3    0    0  0.73944697367E+02 -0.10250841203E+03  0.75327652815E+02  0.14713955310E+03  0.00000000000E+00 0. -1.
        -13    1    3    3    0    0  0.40014920971E+03 -0.35911304898E+03  0.15412108179E+03  0.55931643980E+03  0.00000000000E+00 0.  1.
         22    1    1    2    0    0 -0.47409390708E+03  0.46162146101E+03  0.46413909532E+03  0.80826017210E+03  0.00000000000E+00 0. -1.
<mgrwt>
<rscale>  0 0.13465886E+04</rscale>
<asrwt>0</asrwt>
<pdfrwt beam="1">  1        2 0.16986954E+00 0.13465886E+04</pdfrwt>
<pdfrwt beam="2">  1       -2 0.63163718E-01 0.13465886E+04</pdfrwt>
<totfact> 0.49130187E+01</totfact>
</mgrwt>
</event>
<event>
 6    1  0.1773638E-005  0.2541916E+04  0.7818608E-02  0.8388203E-01
          2   -1    0    0  501    0  0.00000000000E+00  0.00000000000E+00  0.19452700797E+04  0.19452700797E+04  0.00000000000E+00 0. -1.
         -2   -1    0    0    0  501 -0.00000000000E+00 -0.00000000000E+00 -0.83039087174E+03  0.83039087174E+03  0.00000000000E+00 0.  1.
         23    2    1    2    0    0  0.93255040129E+03 -0.61947699054E+03  0.12116045017E+04  0.16519359962E+04  0.86631830725E+02 0.  0.
         13    1    3    3    0    0  0.36979006001E+03 -0.20386633035E+03  0.49083245919E+03  0.64747407062E+03  0.00000000000E+00 0.  1.
        -13    1    3    3    0    0  0.56276034128E+03 -0.41561066019E+03  0.72077204253E+03  0.10044619255E+04  0.00000000000E+00 0. -1.
         22    1    1    2    0    0 -0.93255040129E+03  0.61947699054E+03 -0.96725293716E+02  0.11237249553E+04  0.00000000000E+00 0.  1.
<mgrwt>
<rscale>  0 0.25419162E+04</rscale>
<asrwt>0</asrwt>
<pdfrwt beam="1">  1        2 0.29927232E+00 0.25419162E+04</pdfrwt>
<pdfrwt beam="2">  1       -2 0.12775244E+00 0.25419162E+04</pdfrwt>
<totfact> 0.28911551E+00</totfact>
</mgrwt>
</event>
<event>
 6    1  0.1773638E-005  0.2463889E+04  0.7818608E-02  0.8415964E-01
          1   -1    0    0  501    0  0.00000000000E+00  0.00000000000E+00  0.32120874653E+04  0.32120874653E+04  0.00000000000E+00 0. -1.
         -1   -1    0    0    0  501 -0.00000000000E+00 -0.00000000000E+00 -0.47249259346E+03  0.47249259346E+03  0.00000000000E+00 0.  1.
         23    2    1    2    0    0 -0.10167604139E+04  0.33608600566E+02  0.33771771386E+03  0.10761427566E+04  0.95387110723E+02 0.  0.
         13    1    3    3    0    0 -0.32636480872E+03 -0.22379687927E+02  0.77267607673E+02  0.33613259586E+03  0.00000000000E+00 0.  1.
        -13    1    3    3    0    0 -0.69039560522E+03  0.55988288493E+02  0.26045010619E+03  0.74001016072E+03  0.00000000000E+00 0. -1.
         22    1    1    2    0    0  0.10167604139E+04 -0.33608600566E+02  0.24018771580E+04  0.26084373022E+04  0.00000000000E+00 0. -1.
<mgrwt>
<rscale>  0 0.24638892E+04</rscale>
<asrwt>0</asrwt>
<pdfrwt beam="1">  1        1 0.49416729E+00 0.24638892E+04</pdfrwt>
<pdfrwt beam="2">  1       -1 0.72691170E-01 0.24638892E+04</pdfrwt>
<totfact> 0.70829138E-01</totfact>
</mgrwt>
</event>
<event>
 6    1  0.1773638E-005  0.5711817E+03  0.7818608E-02  0.9967067E-01
         -4   -1    0    0    0  501 -0.00000000000E+00  0.00000000000E+00  0.12036104216E+03  0.12036104216E+03  0.00000000000E+00 0.  1.
          4   -1    0    0  501    0  0.00000000000E+00 -0.00000000000E+00 -0.67764563361E+03  0.67764563361E+03  0.00000000000E+00 0. -1.
         23    2    1    2    0    0  0.21197541780E+02  0.11348071504E+03  0.67795124884E+02  0.16235593816E+03  0.91848044261E+02 0.  0.
         11    1    3    3    0    0 -0.17715527854E+02  0.23609552850E+02 -0.15903328944E+02  0.33528596517E+02  0.00000000000E+00 0. -1.
        -11    1    3    3    0    0  0.38913069635E+02  0.89871162189E+02  0.83698453827E+02  0.12882734164E+03  0.00000000000E+00 0.  1.
         22    1    1    2    0    0 -0.21197541780E+02 -0.11348071504E+03 -0.62507971633E+03  0.63565073761E+03  0.00000000000E+00 0. -1.
<mgrwt>
<rscale>  0 0.57118170E+03</rscale>
<asrwt>0</asrwt>
<pdfrwt beam="1">  1        4 0.10425317E+00 0.57118170E+03</pdfrwt>
<pdfrwt beam="2">  1       -4 0.18517084E-01 0.57118170E+03</pdfrwt>
<totfact> 0.39162328E+01</totfact>
</mgrwt>
</event>
<event>
 6    1  0.1773638E-005  0.3370361E+04  0.7818608E-02  0.8145219E-01
          2   -1    0    0  501    0  0.00000000000E+00  0.00000000000E+00  0.28461225212E+04  0.28461225212E+04  0.00000000000E+00 0. -1.
         -2   -1    0    0    0  501 -0.00000000000E+00 -0.00000000000E+00 -0.99779006987E+03  0.99779006987E+03  0.00000000000E+00 0.  1.
         23    2    1    2    0    0  0.77416438108E+03 -0.10337250500E+04  0.21572460183E+04  0.25160023682E+04  0.92949263048E+02 0.  0.
         13    1    3    3    0    0  0.19744589706E+03 -0.33309222089E+03  0.62829456001E+03  0.73803073380E+03  0.00000000000E+00 0.  1.
        -13    1    3    3    0    0  0.57671848402E+03 -0.70063282915E+03  0.15289514583E+04  0.17779716344E+04  0.00000000000E+00 0. -1.
         22    1    1    2    0    0 -0.77416438108E+03  0.10337250500E+04 -0.30891356697E+03  0.13279102228E+04  0.00000000000E+00 0.  1.
<mgrwt>
<rscale>  0 0.33703607E+04</rscale>
<asrwt>0</asrwt>
<pdfrwt beam="1">  1        2 0.43786500E+00 0.33703607E+04</pdfrwt>
<pdfrwt beam="2">  1       -2 0.15350617E+00 0.33703607E+04</pdfrwt>
<totfact> 0.50693459E-01</totfact>
</mgrwt>
</event>
<event>
 6    1  0.1773638E-005  0.1608942E+04  0.7818608E-02  0.8815073E-01
         -2   -1    0    0    0  501 -0.00000000000E+00  0.00000000000E+00  0.86353690932E+03  0.86353690932E+03  0.00000000000E+00 0.  1.
          2   -1    0    0  501    0  0.00000000000E+00 -0.00000000000E+00 -0.74944527189E+03  0.74944527189E+03  0.00000000000E+00 0. -1.
         23    2    1    2    0    0 -0.46567472098E+03 -0.11792066971E+03  0.70096004144E+03  0.85458073492E+03  0.90581580335E+02 0.  0.
         11    1    3    3    0    0 -0.24059952164E+03 -0.10421120899E+03  0.34755473213E+03  0.43536467211E+03  0.00000000000E+00 0. -1.
        -11    1    3    3    0    0 -0.22507519934E+03 -0.13709460713E+02  0.35340530931E+03  0.41921606281E+03  0.00000000000E+00 0.  1.
         22    1    1    2    0    0  0.46567472098E+03  0.11792066971E+03 -0.58686840401E+03  0.75840144629E+03  0.00000000000E+00 0. -1.
<mgrwt>
<rscale>  0 0.16089421E+04</rscale>
<asrwt>0</asrwt>
<pdfrwt beam="1">  1        2 0.11529927E+00 0.16089421E+04</pdfrwt>
<pdfrwt beam="2">  1       -2 0.13285183E+00 0.16089421E+04</pdfrwt>
<totfact> 0.14779568E+01</totfact>
</mgrwt>
</event>
<event>
 6    1  0.1773638E-005  0.3236775E+04  0.7818608E-02  0.8179172E-01
          2   -1    0    0  501    0  0.00000000000E+00  0.00000000000E+00  0.13433127841E+04  0.13433127841E+04  0.00000000000E+00 0. -1.
         -2   -1    0    0    0  501 -0.00000000000E+00 -0.00000000000E+00 -0.19497899522E+04  0.19497899522E+04  0.00000000000E+00 0.  1.
         23    2    1    2    0    0  0.10432954470E+04 -0.11990950470E+04 -0.60641101265E+03  0.17036706598E+04  0.92005866306E+02 0.  0.
         13    1    3    3    0    0  0.22866698677E+03 -0.21546763738E+03 -0.99194871773E+02  0.32947612384E+03  0.00000000000E+00 0. -1.
        -13    1    3    3    0    0  0.81462846022E+03 -0.98362740959E+03 -0.50721614088E+03  0.13741945360E+04  0.00000000000E+00 0.  1.
         22    1    1    2    0    0 -0.10432954470E+04  0.11990950470E+04 -0.66155356716E-01  0.15894320765E+04  0.00000000000E+00 0.  1.
<mgrwt>
<rscale>  0 0.32367748E+04</rscale>
<asrwt>0</asrwt>
<pdfrwt beam="1">  1        2 0.20666351E+00 0.32367748E+04</pdfrwt>
<pdfrwt beam="2">  1       -2 0.29996768E+00 0.32367748E+04</pdfrwt>
<totfact> 0.41640105E-01</totfact>
</mgrwt>
</event>
<event>
 6    1  0.1773638E-005  0.1980762E+04  0.7818608E-02  0.8615668E-01
          2   -1    0    0  501    0  0.00000000000E+00  0.00000000000E+00  0.13079629454E+04  0.13079629454E+04  0.00000000000E+00 0.  1.
         -2   -1    0    0    0  501 -0.00000000000E+00 -0.00000000000E+00 -0.74991018600E+03  0.74991018600E+03  0.00000000000E+00 0. -1.
         23    2    1    2    0    0 -0.98437490526E+03 -0.42616229676E+02  0.35947862336E+03  0.10527652841E+04  0.90993217926E+02 0.  0.
         11    1    3    3    0    0 -0.79265536941E+03  0.17572305527E+01  0.29196843265E+03  0.84471959145E+03  0.00000000000E+00 0. -1.
        -11    1    3    3    0    0 -0.19171953585E+03 -0.44373460229E+02  0.67510190710E+02  0.20804569269E+03  0.00000000000E+00 0.  1.
         22    1    1    2    0    0  0.98437490526E+03  0.42616229676E+02  0.19857413606E+03  0.10051078473E+04  0.00000000000E+00 0. -1.
<mgrwt>
<rscale>  0 0.19807622E+04</rscale>
<asrwt>0</asrwt>
<pdfrwt beam="1">  1        2 0.20122507E+00 0.19807622E+04</pdfrwt>
<pdfrwt beam="2">  1       -2 0.11537080E+00 0.19807622E+04</pdfrwt>
<totfact> 0.89050540E+00</totfact>
</mgrwt>
</event>
<event>
 6    1  0.1773638E-005  0.1783691E+04  0.7818608E-02  0.8715021E-01
         -2   -1    0    0    0  501 -0.00000000000E+00  0.00000000000E+00  0.10949635237E+04  0.10949635237E+04  0.00000000000E+00 0.  1.
          2   -1    0    0  501    0  0.00000000000E+00 -0.00000000000E+00 -0.72640664054E+03  0.72640664054E+03  0.00000000000E+00 0. -1.
         23    2    1    2    0    0  0.85958268367E+01  0.62615291824E+03 -0.46018525701E+03  0.78264262530E+03  0.92831260458E+02 0.  0.
         13    1    3    3    0    0  0.44680796253E+02  0.24254823973E+03 -0.15700020169E+03  0.29236122431E+03  0.00000000000E+00 0. -1.
        -13    1    3    3    0    0 -0.36084969416E+02  0.38360467850E+03 -0.30318505532E+03  0.49028140099E+03  0.00000000000E+00 0.  1.
         22    1    1    2    0    0 -0.85958268367E+01 -0.62615291824E+03  0.82874214017E+03  0.10387275389E+04  0.00000000000E+00 0.  1.
<mgrwt>
<rscale>  0 0.17836914E+04</rscale>
<asrwt>0</asrwt>
<pdfrwt beam="1">  1        2 0.11175487E+00 0.17836914E+04</pdfrwt>
<pdfrwt beam="2">  1       -2 0.16845593E+00 0.17836914E+04</pdfrwt>
<totfact> 0.80711497E+00</totfact>
</mgrwt>
</event>
<event>
 6    1  0.1773638E-005  0.8555078E+03  0.7818608E-02  0.9482974E-01
          2   -1    0    0  501    0  0.00000000000E+00  0.00000000000E+00  0.25972603255E+04  0.25972603255E+04  0.00000000000E+00 0. -1.
         -2   -1    0    0    0  501 -0.00000000000E+00 -0.00000000000E+00 -0.70448613301E+02  0.70448613301E+02  0.00000000000E+00 0.  1.
         23    2    1    2    0    0  0.37863807914E+03  0.27071795283E+02  0.69421282377E+03  0.79620730563E+03  0.88966014766E+02 0.  0.
         11    1    3    3    0    0  0.21961629697E+03  0.17268715194E+02  0.31029059884E+03  0.38053880505E+03  0.00000000000E+00 0.  1.
        -11    1    3    3    0    0  0.15902178217E+03  0.98030800884E+01  0.38392222493E+03  0.41566850059E+03  0.00000000000E+00 0. -1.
         22    1    1    2    0    0 -0.37863807914E+03 -0.27071795283E+02  0.18325988884E+04  0.18715016332E+04  0.00000000000E+00 0. -1.
<mgrwt>
<rscale>  0 0.85550778E+03</rscale>
<asrwt>0</asrwt>
<pdfrwt beam="1">  1        2 0.39957844E+00 0.85550778E+03</pdfrwt>
<pdfrwt beam="2">  1       -2 0.10838250E-01 0.85550778E+03</pdfrwt>
<totfact> 0.18938461E+02</totfact>
</mgrwt>
</event>
<event>
 6    1  0.1773638E-005  0.1519101E+04  0.7818608E-02  0.8871850E-01
          1   -1    0    0  501    0  0.00000000000E+00  0.00000000000E+00  0.65790188199E+03  0.65790188199E+03  0.00000000000E+00 0. -1.
         -1   -1    0    0    0  501 -0.00000000000E+00 -0.00000000000E+00 -0.87690397578E+03  0.87690397578E+03  0.00000000000E+00 0.  1.
         23    2    1    2    0    0 -0.27968910072E+03 -0.26760535531E+03 -0.76679642163E+03  0.86404714938E+03  0.93606115616E+02 0.  0.
         11    1    3    3    0    0 -0.19669642666E+03 -0.20378664388E+03 -0.46345386824E+03  0.54314636008E+03  0.00000000000E+00 0. -1.
        -11    1    3    3    0    0 -0.82992674064E+02 -0.63818711424E+02 -0.30334255339E+03  0.32090078930E+03  0.00000000000E+00 0.  1.
         22    1    1    2    0    0  0.27968910072E+03  0.26760535531E+03  0.54779432785E+03  0.67075870838E+03  0.00000000000E+00 0. -1.
<mgrwt>
<rscale>  0 0.15191008E+04</rscale>
<asrwt>0</asrwt>
<pdfrwt beam="1">  1        1 0.10121567E+00 0.15191008E+04</pdfrwt>
<pdfrwt beam="2">  1       -1 0.13490830E+00 0.15191008E+04</pdfrwt>
<totfact> 0.13334956E+01</totfact>
</mgrwt>
</event>
<event>
 6    1  0.1773638E-005  0.4538884E+04  0.7818608E-02  0.7903865E-01
          1   -1    0    0  501    0  0.00000000000E+00  0.00000000000E+00  0.22509498902E+04  0.22509498902E+04  0.00000000000E+00 0.  1.
         -1   -1    0    0    0  501 -0.00000000000E+00 -0.00000000000E+00 -0.22880857763E+04  0.22880857763E+04  0.00000000000E+00 0. -1.
         23    2    1    2    0    0 -0.19032189120E+04  0.17065833623E+03 -0.12404827479E+04  0.22808483039E+04  0.11002291930E+03 0.  0.
         13    1    3    3    0    0 -0.12486119365E+04  0.13806254920E+03 -0.76071040844E+03  0.14685957105E+04  0.00000000000E+00 0. -1.
        -13    1    3    3    0    0 -0.65460697552E+03  0.32595787028E+02 -0.47977233949E+03  0.81225259340E+03  0.00000000000E+00 0.  1.
         22    1    1    2    0    0  0.19032189120E+04 -0.17065833623E+03  0.12033468618E+04  0.22581873626E+04  0.00000000000E+00 0.  1.
<mgrwt>
<rscale>  0 0.45388838E+04</rscale>
<asrwt>0</asrwt>
<pdfrwt beam="1">  1        1 0.34629998E+00 0.45388838E+04</pdfrwt>
<pdfrwt beam="2">  1       -1 0.35201320E+00 0.45388838E+04</pdfrwt>
<totfact> 0.22692761E-02</totfact>
</mgrwt>
</event>
<event>
 6    1  0.2347256E-005  0.3439166E+04  0.7818608E-02  0.8128360E-01
         -2   -1    0    0    0  501 -0.00000000000E+00  0.00000000000E+00  0.10922150989E+04  0.10922150989E+04  0.00000000000E+00 0.  1.
          2   -1    0    0  501    0  0.00000000000E+00 -0.00000000000E+00 -0.27073108960E+04  0.27073108960E+04  0.00000000000E+00 0. -1.
         23    2    1    2    0    0  0.13081876122E+04 -0.51366251116E+03 -0.19006355499E+04  0.23653931717E+04  0.86402309449E+02 0.  0.
         13    1    3    3    0    0  0.71857068218E+03 -0.23701583239E+03 -0.10374447183E+04  0.12840606970E+04  0.00000000000E+00 0.  1.
        -13    1    3    3    0    0  0.58961693006E+03 -0.27664667877E+03 -0.86319083160E+03  0.10813324747E+04  0.00000000000E+00 0. -1.
         22    1    1    2    0    0 -0.13081876122E+04  0.51366251116E+03  0.28553975278E+03  0.14341328232E+04  0.00000000000E+00 0. -1.
<mgrwt>
<rscale>  0 0.34391661E+04</rscale>
<asrwt>0</asrwt>
<pdfrwt beam="1">  1        2 0.41650936E+00 0.34391661E+04</pdfrwt>
<pdfrwt beam="2">  1       -2 0.16803309E+00 0.34391661E+04</pdfrwt>
<totfact> 0.47777515E-01</totfact>
</mgrwt>
</event>
<event>
 6    1  0.1773638E-005  0.3016395E+04  0.7818608E-02  0.8239065E-01
         -2   -1    0    0    0  501 -0.00000000000E+00  0.00000000000E+00  0.72407564145E+03  0.72407564145E+03  0.00000000000E+00 0. -1.
          2   -1    0    0  501    0  0.00000000000E+00 -0.00000000000E+00 -0.31414669923E+04  0.31414669923E+04  0.00000000000E+00 0.  1.
         23    2    1    2    0    0  0.14859349298E+04  0.21952528538E+03 -0.10540499206E+04  0.18370225274E+04  0.86235518479E+02 0.  0.
         11    1    3    3    0    0  0.33987493267E+03  0.16981272626E+02 -0.22052526808E+03  0.40550552072E+03  0.00000000000E+00 0. -1.
        -11    1    3    3    0    0  0.11460599971E+04  0.20254401276E+03 -0.83352465253E+03  0.14315170067E+04  0.00000000000E+00 0.  1.
         22    1    1    2    0    0 -0.14859349298E+04 -0.21952528538E+03 -0.13633414302E+04  0.20285201063E+04  0.00000000000E+00 0.  1.
<mgrwt>
<rscale>  0 0.30163950E+04</rscale>
<asrwt>0</asrwt>
<pdfrwt beam="1">  1        2 0.48330263E+00 0.30163950E+04</pdfrwt>
<pdfrwt beam="2">  1       -2 0.11139625E+00 0.30163950E+04</pdfrwt>
<totfact> 0.77042210E-01</totfact>
</mgrwt>
</event>
<event>
 6    1  0.1773638E-005  0.4143086E+04  0.7818608E-02  0.7976288E-01
         -2   -1    0    0    0  501 -0.00000000000E+00  0.00000000000E+00  0.19056434079E+04  0.19056434079E+04  0.00000000000E+00 0.  1.
          2   -1    0    0  501    0  0.00000000000E+00 -0.00000000000E+00 -0.22518848730E+04  0.22518848730E+04  0.00000000000E+00 0. -1.
         23    2    1    2    0    0 -0.12830292443E+03  0.12633974146E+04 -0.18143044308E+04  0.22164348934E+04  0.90820710364E+02 0.  0.
         13    1    3    3    0    0 -0.11783440848E+02  0.49589582848E+03 -0.66909405985E+03  0.83290958880E+03  0.00000000000E+00 0. -1.
        -13    1    3    3    0    0 -0.11651948359E+03  0.76750158613E+03 -0.11452103710E+04  0.13835253046E+04  0.00000000000E+00 0.  1.
         22    1    1    2    0    0  0.12830292443E+03 -0.12633974146E+04  0.14680629657E+04  0.19410933875E+04  0.00000000000E+00 0.  1.
<mgrwt>
<rscale>  0 0.41430856E+04</rscale>
<asrwt>0</asrwt>
<pdfrwt beam="1">  1        2 0.34644382E+00 0.41430856E+04</pdfrwt>
<pdfrwt beam="2">  1       -2 0.29317591E+00 0.41430856E+04</pdfrwt>
<totfact> 0.13172704E-01</totfact>
</mgrwt>
</event>
<event>
 6    1  0.1773638E-005  0.3269244E+03  0.7818608E-02  0.1072506E+00
          4   -1    0    0  501    0  0.00000000000E+00  0.00000000000E+00  0.70820883846E+03  0.70820883846E+03  0.00000000000E+00 0. -1.
         -4   -1    0    0    0  501 -0.00000000000E+00 -0.00000000000E+00 -0.37728820875E+02  0.37728820875E+02  0.00000000000E+00 0.  1.
         23    2    1    2    0    0 -0.12696984391E+03  0.82332328988E+02  0.36822972557E+03  0.40792110252E+03  0.88918734950E+02 0.  0.
         11    1    3    3    0    0 -0.42314782557E+02  0.72772970927E+02  0.12960027867E+03  0.15454021597E+03  0.00000000000E+00 0.  1.
        -11    1    3    3    0    0 -0.84655061356E+02  0.95593580608E+01  0.23862944690E+03  0.25338088655E+03  0.00000000000E+00 0. -1.
         22    1    1    2    0    0  0.12696984391E+03 -0.82332328988E+02  0.30225029201E+03  0.33801655681E+03  0.00000000000E+00 0.  1.
<mgrwt>
<rscale>  0 0.32692436E+03</rscale>
<asrwt>0</asrwt>
<pdfrwt beam="1">  1        4 0.10895520E+00 0.32692436E+03</pdfrwt>
<pdfrwt beam="2">  1       -4 0.58044345E-02 0.32692436E+03</pdfrwt>
<totfact> 0.24905613E+02</totfact>
</mgrwt>
</event>
<event>
 6    1  0.1773638E-005  0.1568374E+04  0.7818608E-02  0.8840216E-01
          2   -1    0    0  501    0  0.00000000000E+00  0.00000000000E+00  0.30263614680E+03  0.30263614680E+03  0.00000000000E+00 0.  1.
         -2   -1    0    0    0  501 -0.00000000000E+00 -0.00000000000E+00 -0.20319766739E+04  0.20319766739E+04  0.00000000000E+00 0. -1.
         23    2    1    2    0    0 -0.63307549961E+03 -0.23494352453E+03 -0.27858808618E+03  0.73440480522E+03  0.75868624874E+02 0.  0.
         11    1    3    3    0    0 -0.21663889956E+03 -0.70958347930E+02 -0.56943475651E+02  0.23496820926E+03  0.00000000000E+00 0. -1.
        -11    1    3    3    0    0 -0.41643660005E+03 -0.16398517660E+03 -0.22164461052E+03  0.49943659596E+03  0.00000000000E+00 0.  1.
         22    1    1    2    0    0  0.63307549961E+03  0.23494352453E+03 -0.14507524409E+04  0.16002080155E+04  0.00000000000E+00 0. -1.
<mgrwt>
<rscale>  0 0.15683744E+04</rscale>
<asrwt>0</asrwt>
<pdfrwt beam="1">  1        2 0.46559408E-01 0.15683744E+04</pdfrwt>
<pdfrwt beam="2">  1       -2 0.31261179E+00 0.15683744E+04</pdfrwt>
<totfact> 0.27900980E+00</totfact>
</mgrwt>
</event>
<event>
 6    1  0.1773638E-005  0.3346094E+04  0.7818608E-02  0.8151265E-01
         -2   -1    0    0    0  501 -0.00000000000E+00  0.00000000000E+00  0.10762436570E+04  0.10762436570E+04  0.00000000000E+00 0.  1.
          2   -1    0    0  501    0  0.00000000000E+00 -0.00000000000E+00 -0.26007920616E+04  0.26007920616E+04  0.00000000000E+00 0. -1.
         23    2    1    2    0    0  0.83333595978E+03 -0.14270377687E+04 -0.48632487922E+03  0.17254226155E+04  0.98415947025E+02 0.  0.
         13    1    3    3    0    0  0.52641208002E+03 -0.80655657686E+03 -0.27444924170E+03  0.10014816903E+04  0.00000000000E+00 0. -1.
        -13    1    3    3    0    0  0.30692387976E+03 -0.62048119187E+03 -0.21187563753E+03  0.72394092522E+03  0.00000000000E+00 0.  1.
         22    1    1    2    0    0 -0.83333595978E+03  0.14270377687E+04 -0.10382235254E+04  0.19516131030E+04  0.00000000000E+00 0. -1.
<mgrwt>
<rscale>  0 0.33460938E+04</rscale>
<asrwt>0</asrwt>
<pdfrwt beam="1">  1        2 0.40012185E+00 0.33460938E+04</pdfrwt>
<pdfrwt beam="2">  1       -2 0.16557595E+00 0.33460938E+04</pdfrwt>
<totfact> 0.57988105E-01</totfact>
</mgrwt>
</event>
<event>
 6    1  0.1773638E-005  0.4282987E+04  0.7818608E-02  0.7949771E-01
          2   -1    0    0  501    0  0.00000000000E+00  0.00000000000E+00  0.29769370658E+04  0.29769370658E+04  0.00000000000E+00 0. -1.
         -2   -1    0    0    0  501 -0.00000000000E+00 -0.00000000000E+00 -0.15405079241E+04  0.15405079241E+04  0.00000000000E+00 0.  1.
         23    2    1    2    0    0  0.18794237027E+04 -0.43893432585E+03  0.16949200774E+04  0.25702125023E+04  0.91331492364E+02 0.  0.
         13    1    3    3    0    0  0.10461021734E+04 -0.28517287205E+03  0.92246798856E+03  0.14235871993E+04  0.00000000000E+00 0.  1.
        -13    1    3    3    0    0  0.83332152931E+03 -0.15376145380E+03  0.77245208889E+03  0.11466253030E+04  0.00000000000E+00 0. -1.
         22    1    1    2    0    0 -0.18794237027E+04  0.43893432585E+03 -0.25849093577E+03  0.19472324875E+04  0.00000000000E+00 0.  1.
<mgrwt>
<rscale>  0 0.42829873E+04</rscale>
<asrwt>0</asrwt>
<pdfrwt beam="1">  1        2 0.45799032E+00 0.42829873E+04</pdfrwt>
<pdfrwt beam="2">  1       -2 0.23700122E+00 0.42829873E+04</pdfrwt>
<totfact> 0.10725962E-01</totfact>
</mgrwt>
</event>
<event>
 6    1  0.1773638E-005  0.6594083E+04  0.7818608E-02  0.7620811E-01
         -2   -1    0    0    0  501 -0.00000000000E+00  0.00000000000E+00  0.37093457936E+04  0.37093457936E+04  0.00000000000E+00 0.  1.
          2   -1    0    0  501    0  0.00000000000E+00 -0.00000000000E+00 -0.29305659145E+04  0.29305659145E+04  0.00000000000E+00 0. -1.
         23    2    1    2    0    0 -0.14796322069E+04 -0.29410290711E+04  0.55647699701E+03  0.33401568633E+04  0.89541937640E+02 0.  0.
         13    1    3    3    0    0 -0.52585720512E+03 -0.10531159583E+04  0.15564284817E+03  0.11873515562E+04  0.00000000000E+00 0. -1.
        -13    1    3    3    0    0 -0.95377500177E+03 -0.18879131128E+04  0.40083414884E+03  0.21528053071E+04  0.00000000000E+00 0.  1.
         22    1    1    2    0    0  0.14796322069E+04  0.29410290711E+04  0.22230288210E+03  0.32997548448E+04  0.00000000000E+00 0. -1.
<mgrwt>
<rscale>  0 0.65940829E+04</rscale>
<asrwt>0</asrwt>
<pdfrwt beam="1">  1        2 0.45085629E+00 0.65940829E+04</pdfrwt>
<pdfrwt beam="2">  1       -2 0.57066858E+00 0.65940829E+04</pdfrwt>
<totfact> 0.85766464E-04</totfact>
</mgrwt>
</event>
<event>
 6    1  0.1773638E-005  0.1382072E+04  0.7818608E-02  0.8966899E-01
          2   -1    0    0  501    0  0.00000000000E+00  0.00000000000E+00  0.23146580841E+04  0.23146580841E+04  0.00000000000E+00 0. -1.
         -2   -1    0    0    0  501 -0.00000000000E+00 -0.00000000000E+00 -0.20630713580E+03  0.20630713580E+03  0.00000000000E+00 0.  1.
         23    2    1    2    0    0 -0.52838758774E+02  0.68496982191E+03  0.11275387786E+04  0.13234811475E+04  0.91011313960E+02 0.  0.
         11    1    3    3    0    0  0.24394833608E+01  0.24846968403E+03  0.48166691635E+03  0.54198353597E+03  0.00000000000E+00 0. -1.
        -11    1    3    3    0    0 -0.55278242135E+02  0.43650013788E+03  0.64587186223E+03  0.78149761154E+03  0.00000000000E+00 0.  1.
         22    1    1    2    0    0  0.52838758774E+02 -0.68496982191E+03  0.98081216970E+03  0.11974840724E+04  0.00000000000E+00 0. -1.
<mgrwt>
<rscale>  0 0.13820716E+04</rscale>
<asrwt>0</asrwt>
<pdfrwt beam="1">  1        2 0.35610123E+00 0.13820716E+04</pdfrwt>
<pdfrwt beam="2">  1       -2 0.31739561E-01 0.13820716E+04</pdfrwt>
<totfact> 0.40080238E+01</totfact>
</mgrwt>
</event>
<event>
 6    1  0.1773638E-005  0.5887260E+03  0.7818608E-02  0.9929076E-01
          2   -1    0    0  501    0  0.00000000000E+00  0.00000000000E+00  0.10573451792E+04  0.10573451792E+04  0.00000000000E+00 0. -1.
         -2   -1    0    0    0  501 -0.00000000000E+00 -0.00000000000E+00 -0.81950136885E+02  0.81950136885E+02  0.00000000000E+00 0.  1.
         23    2    1    2    0    0 -0.21803638623E+03  0.12632971563E+03  0.23439845121E+03  0.35662360278E+03  0.93480999994E+02 0.  0.
         11    1    3    3    0    0 -0.17942570716E+03  0.56641471379E+02  0.17802441247E+03  0.25902612244E+03  0.00000000000E+00 0.  1.
        -11    1    3    3    0    0 -0.38610679065E+02  0.69688244255E+02  0.56374038739E+02  0.97597480341E+02  0.00000000000E+00 0. -1.
         22    1    1    2    0    0  0.21803638623E+03 -0.12632971563E+03  0.74099659111E+03  0.78267171331E+03  0.00000000000E+00 0. -1.
<mgrwt>
<rscale>  0 0.58872602E+03</rscale>
<asrwt>0</asrwt>
<pdfrwt beam="1">  1        2 0.16266848E+00 0.58872602E+03</pdfrwt>
<pdfrwt beam="2">  1       -2 0.12607714E-01 0.58872602E+03</pdfrwt>
<totfact> 0.10958155E+03</totfact>
</mgrwt>
</event>
<event>
 6    1  0.1773638E-005  0.9188712E+03  0.7818608E-02  0.9402294E-01
         -2   -1    0    0    0  501 -0.00000000000E+00  0.00000000000E+00  0.57018502906E+02  0.57018502906E+02  0.00000000000E+00 0.  1.
          2   -1    0    0  501    0  0.00000000000E+00 -0.00000000000E+00 -0.37019750822E+04  0.37019750822E+04  0.00000000000E+00 0. -1.
         23    2    1    2    0    0  0.43880459551E+03  0.11950400949E+03 -0.18566851636E+04  0.19137983820E+04  0.92270086951E+02 0.  0.
         11    1    3    3    0    0  0.23937322031E+03  0.38697429528E+02 -0.11401940257E+04  0.11656926893E+04  0.00000000000E+00 0. -1.
        -11    1    3    3    0    0  0.19943137520E+03  0.80806579966E+02 -0.71649113794E+03  0.74810569275E+03  0.00000000000E+00 0.  1.
         22    1    1    2    0    0 -0.43880459551E+03 -0.11950400949E+03 -0.17882714157E+04  0.18451952031E+04  0.00000000000E+00 0.  1.
<mgrwt>
<rscale>  0 0.91887121E+03</rscale>
<asrwt>0</asrwt>
<pdfrwt beam="1">  1        2 0.56953489E+00 0.91887121E+03</pdfrwt>
<pdfrwt beam="2">  1       -2 0.87720733E-02 0.91887121E+03</pdfrwt>
<totfact> 0.52330117E+01</totfact>
</mgrwt>
</event>
<event>
 6    1  0.1773638E-005  0.1461779E+04  0.7818608E-02  0.8910275E-01
          2   -1    0    0  501    0  0.00000000000E+00  0.00000000000E+00  0.14322177620E+04  0.14322177620E+04  0.00000000000E+00 0. -1.
         -2   -1    0    0    0  501 -0.00000000000E+00 -0.00000000000E+00 -0.37298781481E+03  0.37298781481E+03  0.00000000000E+00 0.  1.
         23    2    1    2    0    0  0.50204029556E+03 -0.14768324838E+03 -0.93662837929E+02  0.53910266860E+03  0.89465970386E+02 0.  0.
         13    1    3    3    0    0  0.23060789877E+03 -0.21789331012E+02 -0.36788771864E+02  0.23453825201E+03  0.00000000000E+00 0. -1.
        -13    1    3    3    0    0  0.27143239679E+03 -0.12589391736E+03 -0.56874066066E+02  0.30456441658E+03  0.00000000000E+00 0.  1.
         22    1    1    2    0    0 -0.50204029556E+03  0.14768324838E+03  0.11528927851E+04  0.12661029082E+04  0.00000000000E+00 0.  1.
<mgrwt>
<rscale>  0 0.14617794E+04</rscale>
<asrwt>0</asrwt>
<pdfrwt beam="1">  1        2 0.22034119E+00 0.14617794E+04</pdfrwt>
<pdfrwt beam="2">  1       -2 0.57382742E-01 0.14617794E+04</pdfrwt>
<totfact> 0.38231418E+01</totfact>
</mgrwt>
</event>
<event>
 6    1  0.1773638E-005  0.2656326E+04  0.7818608E-02  0.8349316E-01
          2   -1    0    0  501    0  0.00000000000E+00  0.00000000000E+00  0.28642190176E+04  0.28642190176E+04  0.00000000000E+00 0. -1.
         -2   -1    0    0    0  501 -0.00000000000E+00 -0.00000000000E+00 -0.61588049260E+03  0.61588049260E+03  0.00000000000E+00 0.  1.
         23    2    1    2    0    0 -0.67754178748E+03  0.84488888870E+03  0.21291810464E+04  0.23905589590E+04  0.91978802432E+02 0.  0.
         13    1    3    3    0    0 -0.84740135987E+02  0.11043633518E+03  0.21159041015E+03  0.25327371842E+03  0.00000000000E+00 0.  1.
        -13    1    3    3    0    0 -0.59280165149E+03  0.73445255353E+03  0.19175906363E+04  0.21372852406E+04  0.00000000000E+00 0. -1.
         22    1    1    2    0    0  0.67754178748E+03 -0.84488888870E+03  0.11915747862E+03  0.10895405512E+04  0.00000000000E+00 0.  1.
<mgrwt>
<rscale>  0 0.26563257E+04</rscale>
<asrwt>0</asrwt>
<pdfrwt beam="1">  1        2 0.44064907E+00 0.26563257E+04</pdfrwt>
<pdfrwt beam="2">  1       -2 0.94750846E-01 0.26563257E+04</pdfrwt>
<totfact> 0.17444031E+00</totfact>
</mgrwt>
</event>
<event>
 6    1  0.1773638E-005  0.5305124E+04  0.7818608E-02  0.7783089E-01
          2   -1    0    0  501    0  0.00000000000E+00  0.00000000000E+00  0.17904605629E+04  0.17904605629E+04  0.00000000000E+00 0.  1.
         -2   -1    0    0    0  501 -0.00000000000E+00 -0.00000000000E+00 -0.39297622490E+04  0.39297622490E+04  0.00000000000E+00 0. -1.
         23    2    1    2    0    0 -0.14715162902E+04  0.13876072031E+04 -0.29191060794E+04  0.35525261463E+04  0.91911780763E+02 0.  0.
         11    1    3    3    0    0 -0.59040012455E+03  0.50643058456E+03 -0.10770325234E+04  0.13285493219E+04  0.00000000000E+00 0.  1.
        -11    1    3    3    0    0 -0.88111616562E+03  0.88117661850E+03 -0.18420735559E+04  0.22239768245E+04  0.00000000000E+00 0. -1.
         22    1    1    2    0    0  0.14715162902E+04 -0.13876072031E+04  0.77980439328E+03  0.21676966656E+04  0.00000000000E+00 0.  1.
<mgrwt>
<rscale>  0 0.53051237E+04</rscale>
<asrwt>0</asrwt>
<pdfrwt beam="1">  1        2 0.27545547E+00 0.53051237E+04</pdfrwt>
<pdfrwt beam="2">  1       -2 0.60457881E+00 0.53051237E+04</pdfrwt>
<totfact> 0.30665040E-03</totfact>
</mgrwt>
</event>
<event>
 6    1  0.1773638E-005  0.1243115E+04  0.7818608E-02  0.9075933E-01
          1   -1    0    0  501    0  0.00000000000E+00  0.00000000000E+00  0.24945413458E+03  0.24945413458E+03  0.00000000000E+00 0. -1.
         -1   -1    0    0    0  501 -0.00000000000E+00 -0.00000000000E+00 -0.15487169199E+04  0.15487169199E+04  0.00000000000E+00 0.  1.
         23    2    1    2    0    0  0.44880017407E+02  0.61649863941E+03 -0.66489445855E+03  0.91244651356E+03  0.91592634711E+02 0.  0.
         13    1    3    3    0    0  0.68062526416E+01  0.30994028270E+03 -0.27021662006E+03  0.41124971206E+03  0.00000000000E+00 0.  1.
        -13    1    3    3    0    0  0.38073764765E+02  0.30655835672E+03 -0.39467783849E+03  0.50119680150E+03  0.00000000000E+00 0. -1.
         22    1    1    2    0    0 -0.44880017407E+02 -0.61649863941E+03 -0.63436832673E+03  0.88572454088E+03  0.00000000000E+00 0.  1.
<mgrwt>
<rscale>  0 0.12431152E+04</rscale>
<asrwt>0</asrwt>
<pdfrwt beam="1">  1        1 0.38377558E-01 0.12431152E+04</pdfrwt>
<pdfrwt beam="2">  1       -1 0.23826415E+00 0.12431152E+04</pdfrwt>
<totfact> 0.91720640E+00</totfact>
</mgrwt>
</event>
<event>
 6    1  0.1773638E-005  0.1996011E+04  0.7818608E-02  0.8608488E-01
         -1   -1    0    0    0  501 -0.00000000000E+00  0.00000000000E+00  0.99436059014E+03  0.99436059014E+03  0.00000000000E+00 0.  1.
          1   -1    0    0  501    0  0.00000000000E+00 -0.00000000000E+00 -0.10016634907E+04  0.10016634907E+04  0.00000000000E+00 0. -1.
         23    2    1    2    0    0  0.68798510014E+03  0.14626531383E+03 -0.70837958433E+03  0.10029351843E+04  0.96748686235E+02 0.  0.
         11    1    3    3    0    0  0.87772473231E+02 -0.13374199965E+02 -0.82618188234E+02  0.12127918745E+03  0.00000000000E+00 0.  1.
        -11    1    3    3    0    0  0.60021262691E+03  0.15963951380E+03 -0.62576139610E+03  0.88165599681E+03  0.00000000000E+00 0. -1.
         22    1    1    2    0    0 -0.68798510014E+03 -0.14626531383E+03  0.70107668375E+03  0.99308889660E+03  0.00000000000E+00 0.  1.
<mgrwt>
<rscale>  0 0.19960107E+04</rscale>
<asrwt>0</asrwt>
<pdfrwt beam="1">  1        1 0.15410208E+00 0.19960107E+04</pdfrwt>
<pdfrwt beam="2">  1       -1 0.15297855E+00 0.19960107E+04</pdfrwt>
<totfact> 0.46309822E+00</totfact>
</mgrwt>
</event>
<event>
 6    1  0.1773638E-005  0.1512417E+04  0.7818608E-02  0.8876237E-01
         -2   -1    0    0    0  501 -0.00000000000E+00  0.00000000000E+00  0.11691856602E+04  0.11691856602E+04  0.00000000000E+00 0.  1.
          2   -1    0    0  501    0  0.00000000000E+00 -0.00000000000E+00 -0.48910238185E+03  0.48910238185E+03  0.00000000000E+00 0. -1.
         23    2    1    2    0    0 -0.74789546431E+03  0.68517941380E+02  0.40791168203E+03  0.85946408671E+03  0.90797809369E+02 0.  0.
         13    1    3    3    0    0 -0.45796411401E+03 -0.16842875771E+01  0.23686832219E+03  0.51559729305E+03  0.00000000000E+00 0. -1.
        -13    1    3    3    0    0 -0.28993135030E+03  0.70202228957E+02  0.17104335983E+03  0.34386679366E+03  0.00000000000E+00 0.  1.
         22    1    1    2    0    0  0.74789546431E+03 -0.68517941380E+02  0.27217159636E+03  0.79882395538E+03  0.00000000000E+00 0.  1.
<mgrwt>
<rscale>  0 0.15124173E+04</rscale>
<asrwt>0</asrwt>
<pdfrwt beam="1">  1        2 0.75246521E-01 0.15124173E+04</pdfrwt>
<pdfrwt beam="2">  1       -2 0.17987472E+00 0.15124173E+04</pdfrwt>
<totfact> 0.11068253E+01</totfact>
</mgrwt>
</event>
<event>
 6    1  0.1773638E-005  0.1514466E+04  0.7818608E-02  0.8874890E-01
          2   -1    0    0  501    0  0.00000000000E+00  0.00000000000E+00  0.14943800065E+04  0.14943800065E+04  0.00000000000E+00 0. -1.
         -2   -1    0    0    0  501 -0.00000000000E+00 -0.00000000000E+00 -0.38370547681E+03  0.38370547681E+03  0.00000000000E+00 0.  1.
         23    2    1    2    0    0 -0.26311222211E+03  0.46572778875E+03  0.12173766855E+04  0.13326354263E+04  0.88208675154E+02 0.  0.
         13    1    3    3    0    0 -0.33221506724E+02  0.13649947572E+03  0.32703704366E+03  0.35593398729E+03  0.00000000000E+00 0. -1.
        -13    1    3    3    0    0 -0.22989071538E+03  0.32922831303E+03  0.89033964185E+03  0.97670143901E+03  0.00000000000E+00 0.  1.
         22    1    1    2    0    0  0.26311222211E+03 -0.46572778875E+03 -0.10670215582E+03  0.54545005701E+03  0.00000000000E+00 0.  1.
<mgrwt>
<rscale>  0 0.15144660E+04</rscale>
<asrwt>0</asrwt>
<pdfrwt beam="1">  1        2 0.22990461E+00 0.15144660E+04</pdfrwt>
<pdfrwt beam="2">  1       -2 0.59031612E-01 0.15144660E+04</pdfrwt>
<totfact> 0.33077265E+01</totfact>
</mgrwt>
</event>
<event>
 6    1  0.1773638E-005  0.2163909E+04  0.7818608E-02  0.8533602E-01
          3   -1    0    0  501    0  0.00000000000E+00  0.00000000000E+00  0.16034725346E+04  0.16034725346E+04  0.00000000000E+00 0. -1.
         -3   -1    0    0    0  501 -0.00000000000E+00 -0.00000000000E+00 -0.73005628517E+03  0.73005628517E+03  0.00000000000E+00 0.  1.
         23    2    1    2    0    0  0.31671602471E+02  0.10586910152E+04  0.66523926509E+03  0.12540996128E+04  0.91612241545E+02 0.  0.
         13    1    3    3    0    0  0.72605215906E+01  0.68794622789E+03  0.38215481252E+03  0.78699747673E+03  0.00000000000E+00 0.  1.
        -13    1    3    3    0    0  0.24411080880E+02  0.37074478734E+03  0.28308445257E+03  0.46710213605E+03  0.00000000000E+00 0. -1.
         22    1    1    2    0    0 -0.31671602471E+02 -0.10586910152E+04  0.20817698437E+03  0.10794292070E+04  0.00000000000E+00 0.  1.
<mgrwt>
<rscale>  0 0.21639087E+04</rscale>
<asrwt>0</asrwt>
<pdfrwt beam="1">  1        3 0.24668808E+00 0.21639087E+04</pdfrwt>
<pdfrwt beam="2">  1       -3 0.11231635E+00 0.21639087E+04</pdfrwt>
<totfact> 0.12258237E-01</totfact>
</mgrwt>
</event>
<event>
 6    1  0.1773638E-005  0.1194199E+04  0.7818608E-02  0.9117949E-01
          1   -1    0    0  501    0  0.00000000000E+00  0.00000000000E+00  0.26256038937E+03  0.26256038937E+03  0.00000000000E+00 0. -1.
         -1   -1    0    0    0  501 -0.00000000000E+00 -0.00000000000E+00 -0.13578895385E+04  0.13578895385E+04  0.00000000000E+00 0.  1.
         23    2    1    2    0    0  0.48576619378E+03  0.28884034486E+03 -0.79716478315E+03  0.98146672857E+03  0.91693554551E+02 0.  0.
         11    1    3    3    0    0  0.81584487503E+02  0.48711385335E+02 -0.81440120528E+02  0.12514519924E+03  0.00000000000E+00 0.  1.
        -11    1    3    3    0    0  0.40418170628E+03  0.24012895953E+03 -0.71572466262E+03  0.85632152932E+03  0.00000000000E+00 0. -1.
         22    1    1    2    0    0 -0.48576619378E+03 -0.28884034486E+03 -0.29816436597E+03  0.63898319930E+03  0.00000000000E+00 0.  1.
<mgrwt>
<rscale>  0 0.11941993E+04</rscale>
<asrwt>0</asrwt>
<pdfrwt beam="1">  1        1 0.40393905E-01 0.11941993E+04</pdfrwt>
<pdfrwt beam="2">  1       -1 0.20890609E+00 0.11941993E+04</pdfrwt>
<totfact> 0.13516978E+01</totfact>
</mgrwt>
</event>
<event>
 6    1  0.1773638E-005  0.4009946E+04  0.7818608E-02  0.8002543E-01
         -1   -1    0    0    0  501 -0.00000000000E+00  0.00000000000E+00  0.26198537098E+04  0.26198537098E+04  0.00000000000E+00 0.  1.
          1   -1    0    0  501    0  0.00000000000E+00 -0.00000000000E+00 -0.15344051712E+04  0.15344051712E+04  0.00000000000E+00 0. -1.
         23    2    1    2    0    0  0.14952186142E+04  0.92971564397E+03 -0.44830317984E+03  0.18192119400E+04  0.92230465786E+02 0.  0.
         11    1    3    3    0    0  0.26717511840E+03  0.13050736120E+03 -0.58564495451E+02  0.30305860051E+03  0.00000000000E+00 0. -1.
        -11    1    3    3    0    0  0.12280434958E+04  0.79920828277E+03 -0.38973868438E+03  0.15161533395E+04  0.00000000000E+00 0.  1.
         22    1    1    2    0    0 -0.14952186142E+04 -0.92971564397E+03  0.15337517184E+04  0.23350469410E+04  0.00000000000E+00 0.  1.
<mgrwt>
<rscale>  0 0.40099462E+04</rscale>
<asrwt>0</asrwt>
<pdfrwt beam="1">  1        1 0.23606233E+00 0.40099462E+04</pdfrwt>
<pdfrwt beam="2">  1       -1 0.40305442E+00 0.40099462E+04</pdfrwt>
<totfact> 0.32991831E-02</totfact>
</mgrwt>
</event>
<event>
 6    1  0.1773638E-005  0.2762060E+03  0.7818608E-02  0.1097779E+00
          2   -1    0    0  501    0  0.00000000000E+00  0.00000000000E+00  0.21731786350E+03  0.21731786350E+03  0.00000000000E+00 0. -1.
         -2   -1    0    0    0  501 -0.00000000000E+00 -0.00000000000E+00 -0.87762839269E+02  0.87762839269E+02  0.00000000000E+00 0.  1.
         23    2    1    2    0    0 -0.11196048835E+03  0.41490916397E+02  0.38167940072E+02  0.15472031488E+03  0.90691438912E+02 0.  0.
         13    1    3    3    0    0 -0.46199429436E+02  0.60848133957E+02  0.28856739396E+00  0.76400038988E+02  0.00000000000E+00 0. -1.
        -13    1    3    3    0    0 -0.65761058915E+02 -0.19357217560E+02  0.37879372678E+02  0.78320275892E+02  0.00000000000E+00 0.  1.
         22    1    1    2    0    0  0.11196048835E+03 -0.41490916397E+02  0.91387084163E+02  0.15036038789E+03  0.00000000000E+00 0. -1.
<mgrwt>
<rscale>  0 0.27620596E+03</rscale>
<asrwt>0</asrwt>
<pdfrwt beam="1">  1        2 0.33433517E-01 0.27620596E+03</pdfrwt>
<pdfrwt beam="2">  1       -2 0.13501975E-01 0.27620596E+03</pdfrwt>
<totfact> 0.62931353E+03</totfact>
</mgrwt>
</event>
<event>
 6    1  0.1773638E-005  0.1511783E+04  0.7818608E-02  0.8876655E-01
          1   -1    0    0  501    0  0.00000000000E+00  0.00000000000E+00  0.16503424513E+04  0.16503424513E+04  0.00000000000E+00 0. -1.
         -1   -1    0    0    0  501 -0.00000000000E+00 -0.00000000000E+00 -0.34621407450E+03  0.34621407450E+03  0.00000000000E+00 0.  1.
         23    2    1    2    0    0 -0.71027942234E+03 -0.18546394961E+03  0.43361358158E+03  0.85783366966E+03  0.94679101527E+02 0.  0.
         13    1    3    3    0    0 -0.27475278002E+03 -0.11369194490E+03  0.20080363715E+03  0.35879945534E+03  0.00000000000E+00 0. -1.
        -13    1    3    3    0    0 -0.43552664232E+03 -0.71772004712E+02  0.23280994444E+03  0.49903421432E+03  0.00000000000E+00 0.  1.
         22    1    1    2    0    0  0.71027942234E+03  0.18546394961E+03  0.87051479519E+03  0.11387228561E+04  0.00000000000E+00 0.  1.
<mgrwt>
<rscale>  0 0.15117828E+04</rscale>
<asrwt>0</asrwt>
<pdfrwt beam="1">  1        1 0.25389883E+00 0.15117828E+04</pdfrwt>
<pdfrwt beam="2">  1       -1 0.53263705E-01 0.15117828E+04</pdfrwt>
<totfact> 0.17707480E+01</totfact>
</mgrwt>
</event>
<event>
 6    1  0.1773638E-005  0.8667381E+03  0.7818608E-02  0.9468143E-01
         -3   -1    0    0    0  501 -0.00000000000E+00  0.00000000000E+00  0.14085255470E+03  0.14085255470E+03  0.00000000000E+00 0.  1.
          3   -1    0    0  501    0  0.00000000000E+00 -0.00000000000E+00 -0.13333711661E+04  0.13333711661E+04  0.00000000000E+00 0. -1.
         23    2    1    2    0    0  0.31146455019E+03  0.29045318795E+03 -0.68600269246E+03  0.81245971715E+03  0.90099264770E+02 0.  0.
         11    1    3    3    0    0  0.27544304373E+03  0.22464572095E+03 -0.60774164565E+03  0.70404863336E+03  0.00000000000E+00 0. -1.
        -11    1    3    3    0    0  0.36021506456E+02  0.65807466996E+02 -0.78261046816E+02  0.10841108379E+03  0.00000000000E+00 0.  1.
         22    1    1    2    0    0 -0.31146455019E+03 -0.29045318795E+03 -0.50651591896E+03  0.66176400368E+03  0.00000000000E+00 0.  1.
<mgrwt>
<rscale>  0 0.86673810E+03</rscale>
<asrwt>0</asrwt>
<pdfrwt beam="1">  1        3 0.20513403E+00 0.86673810E+03</pdfrwt>
<pdfrwt beam="2">  1       -3 0.21669624E-01 0.86673810E+03</pdfrwt>
<totfact> 0.71876801E+00</totfact>
</mgrwt>
</event>
<event>
 6    1  0.1773638E-005  0.2064761E+04  0.7818608E-02  0.8576927E-01
          2   -1    0    0  501    0  0.00000000000E+00  0.00000000000E+00  0.68178283087E+03  0.68178283087E+03  0.00000000000E+00 0. -1.
         -2   -1    0    0    0  501 -0.00000000000E+00 -0.00000000000E+00 -0.15632685424E+04  0.15632685424E+04  0.00000000000E+00 0.  1.
         23    2    1    2    0    0 -0.80357273909E+03 -0.29482177371E+03 -0.10652376550E+04  0.13696007453E+04  0.91792780748E+02 0.  0.
         13    1    3    3    0    0 -0.44089996032E+03 -0.12966505328E+03 -0.51544361366E+03  0.69057072043E+03  0.00000000000E+00 0. -1.
        -13    1    3    3    0    0 -0.36267277877E+03 -0.16515672043E+03 -0.54979404132E+03  0.67903002484E+03  0.00000000000E+00 0.  1.
         22    1    1    2    0    0  0.80357273909E+03  0.29482177371E+03  0.18375194348E+03  0.87545062796E+03  0.00000000000E+00 0. -1.
<mgrwt>
<rscale>  0 0.20647612E+04</rscale>
<asrwt>0</asrwt>
<pdfrwt beam="1">  1        2 0.10488967E+00 0.20647612E+04</pdfrwt>
<pdfrwt beam="2">  1       -2 0.24050285E+00 0.20647612E+04</pdfrwt>
<totfact> 0.28783741E+00</totfact>
</mgrwt>
</event>
<event>
 6    1  0.1773638E-005  0.1693909E+04  0.7818608E-02  0.8764846E-01
          2   -1    0    0  501    0  0.00000000000E+00  0.00000000000E+00  0.12938974993E+04  0.12938974993E+04  0.00000000000E+00 0. -1.
         -2   -1    0    0    0  501 -0.00000000000E+00 -0.00000000000E+00 -0.55439654690E+03  0.55439654690E+03  0.00000000000E+00 0.  1.
         23    2    1    2    0    0  0.76990420948E+03  0.18390986855E+02 -0.77809104157E+01  0.77520462650E+03  0.88266359447E+02 0.  0.
         13    1    3    3    0    0  0.40696392085E+03  0.53447580090E+02 -0.95928306761E+01  0.41057069926E+03  0.00000000000E+00 0.  1.
        -13    1    3    3    0    0  0.36294028863E+03 -0.35056593235E+02  0.18119202603E+01  0.36463392724E+03  0.00000000000E+00 0. -1.
         22    1    1    2    0    0 -0.76990420948E+03 -0.18390986855E+02  0.74728186284E+03  0.10730894197E+04  0.00000000000E+00 0. -1.
<mgrwt>
<rscale>  0 0.16939094E+04</rscale>
<asrwt>0</asrwt>
<pdfrwt beam="1">  1        2 0.19906115E+00 0.16939094E+04</pdfrwt>
<pdfrwt beam="2">  1       -2 0.85291777E-01 0.16939094E+04</pdfrwt>
<totfact> 0.18972314E+01</totfact>
</mgrwt>
</event>
<event>
 6    1  0.1773638E-005  0.1508559E+04  0.7818608E-02  0.8878781E-01
          2   -1    0    0  501    0  0.00000000000E+00  0.00000000000E+00  0.97250564455E+03  0.97250564455E+03  0.00000000000E+00 0. -1.
         -2   -1    0    0    0  501 -0.00000000000E+00 -0.00000000000E+00 -0.58502259665E+03  0.58502259665E+03  0.00000000000E+00 0.  1.
         23    2    1    2    0    0 -0.48665150167E+03  0.33958816362E+03 -0.28180433958E+03  0.66304771488E+03  0.89826396192E+02 0.  0.
         11    1    3    3    0    0 -0.27363003222E+03  0.19158353458E+03 -0.10899920465E+03  0.35136657762E+03  0.00000000000E+00 0. -1.
        -11    1    3    3    0    0 -0.21302146945E+03  0.14800462903E+03 -0.17280513493E+03  0.31168113726E+03  0.00000000000E+00 0.  1.
         22    1    1    2    0    0  0.48665150167E+03 -0.33958816362E+03  0.66928738747E+03  0.89448052632E+03  0.00000000000E+00 0. -1.
<mgrwt>
<rscale>  0 0.15085593E+04</rscale>
<asrwt>0</asrwt>
<pdfrwt beam="1">  1        2 0.14961625E+00 0.15085593E+04</pdfrwt>
<pdfrwt beam="2">  1       -2 0.90003477E-01 0.15085593E+04</pdfrwt>
<totfact> 0.26783280E+01</totfact>
</mgrwt>
</event>
<event>
 6    1  0.1773638E-005  0.1653917E+04  0.7818608E-02  0.8788092E-01
         -1   -1    0    0    0  501 -0.00000000000E+00  0.00000000000E+00  0.63333595607E+03  0.63333595607E+03  0.00000000000E+00 0.  1.
          1   -1    0    0  501    0  0.00000000000E+00 -0.00000000000E+00 -0.10797754571E+04  0.10797754571E+04  0.00000000000E+00 0. -1.
         23    2    1    2    0    0 -0.40389694953E+03  0.62617962993E+03 -0.58955787077E+03  0.95435154168E+03  0.89301216900E+02 0.  0.
         13    1    3    3    0    0 -0.12572917138E+03  0.21481473261E+03 -0.14632432662E+03  0.28872825016E+03  0.00000000000E+00 0.  1.
        -13    1    3    3    0    0 -0.27816777815E+03  0.41136489732E+03 -0.44323354415E+03  0.66562329152E+03  0.00000000000E+00 0. -1.
         22    1    1    2    0    0  0.40389694953E+03 -0.62617962993E+03  0.14311836977E+03  0.75875987146E+03  0.00000000000E+00 0.  1.
<mgrwt>
<rscale>  0 0.16539173E+04</rscale>
<asrwt>0</asrwt>
<pdfrwt beam="1">  1        1 0.16611930E+00 0.16539173E+04</pdfrwt>
<pdfrwt beam="2">  1       -1 0.97436302E-01 0.16539173E+04</pdfrwt>
<totfact> 0.12689335E+01</totfact>
</mgrwt>
</event>
<event>
 6    1  0.1773638E-005  0.3534572E+03  0.7818608E-02  0.1061205E+00
         -2   -1    0    0    0  501 -0.00000000000E+00  0.00000000000E+00  0.39004240778E+02  0.39004240778E+02  0.00000000000E+00 0.  1.
          2   -1    0    0  501    0  0.00000000000E+00 -0.00000000000E+00 -0.80075906999E+03  0.80075906999E+03  0.00000000000E+00 0. -1.
         23    2    1    2    0    0 -0.13685100224E+03  0.43664782012E+02 -0.59946945362E+03  0.62303455602E+03  0.90408086904E+02 0.  0.
         11    1    3    3    0    0 -0.12963744629E+03  0.50655996543E+01 -0.43445054159E+03  0.45340798500E+03  0.00000000000E+00 0. -1.
        -11    1    3    3    0    0 -0.72135559469E+01  0.38599182357E+02 -0.16501891203E+03  0.16962657102E+03  0.00000000000E+00 0.  1.
         22    1    1    2    0    0  0.13685100224E+03 -0.43664782012E+02 -0.16228537559E+03  0.21672875474E+03  0.00000000000E+00 0.  1.
<mgrwt>
<rscale>  0 0.35345721E+03</rscale>
<asrwt>0</asrwt>
<pdfrwt beam="1">  1        2 0.12319370E+00 0.35345721E+03</pdfrwt>
<pdfrwt beam="2">  1       -2 0.60006525E-02 0.35345721E+03</pdfrwt>
<totfact> 0.52659220E+03</totfact>
</mgrwt>
</event>
<event>
 6    1  0.1773638E-005  0.6400785E+04  0.7818608E-02  0.7642602E-01
         -1   -1    0    0    0  501 -0.00000000000E+00  0.00000000000E+00  0.51671905254E+04  0.51671905254E+04  0.00000000000E+00 0.  1.
          1   -1    0    0  501    0  0.00000000000E+00 -0.00000000000E+00 -0.19822206044E+04  0.19822206044E+04  0.00000000000E+00 0. -1.
         23    2    1    2    0    0  0.15659219932E+04 -0.23404480086E+04 -0.10430735225E+03  0.28193818517E+04  0.90694168478E+02 0.  0.
         13    1    3    3    0    0  0.11023778011E+04 -0.15939813709E+04 -0.10136788371E+03  0.19406928853E+04  0.00000000000E+00 0. -1.
        -13    1    3    3    0    0  0.46354419211E+03 -0.74646663764E+03 -0.29394685423E+01  0.87868896637E+03  0.00000000000E+00 0.  1.
         22    1    1    2    0    0 -0.15659219932E+04  0.23404480086E+04  0.32892772732E+04  0.43300292782E+04  0.00000000000E+00 0.  1.
<mgrwt>
<rscale>  0 0.64007848E+04</rscale>
<asrwt>0</asrwt>
<pdfrwt beam="1">  1        1 0.30495702E+00 0.64007848E+04</pdfrwt>
<pdfrwt beam="2">  1       -1 0.79495238E+00 0.64007848E+04</pdfrwt>
<totfact> 0.15041823E-04</totfact>
</mgrwt>
</event>
<event>
 6    1  0.1773638E-005  0.1198615E+04  0.7818608E-02  0.9114069E-01
          2   -1    0    0  501    0  0.00000000000E+00  0.00000000000E+00  0.43523160627E+03  0.43523160627E+03  0.00000000000E+00 0. -1.
         -2   -1    0    0    0  501 -0.00000000000E+00 -0.00000000000E+00 -0.82523809159E+03  0.82523809159E+03  0.00000000000E+00 0.  1.
         23    2    1    2    0    0  0.53790972374E+03 -0.88423145536E+02  0.56959291732E+02  0.55552719708E+03  0.90557066124E+02 0.  0.
         11    1    3    3    0    0  0.34993876163E+03 -0.62199302535E+02 -0.62747242674E+01  0.35547891962E+03  0.00000000000E+00 0.  1.
        -11    1    3    3    0    0  0.18797096210E+03 -0.26223843001E+02  0.63234015999E+02  0.20004827746E+03  0.00000000000E+00 0. -1.
         22    1    1    2    0    0 -0.53790972374E+03  0.88423145536E+02 -0.44696577705E+03  0.70494250078E+03  0.00000000000E+00 0.  1.
<mgrwt>
<rscale>  0 0.11986154E+04</rscale>
<asrwt>0</asrwt>
<pdfrwt beam="1">  1        2 0.66958709E-01 0.11986154E+04</pdfrwt>
<pdfrwt beam="2">  1       -2 0.12695970E+00 0.11986154E+04</pdfrwt>
<totfact> 0.32857319E+01</totfact>
</mgrwt>
</event>
<event>
 6    1  0.1773638E-005  0.3178140E+04  0.7818608E-02  0.8194614E-01
          2   -1    0    0  501    0  0.00000000000E+00  0.00000000000E+00  0.24456028376E+04  0.24456028376E+04  0.00000000000E+00 0. -1.
         -2   -1    0    0    0  501 -0.00000000000E+00 -0.00000000000E+00 -0.10325242007E+04  0.10325242007E+04  0.00000000000E+00 0.  1.
         23    2    1    2    0    0  0.53120136034E+03  0.11772166765E+04  0.17180694584E+04  0.21510877059E+04  0.86032935439E+02 0.  0.
         13    1    3    3    0    0  0.39089716821E+03  0.84849158995E+03  0.13038449442E+04  0.16039794926E+04  0.00000000000E+00 0.  1.
        -13    1    3    3    0    0  0.14030419212E+03  0.32872508653E+03  0.41422451424E+03  0.54710821328E+03  0.00000000000E+00 0. -1.
         22    1    1    2    0    0 -0.53120136034E+03 -0.11772166765E+04 -0.30499082141E+03  0.13270393324E+04  0.00000000000E+00 0. -1.
<mgrwt>
<rscale>  0 0.31781404E+04</rscale>
<asrwt>0</asrwt>
<pdfrwt beam="1">  1        2 0.37624659E+00 0.31781404E+04</pdfrwt>
<pdfrwt beam="2">  1       -2 0.15884988E+00 0.31781404E+04</pdfrwt>
<totfact> 0.81091490E-01</totfact>
</mgrwt>
</event>
<event>
 6    1  0.1773638E-005  0.3625615E+04  0.7818608E-02  0.8084649E-01
          1   -1    0    0  501    0  0.00000000000E+00  0.00000000000E+00  0.26187486179E+04  0.26187486179E+04  0.00000000000E+00 0. -1.
         -1   -1    0    0    0  501 -0.00000000000E+00 -0.00000000000E+00 -0.12549013711E+04  0.12549013711E+04  0.00000000000E+00 0.  1.
         23    2    1    2    0    0  0.12960069932E+04 -0.71348525077E+03 -0.43490883598E+03  0.15446547604E+04  0.90096080410E+02 0.  0.
         11    1    3    3    0    0  0.11462399327E+04 -0.64068837372E+03 -0.41380182811E+03  0.13768004679E+04  0.00000000000E+00 0. -1.
        -11    1    3    3    0    0  0.14976706049E+03 -0.72796877043E+02 -0.21107007877E+02  0.16785429246E+03  0.00000000000E+00 0.  1.
         22    1    1    2    0    0 -0.12960069932E+04  0.71348525077E+03  0.17987560828E+04  0.23289952286E+04  0.00000000000E+00 0. -1.
<mgrwt>
<rscale>  0 0.36256151E+04</rscale>
<asrwt>0</asrwt>
<pdfrwt beam="1">  1        1 0.40288440E+00 0.36256151E+04</pdfrwt>
<pdfrwt beam="2">  1       -1 0.19306175E+00 0.36256151E+04</pdfrwt>
<totfact> 0.15196394E-01</totfact>
</mgrwt>
</event>
<event>
 6    1  0.1798683E-005  0.2107975E+04  0.7818608E-02  0.8557738E-01
          2   -1    0    0  501    0  0.00000000000E+00  0.00000000000E+00  0.13352557448E+04  0.13352557448E+04  0.00000000000E+00 0. -1.
         -2   -1    0    0    0  501 -0.00000000000E+00 -0.00000000000E+00 -0.83196765319E+03  0.83196765319E+03  0.00000000000E+00 0.  1.
         23    2    1    2    0    0  0.10025728059E+04  0.27760336143E+03  0.41387811542E+03  0.11230921796E+04  0.88459550417E+02 0.  0.
         13    1    3    3    0    0  0.35645610292E+03  0.13998150961E+03  0.16839327593E+03  0.41834444148E+03  0.00000000000E+00 0.  1.
        -13    1    3    3    0    0  0.64611670300E+03  0.13762185182E+03  0.24548483949E+03  0.70474773814E+03  0.00000000000E+00 0. -1.
         22    1    1    2    0    0 -0.10025728059E+04 -0.27760336143E+03  0.89409976238E+02  0.10441312184E+04  0.00000000000E+00 0.  1.
<mgrwt>
<rscale>  0 0.21079749E+04</rscale>
<asrwt>0</asrwt>
<pdfrwt beam="1">  1        2 0.20542396E+00 0.21079749E+04</pdfrwt>
<pdfrwt beam="2">  1       -2 0.12799502E+00 0.21079749E+04</pdfrwt>
<totfact> 0.65611812E+00</totfact>
</mgrwt>
</event>
<event>
 6    1  0.1773638E-005  0.1862602E+04  0.7818608E-02  0.8673699E-01
         -4   -1    0    0    0  501 -0.00000000000E+00  0.00000000000E+00  0.10254374017E+04  0.10254374017E+04  0.00000000000E+00 0.  1.
          4   -1    0    0  501    0  0.00000000000E+00 -0.00000000000E+00 -0.84580647587E+03  0.84580647587E+03  0.00000000000E+00 0. -1.
         23    2    1    2    0    0 -0.44916029562E+03  0.56524547566E+03  0.67699364565E+03  0.99453577674E+03  0.97640135493E+02 0.  0.
         11    1    3    3    0    0 -0.33626982597E+03  0.35019644774E+03  0.46112038223E+03  0.66958715248E+03  0.00000000000E+00 0. -1.
        -11    1    3    3    0    0 -0.11289046965E+03  0.21504902792E+03  0.21587326342E+03  0.32494862426E+03  0.00000000000E+00 0.  1.
         22    1    1    2    0    0  0.44916029562E+03 -0.56524547566E+03 -0.49736271984E+03  0.87670810080E+03  0.00000000000E+00 0. -1.
<mgrwt>
<rscale>  0 0.18626020E+04</rscale>
<asrwt>0</asrwt>
<pdfrwt beam="1">  1        4 0.13012407E+00 0.18626020E+04</pdfrwt>
<pdfrwt beam="2">  1       -4 0.15775960E+00 0.18626020E+04</pdfrwt>
<totfact> 0.21090590E-01</totfact>
</mgrwt>
</event>
<event>
 6    1  0.1773638E-005  0.4368845E+04  0.7818608E-02  0.7934009E-01
         -2   -1    0    0    0  501 -0.00000000000E+00  0.00000000000E+00  0.36381714113E+04  0.36381714113E+04  0.00000000000E+00 0.  1.
          2   -1    0    0  501    0  0.00000000000E+00 -0.00000000000E+00 -0.13115657617E+04  0.13115657617E+04  0.00000000000E+00 0. -1.
         23    2    1    2    0    0  0.97823081986E+02  0.18987176892E+04 -0.52714275207E+02  0.19041072672E+04  0.90263345039E+02 0.  0.
         11    1    3    3    0    0  0.40369237665E+02  0.14875666183E+04 -0.49941521884E+02  0.14889520727E+04  0.00000000000E+00 0. -1.
        -11    1    3    3    0    0  0.57453844321E+02  0.41115107092E+03 -0.27727533227E+01  0.41515519448E+03  0.00000000000E+00 0.  1.
         22    1    1    2    0    0 -0.97823081986E+02 -0.18987176892E+04  0.23793199248E+04  0.30456299058E+04  0.00000000000E+00 0.  1.
<mgrwt>
<rscale>  0 0.43688447E+04</rscale>
<asrwt>0</asrwt>
<pdfrwt beam="1">  1        2 0.20177935E+00 0.43688447E+04</pdfrwt>
<pdfrwt beam="2">  1       -2 0.55971867E+00 0.43688447E+04</pdfrwt>
<totfact> 0.95497970E-03</totfact>
</mgrwt>
</event>
<event>
 6    1  0.1773638E-005  0.1421791E+04  0.7818608E-02  0.8938194E-01
          2   -1    0    0  501    0  0.00000000000E+00  0.00000000000E+00  0.22765360575E+04  0.22765360575E+04  0.00000000000E+00 0. -1.
         -2   -1    0    0    0  501 -0.00000000000E+00 -0.00000000000E+00 -0.22199189094E+03  0.22199189094E+03  0.00000000000E+00 0.  1.
         23    2    1    2    0    0 -0.17731696158E+03 -0.30330092985E+03  0.21113568645E+04  0.21426340856E+04  0.98082907012E+02 0.  0.
         11    1    3    3    0    0 -0.26521762528E+02 -0.62530409376E+01  0.90838035511E+02  0.94836981732E+02  0.00000000000E+00 0.  1.
        -11    1    3    3    0    0 -0.15079519906E+03 -0.29704788891E+03  0.20205188290E+04  0.20477971039E+04  0.00000000000E+00 0. -1.
         22    1    1    2    0    0  0.17731696158E+03  0.30330092985E+03 -0.56812697988E+02  0.35589386278E+03  0.00000000000E+00 0.  1.
<mgrwt>
<rscale>  0 0.14217912E+04</rscale>
<asrwt>0</asrwt>
<pdfrwt beam="1">  1        2 0.35023630E+00 0.14217912E+04</pdfrwt>
<pdfrwt beam="2">  1       -2 0.34152600E-01 0.14217912E+04</pdfrwt>
<totfact> 0.36538888E+01</totfact>
</mgrwt>
</event>
<event>
 6    1  0.1773638E-005  0.1620173E+04  0.7818608E-02  0.8808250E-01
         -1   -1    0    0    0  501 -0.00000000000E+00  0.00000000000E+00  0.67322317269E+03  0.67322317269E+03  0.00000000000E+00 0. -1.
          1   -1    0    0  501    0  0.00000000000E+00 -0.00000000000E+00 -0.97477344151E+03  0.97477344151E+03  0.00000000000E+00 0.  1.
         23    2    1    2    0    0 -0.56384306479E+03 -0.45007233075E+03 -0.52013015664E+03  0.89416555091E+03  0.92263470320E+02 0.  0.
         13    1    3    3    0    0 -0.16020419009E+03 -0.14571289526E+03 -0.10834830271E+03  0.24215074864E+03  0.00000000000E+00 0.  1.
        -13    1    3    3    0    0 -0.40363887470E+03 -0.30435943549E+03 -0.41178185393E+03  0.65201480226E+03  0.00000000000E+00 0. -1.
         22    1    1    2    0    0  0.56384306479E+03  0.45007233075E+03  0.21857988783E+03  0.75383106329E+03  0.00000000000E+00 0. -1.
<mgrwt>
<rscale>  0 0.16201729E+04</rscale>
<asrwt>0</asrwt>
<pdfrwt beam="1">  1        1 0.14996514E+00 0.16201729E+04</pdfrwt>
<pdfrwt beam="2">  1       -1 0.10357280E+00 0.16201729E+04</pdfrwt>
<totfact> 0.13338854E+01</totfact>
</mgrwt>
</event>
<event>
 6    1  0.1773638E-005  0.2809377E+04  0.7818608E-02  0.8300363E-01
         -1   -1    0    0    0  501 -0.00000000000E+00  0.00000000000E+00  0.12572562682E+04  0.12572562682E+04  0.00000000000E+00 0.  1.
          1   -1    0    0  501    0  0.00000000000E+00 -0.00000000000E+00 -0.15694093675E+04  0.15694093675E+04  0.00000000000E+00 0. -1.
         23    2    1    2    0    0 -0.99420218564E+03 -0.37042542201E+03  0.76789573849E+03  0.13126780297E+04  0.88355900585E+02 0.  0.
         13    1    3    3    0    0 -0.61973020547E+03 -0.27060265951E+03  0.51334619981E+03  0.84900862644E+03  0.00000000000E+00 0. -1.
        -13    1    3    3    0    0 -0.37447198018E+03 -0.99822762503E+02  0.25454953867E+03  0.46366940323E+03  0.00000000000E+00 0.  1.
         22    1    1    2    0    0  0.99420218564E+03  0.37042542201E+03 -0.10800488378E+04  0.15139876061E+04  0.00000000000E+00 0. -1.
<mgrwt>
<rscale>  0 0.28093770E+04</rscale>
<asrwt>0</asrwt>
<pdfrwt beam="1">  1        1 0.24144759E+00 0.28093770E+04</pdfrwt>
<pdfrwt beam="2">  1       -1 0.19342404E+00 0.28093770E+04</pdfrwt>
<totfact> 0.84720672E-01</totfact>
</mgrwt>
</event>
<event>
 6    1  0.1773638E-005  0.2294679E+04  0.7818608E-02  0.8480022E-01
          2   -1    0    0  501    0  0.00000000000E+00  0.00000000000E+00  0.35868638703E+04  0.35868638703E+04  0.00000000000E+00 0. -1.
         -2   -1    0    0    0  501 -0.00000000000E+00 -0.00000000000E+00 -0.36700255012E+03  0.36700255012E+03  0.00000000000E+00 0.  1.
         23    2    1    2    0    0 -0.93240856356E+03  0.52425711255E+03  0.23185946947E+04  0.25551124108E+04  0.92123958124E+02 0.  0.
         11    1    3    3    0    0 -0.73754051548E+03  0.39544646197E+03  0.18901470589E+04  0.20671235620E+04  0.00000000000E+00 0.  1.
        -11    1    3    3    0    0 -0.19486804808E+03  0.12881065058E+03  0.42844763587E+03  0.48798884879E+03  0.00000000000E+00 0. -1.
         22    1    1    2    0    0  0.93240856356E+03 -0.52425711255E+03  0.90126662547E+03  0.13987540097E+04  0.00000000000E+00 0.  1.
<mgrwt>
<rscale>  0 0.22946792E+04</rscale>
<asrwt>0</asrwt>
<pdfrwt beam="1">  1        2 0.55182519E+00 0.22946792E+04</pdfrwt>
<pdfrwt beam="2">  1       -2 0.56461933E-01 0.22946792E+04</pdfrwt>
<totfact> 0.18895650E+00</totfact>
</mgrwt>
</event>
<event>
 6    1  0.1773638E-005  0.7829520E+03  0.7818608E-02  0.9585027E-01
         -2   -1    0    0    0  501 -0.00000000000E+00  0.00000000000E+00  0.32753065126E+03  0.32753065126E+03  0.00000000000E+00 0.  1.
          2   -1    0    0  501    0  0.00000000000E+00 -0.00000000000E+00 -0.46790569883E+03  0.46790569883E+03  0.00000000000E+00 0. -1.
         23    2    1    2    0    0 -0.76803109636E+01 -0.28694574738E+03 -0.33337766675E+03  0.44953627762E+03  0.92441046590E+02 0.  0.
         13    1    3    3    0    0 -0.41090457501E+02 -0.16971432307E+03 -0.23566820812E+03  0.29331021372E+03  0.00000000000E+00 0.  1.
        -13    1    3    3    0    0  0.33410146537E+02 -0.11723142431E+03 -0.97709458631E+02  0.15622606391E+03  0.00000000000E+00 0. -1.
         22    1    1    2    0    0  0.76803109636E+01  0.28694574738E+03  0.19300261918E+03  0.34590007246E+03  0.00000000000E+00 0.  1.
<mgrwt>
<rscale>  0 0.78295200E+03</rscale>
<asrwt>0</asrwt>
<pdfrwt beam="1">  1        2 0.71985491E-01 0.78295200E+03</pdfrwt>
<pdfrwt beam="2">  1       -2 0.50389331E-01 0.78295200E+03</pdfrwt>
<totfact> 0.24957382E+02</totfact>
</mgrwt>
</event>
<event>
 6    1  0.1773638E-005  0.1048151E+04  0.7818608E-02  0.9257255E-01
          1   -1    0    0  501    0  0.00000000000E+00  0.00000000000E+00  0.51885369980E+03  0.51885369980E+03  0.00000000000E+00 0. -1.
         -1   -1    0    0    0  501 -0.00000000000E+00 -0.00000000000E+00 -0.52934990305E+03  0.52934990305E+03  0.00000000000E+00 0.  1.
         23    2    1    2    0    0  0.30661336987E+03 -0.12316414707E+03 -0.40696894242E+03  0.53209140708E+03  0.91194186699E+02 0.  0.
         13    1    3    3    0    0  0.44795787944E+02 -0.55182655443E+02 -0.67397140474E+02  0.97949796443E+02  0.00000000000E+00 0.  1.
        -13    1    3    3    0    0  0.26181758193E+03 -0.67981491630E+02 -0.33957180195E+03  0.43414161064E+03  0.00000000000E+00 0. -1.
         22    1    1    2    0    0 -0.30661336987E+03  0.12316414707E+03  0.39647273917E+03  0.51611219576E+03  0.00000000000E+00 0. -1.
<mgrwt>
<rscale>  0 0.10481510E+04</rscale>
<asrwt>0</asrwt>
<pdfrwt beam="1">  1        1 0.79823646E-01 0.10481510E+04</pdfrwt>
<pdfrwt beam="2">  1       -1 0.81438446E-01 0.10481510E+04</pdfrwt>
<totfact> 0.63239014E+01</totfact>
</mgrwt>
</event>
<event>
 6    1  0.1773638E-005  0.2876103E+04  0.7818608E-02  0.8280023E-01
          2   -1    0    0  501    0  0.00000000000E+00  0.00000000000E+00  0.13410862518E+04  0.13410862518E+04  0.00000000000E+00 0. -1.
         -2   -1    0    0    0  501 -0.00000000000E+00 -0.00000000000E+00 -0.15420273523E+04  0.15420273523E+04  0.00000000000E+00 0.  1.
         23    2    1    2    0    0 -0.63775805507E+03  0.10675700734E+04 -0.82055421706E+03  0.14937390640E+04  0.10726588383E+03 0.  0.
         13    1    3    3    0    0 -0.45880142686E+03  0.78598986863E+03 -0.65493313006E+03  0.11212565397E+04  0.00000000000E+00 0. -1.
        -13    1    3    3    0    0 -0.17895662822E+03  0.28158020479E+03 -0.16562108700E+03  0.37248252439E+03  0.00000000000E+00 0.  1.
         22    1    1    2    0    0  0.63775805507E+03 -0.10675700734E+04  0.61961311655E+03  0.13893745401E+04  0.00000000000E+00 0. -1.
<mgrwt>
<rscale>  0 0.28761027E+04</rscale>
<asrwt>0</asrwt>
<pdfrwt beam="1">  1        2 0.20632096E+00 0.28761027E+04</pdfrwt>
<pdfrwt beam="2">  1       -2 0.23723498E+00 0.28761027E+04</pdfrwt>
<totfact> 0.10426821E+00</totfact>
</mgrwt>
</event>
<event>
 6    1  0.1773638E-005  0.2302843E+04  0.7818608E-02  0.8476801E-01
         -2   -1    0    0    0  501 -0.00000000000E+00  0.00000000000E+00  0.72112888752E+03  0.72112888752E+03  0.00000000000E+00 0.  1.
          2   -1    0    0  501    0  0.00000000000E+00 -0.00000000000E+00 -0.18384660395E+04  0.18384660395E+04  0.00000000000E+00 0. -1.
         23    2    1    2    0    0 -0.25850476287E+03  0.12272131474E+02 -0.18045862928E+04  0.18252335043E+04  0.89276757131E+02 0.  0.
         13    1    3    3    0    0 -0.19582825602E+03 -0.68948484033E+01 -0.10752956682E+04  0.10930036683E+04  0.00000000000E+00 0. -1.
        -13    1    3    3    0    0 -0.62676506854E+02  0.19166979878E+02 -0.72929062462E+03  0.73222983604E+03  0.00000000000E+00 0.  1.
         22    1    1    2    0    0  0.25850476287E+03 -0.12272131474E+02  0.68724914082E+03  0.73436142273E+03  0.00000000000E+00 0.  1.
<mgrwt>
<rscale>  0 0.23028426E+04</rscale>
<asrwt>0</asrwt>
<pdfrwt beam="1">  1        2 0.28284093E+00 0.23028426E+04</pdfrwt>
<pdfrwt beam="2">  1       -2 0.11094291E+00 0.23028426E+04</pdfrwt>
<totfact> 0.47920050E+00</totfact>
</mgrwt>
</event>
<event>
 6    1  0.1773638E-005  0.4965118E+04  0.7818608E-02  0.7833911E-01
         -1   -1    0    0    0  501 -0.00000000000E+00  0.00000000000E+00  0.18440579774E+04  0.18440579774E+04  0.00000000000E+00 0.  1.
          1   -1    0    0  501    0  0.00000000000E+00 -0.00000000000E+00 -0.33421399320E+04  0.33421399320E+04  0.00000000000E+00 0. -1.
         23    2    1    2    0    0  0.11406667632E+03 -0.75834485508E+03  0.17162144498E+04  0.18816859180E+04  0.85157090671E+02 0.  0.
         13    1    3    3    0    0  0.49662837909E+02 -0.13096672724E+03  0.27906451529E+03  0.31224299001E+03  0.00000000000E+00 0.  1.
        -13    1    3    3    0    0  0.64403838414E+02 -0.62737812784E+03  0.14371499346E+04  0.15694429280E+04  0.00000000000E+00 0. -1.
         22    1    1    2    0    0 -0.11406667632E+03  0.75834485508E+03 -0.32142964045E+04  0.33045119915E+04  0.00000000000E+00 0. -1.
<mgrwt>
<rscale>  0 0.49651182E+04</rscale>
<asrwt>0</asrwt>
<pdfrwt beam="1">  1        1 0.51417537E+00 0.49651182E+04</pdfrwt>
<pdfrwt beam="2">  1       -1 0.28370123E+00 0.49651182E+04</pdfrwt>
<totfact> 0.10103108E-02</totfact>
</mgrwt>
</event>
<event>
 6    1  0.1773638E-005  0.2275243E+04  0.7818608E-02  0.8487747E-01
         -2   -1    0    0    0  501 -0.00000000000E+00  0.00000000000E+00  0.90913591010E+03  0.90913591010E+03  0.00000000000E+00 0. -1.
          2   -1    0    0  501    0  0.00000000000E+00 -0.00000000000E+00 -0.14235310597E+04  0.14235310597E+04  0.00000000000E+00 0.  1.
         23    2    1    2    0    0  0.55295075527E+03  0.87272575804E+03  0.22598712570E+03  0.10616159480E+04  0.92484882691E+02 0.  0.
         13    1    3    3    0    0  0.41213251267E+03  0.57927267817E+03  0.13475365706E+03  0.72358039759E+03  0.00000000000E+00 0. -1.
        -13    1    3    3    0    0  0.14081824260E+03  0.29345307987E+03  0.91233468638E+02  0.33803555040E+03  0.00000000000E+00 0.  1.
         22    1    1    2    0    0 -0.55295075527E+03 -0.87272575804E+03 -0.74038227532E+03  0.12710510218E+04  0.00000000000E+00 0.  1.
<mgrwt>
<rscale>  0 0.22752435E+04</rscale>
<asrwt>0</asrwt>
<pdfrwt beam="1">  1        2 0.21900478E+00 0.22752435E+04</pdfrwt>
<pdfrwt beam="2">  1       -2 0.13986706E+00 0.22752435E+04</pdfrwt>
<totfact> 0.45894911E+00</totfact>
</mgrwt>
</event>
<event>
 6    1  0.1773638E-005  0.1327909E+04  0.7818608E-02  0.9007721E-01
         -2   -1    0    0    0  501 -0.00000000000E+00  0.00000000000E+00  0.55140623752E+03  0.55140623752E+03  0.00000000000E+00 0.  1.
          2   -1    0    0  501    0  0.00000000000E+00 -0.00000000000E+00 -0.79947545434E+03  0.79947545434E+03  0.00000000000E+00 0. -1.
         23    2    1    2    0    0 -0.30842740856E+03 -0.55106841953E+02 -0.71647000229E+03  0.78735394080E+03  0.91829916276E+02 0.  0.
         11    1    3    3    0    0 -0.48555513511E+02 -0.12698471723E+02 -0.21699976245E+03  0.22272805387E+03  0.00000000000E+00 0. -1.
        -11    1    3    3    0    0 -0.25987189505E+03 -0.42408370230E+02 -0.49947023984E+03  0.56462588692E+03  0.00000000000E+00 0.  1.
         22    1    1    2    0    0  0.30842740856E+03  0.55106841953E+02  0.46840078547E+03  0.56352775106E+03  0.00000000000E+00 0.  1.
<mgrwt>
<rscale>  0 0.13279093E+04</rscale>
<asrwt>0</asrwt>
<pdfrwt beam="1">  1        2 0.12299622E+00 0.13279093E+04</pdfrwt>
<pdfrwt beam="2">  1       -2 0.84831729E-01 0.13279093E+04</pdfrwt>
<totfact> 0.40838513E+01</totfact>
</mgrwt>
</event>
<event>
 6    1  0.1773638E-005  0.2059451E+04  0.7818608E-02  0.8579319E-01
          1   -1    0    0  501    0  0.00000000000E+00  0.00000000000E+00  0.84152255386E+03  0.84152255386E+03  0.00000000000E+00 0. -1.
         -1   -1    0    0    0  501 -0.00000000000E+00 -0.00000000000E+00 -0.12600186964E+04  0.12600186964E+04  0.00000000000E+00 0.  1.
         23    2    1    2    0    0  0.33049896075E+03  0.58870449863E+03 -0.10003829110E+04  0.12102529910E+04  0.90242916677E+02 0.  0.
         13    1    3    3    0    0  0.88160965685E+02  0.16572177531E+03 -0.35356418486E+03  0.40030450347E+03  0.00000000000E+00 0. -1.
        -13    1    3    3    0    0  0.24233799506E+03  0.42298272332E+03 -0.64681872610E+03  0.80994848757E+03  0.00000000000E+00 0.  1.
         22    1    1    2    0    0 -0.33049896075E+03 -0.58870449863E+03  0.58188676842E+03  0.89128825922E+03  0.00000000000E+00 0. -1.
<mgrwt>
<rscale>  0 0.20594506E+04</rscale>
<asrwt>0</asrwt>
<pdfrwt beam="1">  1        1 0.12946501E+00 0.20594506E+04</pdfrwt>
<pdfrwt beam="2">  1       -1 0.19384903E+00 0.20594506E+04</pdfrwt>
<totfact> 0.31203928E+00</totfact>
</mgrwt>
</event>
<event>
 6    1  0.1773638E-005  0.1042243E+04  0.7818608E-02  0.9263389E-01
          1   -1    0    0  501    0  0.00000000000E+00  0.00000000000E+00  0.70539100439E+03  0.70539100439E+03  0.00000000000E+00 0. -1.
         -1   -1    0    0    0  501 -0.00000000000E+00 -0.00000000000E+00 -0.38498883660E+03  0.38498883660E+03  0.00000000000E+00 0.  1.
         23    2    1    2    0    0 -0.10903604036E+03  0.17207068091E+03 -0.33574973805E+03  0.40333362648E+03  0.91939927810E+02 0.  0.
         13    1    3    3    0    0 -0.83992913106E+02  0.16421710384E+03 -0.23239020610E+03  0.29669390714E+03  0.00000000000E+00 0. -1.
        -13    1    3    3    0    0 -0.25043127254E+02  0.78535770685E+01 -0.10335953196E+03  0.10663971934E+03  0.00000000000E+00 0.  1.
         22    1    1    2    0    0  0.10903604036E+03 -0.17207068091E+03  0.65615190584E+03  0.68704621451E+03  0.00000000000E+00 0. -1.
<mgrwt>
<rscale>  0 0.10422431E+04</rscale>
<asrwt>0</asrwt>
<pdfrwt beam="1">  1        1 0.10852169E+00 0.10422431E+04</pdfrwt>
<pdfrwt beam="2">  1       -1 0.59229052E-01 0.10422431E+04</pdfrwt>
<totfact> 0.77823771E+01</totfact>
</mgrwt>
</event>
<event>
 6    1  0.1773638E-005  0.3496838E+04  0.7818608E-02  0.8114540E-01
          2   -1    0    0  501    0  0.00000000000E+00  0.00000000000E+00  0.28807178986E+04  0.28807178986E+04  0.00000000000E+00 0. -1.
         -2   -1    0    0    0  501 -0.00000000000E+00 -0.00000000000E+00 -0.10611832105E+04  0.10611832105E+04  0.00000000000E+00 0.  1.
         23    2    1    2    0    0  0.10360946959E+04 -0.13593157066E+04  0.13192574489E+04  0.21610280857E+04  0.91491867552E+02 0.  0.
         11    1    3    3    0    0  0.54346374358E+03 -0.74980593222E+03  0.76462066133E+03  0.12009190365E+04  0.00000000000E+00 0.  1.
        -11    1    3    3    0    0  0.49263095236E+03 -0.60950977438E+03  0.55463678753E+03  0.96010904920E+03  0.00000000000E+00 0. -1.
         22    1    1    2    0    0 -0.10360946959E+04  0.13593157066E+04  0.50027723931E+03  0.17808730234E+04  0.00000000000E+00 0.  1.
<mgrwt>
<rscale>  0 0.34968383E+04</rscale>
<asrwt>0</asrwt>
<pdfrwt beam="1">  1        2 0.44318737E+00 0.34968383E+04</pdfrwt>
<pdfrwt beam="2">  1       -2 0.16325896E+00 0.34968383E+04</pdfrwt>
<totfact> 0.40430374E-01</totfact>
</mgrwt>
</event>
<event>
 6    1  0.1773638E-005  0.1277654E+04  0.7818608E-02  0.9047476E-01
         -2   -1    0    0    0  501 -0.00000000000E+00  0.00000000000E+00  0.49239484013E+03  0.49239484013E+03  0.00000000000E+00 0.  1.
          2   -1    0    0  501    0  0.00000000000E+00 -0.00000000000E+00 -0.82880582486E+03  0.82880582486E+03  0.00000000000E+00 0. -1.
         23    2    1    2    0    0  0.31295948403E+03  0.64655728786E+02  0.39913717787E+03  0.51923115097E+03  0.90368686355E+02 0.  0.
         11    1    3    3    0    0  0.47383166610E+02 -0.22451299052E+02  0.69257054072E+02  0.86866361993E+02  0.00000000000E+00 0.  1.
        -11    1    3    3    0    0  0.26557631742E+03  0.87107027837E+02  0.32988012380E+03  0.43236478898E+03  0.00000000000E+00 0. -1.
         22    1    1    2    0    0 -0.31295948403E+03 -0.64655728786E+02 -0.73554816260E+03  0.80196951401E+03  0.00000000000E+00 0. -1.
<mgrwt>
<rscale>  0 0.12776536E+04</rscale>
<asrwt>0</asrwt>
<pdfrwt beam="1">  1        2 0.12750859E+00 0.12776536E+04</pdfrwt>
<pdfrwt beam="2">  1       -2 0.75753053E-01 0.12776536E+04</pdfrwt>
<totfact> 0.50380825E+01</totfact>
</mgrwt>
</event>
<event>
 6    1  0.1773638E-005  0.2658896E+04  0.7818608E-02  0.8348466E-01
         -1   -1    0    0    0  501 -0.00000000000E+00  0.00000000000E+00  0.13629120087E+04  0.13629120087E+04  0.00000000000E+00 0.  1.
          1   -1    0    0  501    0  0.00000000000E+00 -0.00000000000E+00 -0.12968055937E+04  0.12968055937E+04  0.00000000000E+00 0. -1.
         23    2    1    2    0    0 -0.92181304590E+03 -0.20744307929E+03 -0.90012569876E+03  0.13082826537E+04  0.92764786688E+02 0.  0.
         11    1    3    3    0    0 -0.53608908560E+02  0.18007971770E+01 -0.76333306166E+02  0.93294863619E+02  0.00000000000E+00 0.  1.
        -11    1    3    3    0    0 -0.86820413734E+03 -0.20924387647E+03 -0.82379239259E+03  0.12149877901E+04  0.00000000000E+00 0. -1.
         22    1    1    2    0    0  0.92181304590E+03  0.20744307929E+03  0.96623211375E+03  0.13514349486E+04  0.00000000000E+00 0.  1.
<mgrwt>
<rscale>  0 0.26588959E+04</rscale>
<asrwt>0</asrwt>
<pdfrwt beam="1">  1        1 0.19950855E+00 0.26588959E+04</pdfrwt>
<pdfrwt beam="2">  1       -1 0.20967877E+00 0.26588959E+04</pdfrwt>
<totfact> 0.10295667E+00</totfact>
</mgrwt>
</event>
<event>
 6    1  0.1773638E-005  0.2872818E+04  0.7818608E-02  0.8281011E-01
         -1   -1    0    0    0  501 -0.00000000000E+00  0.00000000000E+00  0.69619717198E+03  0.69619717198E+03  0.00000000000E+00 0.  1.
          1   -1    0    0  501    0  0.00000000000E+00 -0.00000000000E+00 -0.29636291296E+04  0.29636291296E+04  0.00000000000E+00 0. -1.
         23    2    1    2    0    0  0.99079202246E+03  0.73754499104E+03 -0.20426908827E+03  0.12551886010E+04  0.90172712461E+02 0.  0.
         11    1    3    3    0    0  0.89722639899E+03  0.65133490674E+03 -0.20727933066E+03  0.11279260138E+04  0.00000000000E+00 0. -1.
        -11    1    3    3    0    0  0.93565623475E+02  0.86210084294E+02  0.30102423927E+01  0.12726258716E+03  0.00000000000E+00 0.  1.
         22    1    1    2    0    0 -0.99079202246E+03 -0.73754499104E+03 -0.20631628694E+04  0.24046377006E+04  0.00000000000E+00 0. -1.
<mgrwt>
<rscale>  0 0.28728176E+04</rscale>
<asrwt>0</asrwt>
<pdfrwt beam="1">  1        1 0.45594294E+00 0.28728176E+04</pdfrwt>
<pdfrwt beam="2">  1       -1 0.10710726E+00 0.28728176E+04</pdfrwt>
<totfact> 0.44394160E-01</totfact>
</mgrwt>
</event>
<event>
 6    1  0.1773638E-005  0.2268678E+04  0.7818608E-02  0.8490374E-01
          1   -1    0    0  501    0  0.00000000000E+00  0.00000000000E+00  0.10143727821E+04  0.10143727821E+04  0.00000000000E+00 0. -1.
         -1   -1    0    0    0  501 -0.00000000000E+00 -0.00000000000E+00 -0.12684928217E+04  0.12684928217E+04  0.00000000000E+00 0.  1.
         23    2    1    2    0    0 -0.10469459405E+04  0.19953959352E+03  0.25800018236E+03  0.11004194218E+04  0.91907334593E+02 0.  0.
         11    1    3    3    0    0 -0.53562156046E+03  0.80550366729E+02  0.89044604878E+02  0.54891507473E+03  0.00000000000E+00 0.  1.
        -11    1    3    3    0    0 -0.51132438000E+03  0.11898922679E+03  0.16895557748E+03  0.55150434707E+03  0.00000000000E+00 0. -1.
         22    1    1    2    0    0  0.10469459405E+04 -0.19953959352E+03 -0.51212022196E+03  0.11824461820E+04  0.00000000000E+00 0.  1.
<mgrwt>
<rscale>  0 0.22686777E+04</rscale>
<asrwt>0</asrwt>
<pdfrwt beam="1">  1        1 0.15605735E+00 0.22686777E+04</pdfrwt>
<pdfrwt beam="2">  1       -1 0.19515274E+00 0.22686777E+04</pdfrwt>
<totfact> 0.21731960E+00</totfact>
</mgrwt>
</event>
<event>
 6    1  0.1773638E-005  0.1131992E+04  0.7818608E-02  0.9174559E-01
          1   -1    0    0  501    0  0.00000000000E+00  0.00000000000E+00  0.15140981169E+04  0.15140981169E+04  0.00000000000E+00 0. -1.
         -1   -1    0    0    0  501 -0.00000000000E+00 -0.00000000000E+00 -0.21157921718E+03  0.21157921718E+03  0.00000000000E+00 0.  1.
         23    2    1    2    0    0  0.31882597215E+03  0.22669678941E+03  0.39633666908E+02  0.40358787186E+03  0.90944532093E+02 0.  0.
         13    1    3    3    0    0  0.16678212714E+03  0.17173871432E+03  0.13108038810E+02  0.23975463418E+03  0.00000000000E+00 0. -1.
        -13    1    3    3    0    0  0.15204384502E+03  0.54958075083E+02  0.26525628098E+02  0.16383323768E+03  0.00000000000E+00 0.  1.
         22    1    1    2    0    0 -0.31882597215E+03 -0.22669678941E+03  0.12628852328E+04  0.13220894622E+04  0.00000000000E+00 0. -1.
<mgrwt>
<rscale>  0 0.11319924E+04</rscale>
<asrwt>0</asrwt>
<pdfrwt beam="1">  1        1 0.23293816E+00 0.11319924E+04</pdfrwt>
<pdfrwt beam="2">  1       -1 0.32550650E-01 0.11319924E+04</pdfrwt>
<totfact> 0.56169670E+01</totfact>
</mgrwt>
</event>
<event>
 6    1  0.1773638E-005  0.7749226E+03  0.7818608E-02  0.9597042E-01
         -2   -1    0    0    0  501 -0.00000000000E+00  0.00000000000E+00  0.42240133277E+03  0.42240133277E+03  0.00000000000E+00 0.  1.
          2   -1    0    0  501    0  0.00000000000E+00 -0.00000000000E+00 -0.35541138290E+03  0.35541138290E+03  0.00000000000E+00 0. -1.
         23    2    1    2    0    0 -0.11539041420E+03 -0.36066550811E+03 -0.18546692922E+02  0.38959747422E+03  0.89708726831E+02 0.  0.
         11    1    3    3    0    0 -0.23723537275E+02 -0.19104043633E+03 -0.36559003226E+02  0.19594850153E+03  0.00000000000E+00 0.  1.
        -11    1    3    3    0    0 -0.91666876928E+02 -0.16962507178E+03  0.18012310304E+02  0.19364897269E+03  0.00000000000E+00 0. -1.
         22    1    1    2    0    0  0.11539041420E+03  0.36066550811E+03  0.85536642791E+02  0.38821524144E+03  0.00000000000E+00 0.  1.
<mgrwt>
<rscale>  0 0.77492256E+03</rscale>
<asrwt>0</asrwt>
<pdfrwt beam="1">  1        2 0.54678675E-01 0.77492256E+03</pdfrwt>
<pdfrwt beam="2">  1       -2 0.64984820E-01 0.77492256E+03</pdfrwt>
<totfact> 0.20007347E+02</totfact>
</mgrwt>
</event>
<event>
 6    1  0.1773638E-005  0.3453175E+04  0.7818608E-02  0.8124977E-01
         -1   -1    0    0    0  501 -0.00000000000E+00  0.00000000000E+00  0.19358029842E+04  0.19358029842E+04  0.00000000000E+00 0.  1.
          1   -1    0    0  501    0  0.00000000000E+00 -0.00000000000E+00 -0.15399837761E+04  0.15399837761E+04  0.00000000000E+00 0. -1.
         23    2    1    2    0    0  0.13681063749E+04  0.10231025781E+04 -0.45489516232E+02  0.17113584312E+04  0.90688728592E+02 0.  0.
         13    1    3    3    0    0  0.12984228004E+04  0.95960545146E+03 -0.61604970050E+02  0.16157164242E+04  0.00000000000E+00 0.  1.
        -13    1    3    3    0    0  0.69683574478E+02  0.63497126645E+02  0.16115453818E+02  0.95642006963E+02  0.00000000000E+00 0. -1.
         22    1    1    2    0    0 -0.13681063749E+04 -0.10231025781E+04  0.44130872431E+03  0.17644283291E+04  0.00000000000E+00 0.  1.
<mgrwt>
<rscale>  0 0.34531755E+04</rscale>
<asrwt>0</asrwt>
<pdfrwt beam="1">  1        1 0.23692058E+00 0.34531755E+04</pdfrwt>
<pdfrwt beam="2">  1       -1 0.29781584E+00 0.34531755E+04</pdfrwt>
<totfact> 0.17149772E-01</totfact>
</mgrwt>
</event>
<event>
 6    1  0.1773638E-005  0.1632606E+04  0.7818608E-02  0.8800764E-01
          2   -1    0    0  501    0  0.00000000000E+00  0.00000000000E+00  0.46113685891E+03  0.46113685891E+03  0.00000000000E+00 0. -1.
         -2   -1    0    0    0  501 -0.00000000000E+00 -0.00000000000E+00 -0.14450162979E+04  0.14450162979E+04  0.00000000000E+00 0.  1.
         23    2    1    2    0    0 -0.80442562451E+03 -0.12101356515E+03 -0.50151937638E+03  0.96041741238E+03  0.95577470150E+02 0.  0.
         11    1    3    3    0    0 -0.62134502375E+03 -0.69675664619E+02 -0.34478429798E+03  0.71400318551E+03  0.00000000000E+00 0. -1.
        -11    1    3    3    0    0 -0.18308060076E+03 -0.51337900529E+02 -0.15673507840E+03  0.24641422687E+03  0.00000000000E+00 0.  1.
         22    1    1    2    0    0  0.80442562451E+03  0.12101356515E+03 -0.48236006265E+03  0.94573574446E+03  0.00000000000E+00 0.  1.
<mgrwt>
<rscale>  0 0.16326056E+04</rscale>
<asrwt>0</asrwt>
<pdfrwt beam="1">  1        2 0.70944133E-01 0.16326056E+04</pdfrwt>
<pdfrwt beam="2">  1       -2 0.22231020E+00 0.16326056E+04</pdfrwt>
<totfact> 0.61775230E+00</totfact>
</mgrwt>
</event>
<event>
 6    1  0.1773638E-005  0.2067794E+04  0.7818608E-02  0.8575565E-01
         -2   -1    0    0    0  501 -0.00000000000E+00  0.00000000000E+00  0.59859187862E+03  0.59859187862E+03  0.00000000000E+00 0. -1.
          2   -1    0    0  501    0  0.00000000000E+00 -0.00000000000E+00 -0.17857617859E+04  0.17857617859E+04  0.00000000000E+00 0.  1.
         23    2    1    2    0    0 -0.61963499828E+03  0.65550379273E+03 -0.17155446923E+02  0.90700245684E+03  0.93415169961E+02 0.  0.
         13    1    3    3    0    0 -0.20423368440E+03  0.17427036714E+03  0.26484713984E+02  0.26978324407E+03  0.00000000000E+00 0.  1.
        -13    1    3    3    0    0 -0.41540131388E+03  0.48123342559E+03 -0.43640160907E+02  0.63721921277E+03  0.00000000000E+00 0. -1.
         22    1    1    2    0    0  0.61963499828E+03 -0.65550379273E+03 -0.11700144603E+04  0.14773512077E+04  0.00000000000E+00 0.  1.
<mgrwt>
<rscale>  0 0.20677935E+04</rscale>
<asrwt>0</asrwt>
<pdfrwt beam="1">  1        2 0.27473258E+00 0.20677935E+04</pdfrwt>
<pdfrwt beam="2">  1       -2 0.92091060E-01 0.20677935E+04</pdfrwt>
<totfact> 0.81358082E+00</totfact>
</mgrwt>
</event>
<event>
 6    1  0.1773638E-005  0.1556397E+04  0.7818608E-02  0.8847792E-01
         -1   -1    0    0    0  501 -0.00000000000E+00  0.00000000000E+00  0.10574514149E+04  0.10574514149E+04  0.00000000000E+00 0.  1.
          1   -1    0    0  501    0  0.00000000000E+00 -0.00000000000E+00 -0.57269085309E+03  0.57269085309E+03  0.00000000000E+00 0. -1.
         23    2    1    2    0    0  0.25746296268E+02 -0.99148239876E+02  0.10484015325E+04  0.10572684694E+04  0.90430070826E+02 0.  0.
         11    1    3    3    0    0 -0.24662833122E+02 -0.99242108529E+01  0.10483676755E+03  0.10815494963E+03  0.00000000000E+00 0.  1.
        -11    1    3    3    0    0  0.50409129390E+02 -0.89224029023E+02  0.94356476497E+03  0.94911351975E+03  0.00000000000E+00 0. -1.
         22    1    1    2    0    0 -0.25746296268E+02  0.99148239876E+02 -0.56364097072E+03  0.57287379860E+03  0.00000000000E+00 0. -1.
<mgrwt>
<rscale>  0 0.15563968E+04</rscale>
<asrwt>0</asrwt>
<pdfrwt beam="1">  1        1 0.88106285E-01 0.15563968E+04</pdfrwt>
<pdfrwt beam="2">  1       -1 0.16268483E+00 0.15563968E+04</pdfrwt>
<totfact> 0.98357115E+00</totfact>
</mgrwt>
</event>
<event>
 6    1  0.1773638E-005  0.1169509E+04  0.7818608E-02  0.9139972E-01
          2   -1    0    0  501    0  0.00000000000E+00  0.00000000000E+00  0.12718914905E+04  0.12718914905E+04  0.00000000000E+00 0.  1.
         -2   -1    0    0    0  501 -0.00000000000E+00 -0.00000000000E+00 -0.26884184066E+03  0.26884184066E+03  0.00000000000E+00 0. -1.
         23    2    1    2    0    0  0.54121673457E+03 -0.20959559728E+03  0.47645954183E+03  0.75706056141E+03  0.96338623935E+02 0.  0.
         11    1    3    3    0    0  0.21132737011E+03 -0.37609662368E+02  0.14740021515E+03  0.26038542103E+03  0.00000000000E+00 0. -1.
        -11    1    3    3    0    0  0.32988936446E+03 -0.17198593491E+03  0.32905932667E+03  0.49667514037E+03  0.00000000000E+00 0.  1.
         22    1    1    2    0    0 -0.54121673457E+03  0.20959559728E+03  0.52659010798E+03  0.78367276972E+03  0.00000000000E+00 0. -1.
<mgrwt>
<rscale>  0 0.11695087E+04</rscale>
<asrwt>0</asrwt>
<pdfrwt beam="1">  1        2 0.19567561E+00 0.11695087E+04</pdfrwt>
<pdfrwt beam="2">  1       -2 0.41360284E-01 0.11695087E+04</pdfrwt>
<totfact> 0.93948054E+01</totfact>
</mgrwt>
</event>
<event>
 6    1  0.1773638E-005  0.4286584E+04  0.7818608E-02  0.7949103E-01
         -2   -1    0    0    0  501 -0.00000000000E+00  0.00000000000E+00  0.13327831616E+04  0.13327831616E+04  0.00000000000E+00 0.  1.
          2   -1    0    0  501    0  0.00000000000E+00 -0.00000000000E+00 -0.34466978517E+04  0.34466978517E+04  0.00000000000E+00 0. -1.
         23    2    1    2    0    0  0.17258513030E+04  0.11798908120E+04 -0.53544904450E+03  0.21598896630E+04  0.87821573964E+02 0.  0.
         13    1    3    3    0    0  0.10397174847E+04  0.75850174772E+03 -0.31221782315E+03  0.13243176803E+04  0.00000000000E+00 0. -1.
        -13    1    3    3    0    0  0.68613381821E+03  0.42138906427E+03 -0.22323122135E+03  0.83557198264E+03  0.00000000000E+00 0.  1.
         22    1    1    2    0    0 -0.17258513030E+04 -0.11798908120E+04 -0.15784656457E+04  0.26195913503E+04  0.00000000000E+00 0. -1.
<mgrwt>
<rscale>  0 0.42865841E+04</rscale>
<asrwt>0</asrwt>
<pdfrwt beam="1">  1        2 0.53026121E+00 0.42865841E+04</pdfrwt>
<pdfrwt beam="2">  1       -2 0.20504356E+00 0.42865841E+04</pdfrwt>
<totfact> 0.84005927E-02</totfact>
</mgrwt>
</event>
<event>
 6    1  0.1773638E-005  0.1545619E+04  0.7818608E-02  0.8854671E-01
          2   -1    0    0  501    0  0.00000000000E+00  0.00000000000E+00  0.55635609104E+03  0.55635609104E+03  0.00000000000E+00 0. -1.
         -2   -1    0    0    0  501 -0.00000000000E+00 -0.00000000000E+00 -0.10734759637E+04  0.10734759637E+04  0.00000000000E+00 0.  1.
         23    2    1    2    0    0  0.18033333399E+03  0.51189972587E+02  0.52797342419E+03  0.56805970448E+03  0.93783615661E+02 0.  0.
         11    1    3    3    0    0  0.49724690294E+02 -0.25847635799E+02  0.11046486383E+03  0.12386739378E+03  0.00000000000E+00 0. -1.
        -11    1    3    3    0    0  0.13060864370E+03  0.77037608386E+02  0.41750856035E+03  0.44419231070E+03  0.00000000000E+00 0.  1.
         22    1    1    2    0    0 -0.18033333399E+03 -0.51189972587E+02 -0.10450932968E+04  0.10617723502E+04  0.00000000000E+00 0.  1.
<mgrwt>
<rscale>  0 0.15456195E+04</rscale>
<asrwt>0</asrwt>
<pdfrwt beam="1">  1        2 0.85593245E-01 0.15456195E+04</pdfrwt>
<pdfrwt beam="2">  1       -2 0.16515015E+00 0.15456195E+04</pdfrwt>
<totfact> 0.12064280E+01</totfact>
</mgrwt>
</event>
<event>
 6    1  0.1773638E-005  0.1083283E+04  0.7818608E-02  0.9221640E-01
         -2   -1    0    0    0  501 -0.00000000000E+00  0.00000000000E+00  0.56173643510E+03  0.56173643510E+03  0.00000000000E+00 0.  1.
          2   -1    0    0  501    0  0.00000000000E+00 -0.00000000000E+00 -0.52226579664E+03  0.52226579664E+03  0.00000000000E+00 0. -1.
         23    2    1    2    0    0  0.53456799131E+03  0.37199049481E+02  0.65605744300E+02  0.54750456132E+03  0.91161528945E+02 0.  0.
         11    1    3    3    0    0  0.29767600048E+03 -0.21706546270E+02  0.52487941559E+02  0.30304646413E+03  0.00000000000E+00 0. -1.
        -11    1    3    3    0    0  0.23689199083E+03  0.58905595751E+02  0.13117802741E+02  0.24445809719E+03  0.00000000000E+00 0.  1.
         22    1    1    2    0    0 -0.53456799131E+03 -0.37199049481E+02 -0.26135105842E+02  0.53649767043E+03  0.00000000000E+00 0. -1.
<mgrwt>
<rscale>  0 0.10832834E+04</rscale>
<asrwt>0</asrwt>
<pdfrwt beam="1">  1        2 0.80348584E-01 0.10832834E+04</pdfrwt>
<pdfrwt beam="2">  1       -2 0.86420990E-01 0.10832834E+04</pdfrwt>
<totfact> 0.67510877E+01</totfact>
</mgrwt>
</event>
<event>
 6    1  0.1773638E-005  0.1443443E+04  0.7818608E-02  0.8922959E-01
         -3   -1    0    0    0  501 -0.00000000000E+00  0.00000000000E+00  0.79059891579E+03  0.79059891579E+03  0.00000000000E+00 0.  1.
          3   -1    0    0  501    0  0.00000000000E+00 -0.00000000000E+00 -0.65884517860E+03  0.65884517860E+03  0.00000000000E+00 0. -1.
         23    2    1    2    0    0  0.70927383177E+03  0.20781351958E+02  0.17504152823E+03  0.73854672776E+03  0.10635083192E+03 0.  0.
         11    1    3    3    0    0  0.10958791299E+03  0.37059213806E+02  0.48496216882E+02  0.12543834762E+03  0.00000000000E+00 0. -1.
        -11    1    3    3    0    0  0.59968591879E+03 -0.16277861848E+02  0.12654531134E+03  0.61310838014E+03  0.00000000000E+00 0.  1.
         22    1    1    2    0    0 -0.70927383177E+03 -0.20781351958E+02 -0.43287791039E+02  0.71089736663E+03  0.00000000000E+00 0.  1.
<mgrwt>
<rscale>  0 0.14434435E+04</rscale>
<asrwt>0</asrwt>
<pdfrwt beam="1">  1        3 0.10136080E+00 0.14434435E+04</pdfrwt>
<pdfrwt beam="2">  1       -3 0.12163060E+00 0.14434435E+04</pdfrwt>
<totfact> 0.11785505E+00</totfact>
</mgrwt>
</event>
<event>
 6    1  0.1773638E-005  0.3399446E+04  0.7818608E-02  0.8138042E-01
          1   -1    0    0  501    0  0.00000000000E+00  0.00000000000E+00  0.37507475431E+04  0.37507475431E+04  0.00000000000E+00 0. -1.
         -1   -1    0    0    0  501 -0.00000000000E+00 -0.00000000000E+00 -0.77026215137E+03  0.77026215137E+03  0.00000000000E+00 0.  1.
         23    2    1    2    0    0  0.18873767425E+02  0.15477754137E+04  0.56147895742E+03  0.16491536605E+04  0.92109858718E+02 0.  0.
         11    1    3    3    0    0 -0.11633011047E+02  0.43908917449E+03  0.19994883825E+03  0.48261181918E+03  0.00000000000E+00 0.  1.
        -11    1    3    3    0    0  0.30506778471E+02  0.11086862392E+04  0.36153011917E+03  0.11665418414E+04  0.00000000000E+00 0. -1.
         22    1    1    2    0    0 -0.18873767425E+02 -0.15477754137E+04  0.24190064343E+04  0.28718560339E+04  0.00000000000E+00 0. -1.
<mgrwt>
<rscale>  0 0.33994464E+04</rscale>
<asrwt>0</asrwt>
<pdfrwt beam="1">  1        1 0.57703807E+00 0.33994464E+04</pdfrwt>
<pdfrwt beam="2">  1       -1 0.11850187E+00 0.33994464E+04</pdfrwt>
<totfact> 0.82140902E-02</totfact>
</mgrwt>
</event>
<event>
 6    1  0.1773638E-005  0.1588422E+04  0.7818608E-02  0.8827693E-01
          2   -1    0    0  501    0  0.00000000000E+00  0.00000000000E+00  0.14114611601E+04  0.14114611601E+04  0.00000000000E+00 0. -1.
         -2   -1    0    0    0  501 -0.00000000000E+00 -0.00000000000E+00 -0.44689231903E+03  0.44689231903E+03  0.00000000000E+00 0.  1.
         23    2    1    2    0    0  0.55667388581E+03  0.43103416003E+03  0.90734888688E+03  0.11519892775E+04  0.90116760891E+02 0.  0.
         13    1    3    3    0    0  0.20570717535E+03  0.20865305094E+03  0.34129070779E+03  0.44981205506E+03  0.00000000000E+00 0. -1.
        -13    1    3    3    0    0  0.35096671046E+03  0.22238110910E+03  0.56605817909E+03  0.70217722239E+03  0.00000000000E+00 0.  1.
         22    1    1    2    0    0 -0.55667388581E+03 -0.43103416003E+03  0.57219954201E+02  0.70636420168E+03  0.00000000000E+00 0.  1.
<mgrwt>
<rscale>  0 0.15884220E+04</rscale>
<asrwt>0</asrwt>
<pdfrwt beam="1">  1        2 0.21714787E+00 0.15884220E+04</pdfrwt>
<pdfrwt beam="2">  1       -2 0.68752665E-01 0.15884220E+04</pdfrwt>
<totfact> 0.26447247E+01</totfact>
</mgrwt>
</event>
<event>
 6    1  0.1773638E-005  0.3968239E+04  0.7818608E-02  0.8010985E-01
         -2   -1    0    0    0  501 -0.00000000000E+00  0.00000000000E+00  0.28251529720E+04  0.28251529720E+04  0.00000000000E+00 0.  1.
          2   -1    0    0  501    0  0.00000000000E+00 -0.00000000000E+00 -0.13934571111E+04  0.13934571111E+04  0.00000000000E+00 0. -1.
         23    2    1    2    0    0 -0.14585477983E+04  0.11828473392E+04  0.38736546537E+02  0.18804858007E+04  0.90756921166E+02 0.  0.
         13    1    3    3    0    0 -0.40755721368E+03  0.37092786185E+03  0.38243362181E+02  0.55240647703E+03  0.00000000000E+00 0.  1.
        -13    1    3    3    0    0 -0.10509905847E+04  0.81191947740E+03  0.49318435605E+00  0.13280793237E+04  0.00000000000E+00 0. -1.
         22    1    1    2    0    0  0.14585477983E+04 -0.11828473392E+04  0.13929593144E+04  0.23381242824E+04  0.00000000000E+00 0.  1.
<mgrwt>
<rscale>  0 0.39682387E+04</rscale>
<asrwt>0</asrwt>
<pdfrwt beam="1">  1        2 0.21437802E+00 0.39682387E+04</pdfrwt>
<pdfrwt beam="2">  1       -2 0.43463892E+00 0.39682387E+04</pdfrwt>
<totfact> 0.50625694E-02</totfact>
</mgrwt>
</event>
<event>
 6    1  0.1773638E-005  0.7852965E+03  0.7818608E-02  0.9581547E-01
         -2   -1    0    0    0  501 -0.00000000000E+00  0.00000000000E+00  0.10949473968E+04  0.10949473968E+04  0.00000000000E+00 0.  1.
          2   -1    0    0  501    0  0.00000000000E+00 -0.00000000000E+00 -0.14080370057E+03  0.14080370057E+03  0.00000000000E+00 0. -1.
         23    2    1    2    0    0 -0.57164132604E+02  0.32463860630E+03  0.17329030276E+03  0.38817220142E+03  0.10949961721E+03 0.  0.
         11    1    3    3    0    0  0.29497858857E+02  0.10258137671E+03  0.33668727980E+02  0.11192249894E+03  0.00000000000E+00 0. -1.
        -11    1    3    3    0    0 -0.86661991461E+02  0.22205722958E+03  0.13962157478E+03  0.27624970248E+03  0.00000000000E+00 0.  1.
         22    1    1    2    0    0  0.57164132604E+02 -0.32463860630E+03  0.78085339344E+03  0.84757889592E+03  0.00000000000E+00 0.  1.
<mgrwt>
<rscale>  0 0.78529649E+03</rscale>
<asrwt>0</asrwt>
<pdfrwt beam="1">  1        2 0.21662109E-01 0.78529649E+03</pdfrwt>
<pdfrwt beam="2">  1       -2 0.16845344E+00 0.78529649E+03</pdfrwt>
<totfact> 0.57178628E+01</totfact>
</mgrwt>
</event>
<event>
 6    1  0.1773638E-005  0.4984111E+04  0.7818608E-02  0.7830963E-01
          2   -1    0    0  501    0  0.00000000000E+00  0.00000000000E+00  0.28232951733E+04  0.28232951733E+04  0.00000000000E+00 0. -1.
         -2   -1    0    0    0  501 -0.00000000000E+00 -0.00000000000E+00 -0.21996777963E+04  0.21996777963E+04  0.00000000000E+00 0.  1.
         23    2    1    2    0    0 -0.24901601719E+03  0.49711957531E+03 -0.21353787656E+04  0.22085109315E+04  0.92418683721E+02 0.  0.
         13    1    3    3    0    0 -0.50240187045E+02  0.19512706879E+03 -0.81359344480E+03  0.83817238250E+03  0.00000000000E+00 0. -1.
        -13    1    3    3    0    0 -0.19877583015E+03  0.30199250652E+03 -0.13217853208E+04  0.13703385490E+04  0.00000000000E+00 0.  1.
         22    1    1    2    0    0  0.24901601719E+03 -0.49711957531E+03  0.27589961426E+04  0.28144620381E+04  0.00000000000E+00 0. -1.
<mgrwt>
<rscale>  0 0.49841106E+04</rscale>
<asrwt>0</asrwt>
<pdfrwt beam="1">  1        2 0.43435310E+00 0.49841106E+04</pdfrwt>
<pdfrwt beam="2">  1       -2 0.33841197E+00 0.49841106E+04</pdfrwt>
<totfact> 0.30012287E-02</totfact>
</mgrwt>
</event>
<event>
 6    1  0.1773638E-005  0.3254693E+04  0.7818608E-02  0.8174520E-01
          2   -1    0    0  501    0  0.00000000000E+00  0.00000000000E+00  0.14794702162E+04  0.14794702162E+04  0.00000000000E+00 0. -1.
         -2   -1    0    0    0  501 -0.00000000000E+00 -0.00000000000E+00 -0.17900035164E+04  0.17900035164E+04  0.00000000000E+00 0.  1.
         23    2    1    2    0    0 -0.54816204233E+02 -0.61400496556E+03 -0.16669022416E+04  0.17795933282E+04  0.91555539888E+02 0.  0.
         13    1    3    3    0    0 -0.21466708338E+02 -0.48453076203E+03 -0.12116906986E+04  0.13051533351E+04  0.00000000000E+00 0. -1.
        -13    1    3    3    0    0 -0.33349495895E+02 -0.12947420353E+03 -0.45521154300E+03  0.47443999319E+03  0.00000000000E+00 0.  1.
         22    1    1    2    0    0  0.54816204233E+02  0.61400496556E+03  0.13563689414E+04  0.14898804044E+04  0.00000000000E+00 0. -1.
<mgrwt>
<rscale>  0 0.32546932E+04</rscale>
<asrwt>0</asrwt>
<pdfrwt beam="1">  1        2 0.22761080E+00 0.32546932E+04</pdfrwt>
<pdfrwt beam="2">  1       -2 0.27538516E+00 0.32546932E+04</pdfrwt>
<totfact> 0.49108883E-01</totfact>
</mgrwt>
</event>
<event>
 6    1  0.1773638E-005  0.9436276E+03  0.7818608E-02  0.9372630E-01
          2   -1    0    0  501    0  0.00000000000E+00  0.00000000000E+00  0.13461118340E+03  0.13461118340E+03  0.00000000000E+00 0. -1.
         -2   -1    0    0    0  501 -0.00000000000E+00 -0.00000000000E+00 -0.16537130110E+04  0.16537130110E+04  0.00000000000E+00 0.  1.
         23    2    1    2    0    0 -0.32585578264E+03 -0.29473867615E+03 -0.46456727280E+03  0.64591620881E+03  0.91280444469E+02 0.  0.
         11    1    3    3    0    0 -0.66526768969E+02 -0.28387200642E+02 -0.11358600946E+03  0.13466040879E+03  0.00000000000E+00 0.  1.
        -11    1    3    3    0    0 -0.25932901367E+03 -0.26635147551E+03 -0.35098126334E+03  0.51125580002E+03  0.00000000000E+00 0. -1.
         22    1    1    2    0    0  0.32585578264E+03  0.29473867615E+03 -0.10545345547E+04  0.11424079856E+04  0.00000000000E+00 0. -1.
<mgrwt>
<rscale>  0 0.94362761E+03</rscale>
<asrwt>0</asrwt>
<pdfrwt beam="1">  1        2 0.20709413E-01 0.94362761E+03</pdfrwt>
<pdfrwt beam="2">  1       -2 0.25441739E+00 0.94362761E+03</pdfrwt>
<totfact> 0.16661123E+01</totfact>
</mgrwt>
</event>
<event>
 6    1  0.1773638E-005  0.2587152E+04  0.7818608E-02  0.8372579E-01
         -2   -1    0    0    0  501 -0.00000000000E+00  0.00000000000E+00  0.12216939313E+04  0.12216939313E+04  0.00000000000E+00 0. -1.
          2   -1    0    0  501    0  0.00000000000E+00 -0.00000000000E+00 -0.13696872540E+04  0.13696872540E+04  0.00000000000E+00 0.  1.
         23    2    1    2    0    0 -0.69511059776E+03 -0.10664314974E+03 -0.11596047299E+04  0.13593466306E+04  0.92674850609E+02 0.  0.
         13    1    3    3    0    0 -0.51103924101E+03 -0.11906430343E+03 -0.86826218186E+03  0.10145031447E+04  0.00000000000E+00 0.  1.
        -13    1    3    3    0    0 -0.18407135675E+03  0.12421153686E+02 -0.29134254809E+03  0.34484348589E+03  0.00000000000E+00 0. -1.
         22    1    1    2    0    0  0.69511059776E+03  0.10664314974E+03  0.10116114072E+04  0.12320345546E+04  0.00000000000E+00 0. -1.
<mgrwt>
<rscale>  0 0.25871518E+04</rscale>
<asrwt>0</asrwt>
<pdfrwt beam="1">  1        2 0.21072111E+00 0.25871518E+04</pdfrwt>
<pdfrwt beam="2">  1       -2 0.18795291E+00 0.25871518E+04</pdfrwt>
<totfact> 0.21342743E+00</totfact>
</mgrwt>
</event>
<event>
 6    1  0.1773638E-005  0.4038925E+04  0.7818608E-02  0.7996740E-01
          2   -1    0    0  501    0  0.00000000000E+00  0.00000000000E+00  0.38183083381E+04  0.38183083381E+04  0.00000000000E+00 0. -1.
         -2   -1    0    0    0  501 -0.00000000000E+00 -0.00000000000E+00 -0.10680719189E+04  0.10680719189E+04  0.00000000000E+00 0.  1.
         23    2    1    2    0    0  0.16711774074E+04 -0.83575051434E+03  0.45246258915E+03  0.19247797736E+04  0.93498305465E+02 0.  0.
         11    1    3    3    0    0  0.78197997881E+03 -0.43224699775E+03  0.24574556602E+03  0.92667202264E+03  0.00000000000E+00 0. -1.
        -11    1    3    3    0    0  0.88919742862E+03 -0.40350351659E+03  0.20671702313E+03  0.99810775100E+03  0.00000000000E+00 0.  1.
         22    1    1    2    0    0 -0.16711774074E+04  0.83575051434E+03  0.22977738300E+04  0.29616004834E+04  0.00000000000E+00 0. -1.
<mgrwt>
<rscale>  0 0.40389246E+04</rscale>
<asrwt>0</asrwt>
<pdfrwt beam="1">  1        2 0.58743204E+00 0.40389246E+04</pdfrwt>
<pdfrwt beam="2">  1       -2 0.16431876E+00 0.40389246E+04</pdfrwt>
<totfact> 0.87321637E-02</totfact>
</mgrwt>
</event>
<event>
 6    1  0.1773638E-005  0.1161439E+04  0.7818608E-02  0.9147295E-01
          1   -1    0    0  501    0  0.00000000000E+00  0.00000000000E+00  0.43636519719E+03  0.43636519719E+03  0.00000000000E+00 0. -1.
         -1   -1    0    0    0  501 -0.00000000000E+00 -0.00000000000E+00 -0.77282807961E+03  0.77282807961E+03  0.00000000000E+00 0.  1.
         23    2    1    2    0    0 -0.34148381251E+03 -0.24861078976E+03 -0.57851742312E+03  0.72235765807E+03  0.93271958981E+02 0.  0.
         11    1    3    3    0    0 -0.23664320963E+03 -0.16816545310E+03 -0.46481858514E+03  0.54802914647E+03  0.00000000000E+00 0.  1.
        -11    1    3    3    0    0 -0.10484060288E+03 -0.80445336656E+02 -0.11369883798E+03  0.17432851160E+03  0.00000000000E+00 0. -1.
         22    1    1    2    0    0  0.34148381251E+03  0.24861078976E+03  0.24205454071E+03  0.48683561873E+03  0.00000000000E+00 0. -1.
<mgrwt>
<rscale>  0 0.11614392E+04</rscale>
<asrwt>0</asrwt>
<pdfrwt beam="1">  1        1 0.67133108E-01 0.11614392E+04</pdfrwt>
<pdfrwt beam="2">  1       -1 0.11889663E+00 0.11614392E+04</pdfrwt>
<totfact> 0.33560238E+01</totfact>
</mgrwt>
</event>
<event>
 6    1  0.1773638E-005  0.2134235E+04  0.7818608E-02  0.8546311E-01
          2   -1    0    0  501    0  0.00000000000E+00  0.00000000000E+00  0.25008166066E+04  0.25008166066E+04  0.00000000000E+00 0. -1.
         -2   -1    0    0    0  501 -0.00000000000E+00 -0.00000000000E+00 -0.45534716635E+03  0.45534716635E+03  0.00000000000E+00 0.  1.
         23    2    1    2    0    0  0.71629920419E+03  0.10920150313E+03  0.21062371076E+04  0.22290446441E+04  0.85998568035E+02 0.  0.
         11    1    3    3    0    0  0.48305124752E+03  0.67405695460E+02  0.15344969157E+04  0.16101437265E+04  0.00000000000E+00 0.  1.
        -11    1    3    3    0    0  0.23324795667E+03  0.41795807668E+02  0.57174019190E+03  0.61890091764E+03  0.00000000000E+00 0. -1.
         22    1    1    2    0    0 -0.71629920419E+03 -0.10920150313E+03 -0.60767667332E+02  0.72711912889E+03  0.00000000000E+00 0.  1.
<mgrwt>
<rscale>  0 0.21342350E+04</rscale>
<asrwt>0</asrwt>
<pdfrwt beam="1">  1        2 0.38474101E+00 0.21342350E+04</pdfrwt>
<pdfrwt beam="2">  1       -2 0.70053412E-01 0.21342350E+04</pdfrwt>
<totfact> 0.59318126E+00</totfact>
</mgrwt>
</event>
<event>
 6    1  0.1773638E-005  0.2318783E+04  0.7818608E-02  0.8470552E-01
          2   -1    0    0  501    0  0.00000000000E+00  0.00000000000E+00  0.21106742519E+04  0.21106742519E+04  0.00000000000E+00 0. -1.
         -2   -1    0    0    0  501 -0.00000000000E+00 -0.00000000000E+00 -0.63685286898E+03  0.63685286898E+03  0.00000000000E+00 0.  1.
         23    2    1    2    0    0 -0.94841753723E+03  0.45935656668E+03  0.17024918291E+03  0.10712798954E+04  0.90285933177E+02 0.  0.
         13    1    3    3    0    0 -0.77445067046E+03  0.40393335742E+03  0.11819694477E+03  0.88142300626E+03  0.00000000000E+00 0. -1.
        -13    1    3    3    0    0 -0.17396686677E+03  0.55423209263E+02  0.52052238142E+02  0.18985688914E+03  0.00000000000E+00 0.  1.
         22    1    1    2    0    0  0.94841753723E+03 -0.45935656668E+03  0.13035722000E+04  0.16762472255E+04  0.00000000000E+00 0. -1.
<mgrwt>
<rscale>  0 0.23187833E+04</rscale>
<asrwt>0</asrwt>
<pdfrwt beam="1">  1        2 0.32471911E+00 0.23187833E+04</pdfrwt>
<pdfrwt beam="2">  1       -2 0.97977365E-01 0.23187833E+04</pdfrwt>
<totfact> 0.45474250E+00</totfact>
</mgrwt>
</event>
<event>
 6    1  0.1773638E-005  0.1594794E+04  0.7818608E-02  0.8823753E-01
          2   -1    0    0  501    0  0.00000000000E+00  0.00000000000E+00  0.72141071319E+03  0.72141071319E+03  0.00000000000E+00 0. -1.
         -2   -1    0    0    0  501 -0.00000000000E+00 -0.00000000000E+00 -0.88138656639E+03  0.88138656639E+03  0.00000000000E+00 0.  1.
         23    2    1    2    0    0 -0.12873297396E+03 -0.63901156369E+03 -0.53715690286E+03  0.84968805687E+03  0.92327128162E+02 0.  0.
         11    1    3    3    0    0 -0.61700881935E+00 -0.16982902952E+03 -0.10968323187E+03  0.20216995652E+03  0.00000000000E+00 0. -1.
        -11    1    3    3    0    0 -0.12811596514E+03 -0.46918253417E+03 -0.42747367099E+03  0.64751810035E+03  0.00000000000E+00 0.  1.
         22    1    1    2    0    0  0.12873297396E+03  0.63901156369E+03  0.37718104965E+03  0.75310922271E+03  0.00000000000E+00 0. -1.
<mgrwt>
<rscale>  0 0.15947937E+04</rscale>
<asrwt>0</asrwt>
<pdfrwt beam="1">  1        2 0.11098626E+00 0.15947937E+04</pdfrwt>
<pdfrwt beam="2">  1       -2 0.13559793E+00 0.15947937E+04</pdfrwt>
<totfact> 0.14749257E+01</totfact>
</mgrwt>
</event>
<event>
 6    1  0.1773638E-005  0.3712444E+04  0.7818608E-02  0.8065210E-01
         -2   -1    0    0    0  501 -0.00000000000E+00  0.00000000000E+00  0.88702892497E+03  0.88702892497E+03  0.00000000000E+00 0.  1.
          2   -1    0    0  501    0  0.00000000000E+00 -0.00000000000E+00 -0.38843821698E+04  0.38843821698E+04  0.00000000000E+00 0. -1.
         23    2    1    2    0    0 -0.18000846392E+04 -0.33223190236E+02 -0.20743926255E+04  0.27482292459E+04  0.90833554200E+02 0.  0.
         13    1    3    3    0    0 -0.80654861718E+03 -0.50351827850E+02 -0.97315142786E+03  0.12649425600E+04  0.00000000000E+00 0. -1.
        -13    1    3    3    0    0 -0.99353602206E+03  0.17128637614E+02 -0.11012411976E+04  0.14832866859E+04  0.00000000000E+00 0.  1.
         22    1    1    2    0    0  0.18000846392E+04  0.33223190236E+02 -0.92296061940E+03  0.20231818489E+04  0.00000000000E+00 0.  1.
<mgrwt>
<rscale>  0 0.37124436E+04</rscale>
<asrwt>0</asrwt>
<pdfrwt beam="1">  1        2 0.59759725E+00 0.37124436E+04</pdfrwt>
<pdfrwt beam="2">  1       -2 0.13646599E+00 0.37124436E+04</pdfrwt>
<totfact> 0.13066538E-01</totfact>
</mgrwt>
</event>
<event>
 6    1  0.1773638E-005  0.8513638E+03  0.7818608E-02  0.9488508E-01
          1   -1    0    0  501    0  0.00000000000E+00  0.00000000000E+00  0.85771568261E+03  0.85771568261E+03  0.00000000000E+00 0. -1.
         -1   -1    0    0    0  501 -0.00000000000E+00 -0.00000000000E+00 -0.21126476122E+03  0.21126476122E+03  0.00000000000E+00 0.  1.
         23    2    1    2    0    0 -0.24192666858E+03 -0.34138681304E+03  0.27229577580E+03  0.50767344934E+03  0.92270648405E+02 0.  0.
         11    1    3    3    0    0 -0.35412084396E+02 -0.33237766587E+02  0.18475127785E+01  0.48602244315E+02  0.00000000000E+00 0.  1.
        -11    1    3    3    0    0 -0.20651458418E+03 -0.30814904645E+03  0.27044826303E+03  0.45907120503E+03  0.00000000000E+00 0. -1.
         22    1    1    2    0    0  0.24192666858E+03  0.34138681304E+03  0.37415514559E+03  0.56130699448E+03  0.00000000000E+00 0. -1.
<mgrwt>
<rscale>  0 0.85136384E+03</rscale>
<asrwt>0</asrwt>
<pdfrwt beam="1">  1        1 0.13195626E+00 0.85136384E+03</pdfrwt>
<pdfrwt beam="2">  1       -1 0.32502271E-01 0.85136384E+03</pdfrwt>
<totfact> 0.17617431E+02</totfact>
</mgrwt>
</event>
<event>
 6    1  0.1773638E-005  0.4058950E+04  0.7818608E-02  0.7992759E-01
         -2   -1    0    0    0  501 -0.00000000000E+00  0.00000000000E+00  0.23762673402E+04  0.23762673402E+04  0.00000000000E+00 0.  1.
          2   -1    0    0  501    0  0.00000000000E+00 -0.00000000000E+00 -0.17332938517E+04  0.17332938517E+04  0.00000000000E+00 0. -1.
         23    2    1    2    0    0  0.23951573664E+03 -0.11624456785E+04  0.19871140477E+04  0.23164182566E+04  0.92323114282E+02 0.  0.
         13    1    3    3    0    0  0.64159706544E+02 -0.21361544507E+03  0.31692379452E+03  0.38754189174E+03  0.00000000000E+00 0.  1.
        -13    1    3    3    0    0  0.17535603010E+03 -0.94883023344E+03  0.16701902531E+04  0.19288763648E+04  0.00000000000E+00 0. -1.
         22    1    1    2    0    0 -0.23951573664E+03  0.11624456785E+04 -0.13441405592E+04  0.17931429353E+04  0.00000000000E+00 0. -1.
<mgrwt>
<rscale>  0 0.40589504E+04</rscale>
<asrwt>0</asrwt>
<pdfrwt beam="1">  1        2 0.26666059E+00 0.40589504E+04</pdfrwt>
<pdfrwt beam="2">  1       -2 0.36557959E+00 0.40589504E+04</pdfrwt>
<totfact> 0.91393596E-02</totfact>
</mgrwt>
</event>
<event>
 6    1  0.1773638E-005  0.2347278E+04  0.7818608E-02  0.8459510E-01
         -1   -1    0    0    0  501 -0.00000000000E+00  0.00000000000E+00  0.59830715467E+03  0.59830715467E+03  0.00000000000E+00 0.  1.
          1   -1    0    0  501    0  0.00000000000E+00 -0.00000000000E+00 -0.23022095265E+04  0.23022095265E+04  0.00000000000E+00 0. -1.
         23    2    1    2    0    0  0.71619753468E+03 -0.55512663665E+03 -0.17714005352E+04  0.19918580581E+04  0.92380603292E+02 0.  0.
         11    1    3    3    0    0  0.19249976653E+03 -0.15436527909E+03 -0.39684149290E+03  0.46729858762E+03  0.00000000000E+00 0.  1.
        -11    1    3    3    0    0  0.52369776814E+03 -0.40076135756E+03 -0.13745590423E+04  0.15245594704E+04  0.00000000000E+00 0. -1.
         22    1    1    2    0    0 -0.71619753468E+03  0.55512663665E+03  0.67498163342E+02  0.90865862317E+03  0.00000000000E+00 0.  1.
<mgrwt>
<rscale>  0 0.23472779E+04</rscale>
<asrwt>0</asrwt>
<pdfrwt beam="1">  1        1 0.35418608E+00 0.23472779E+04</pdfrwt>
<pdfrwt beam="2">  1       -1 0.92047256E-01 0.23472779E+04</pdfrwt>
<totfact> 0.19181856E+00</totfact>
</mgrwt>
</event>
<event>
 6    1  0.1773638E-005  0.6802175E+03  0.7818608E-02  0.9751674E-01
         -1   -1    0    0    0  501 -0.00000000000E+00  0.00000000000E+00  0.81952992751E+02  0.81952992751E+02  0.00000000000E+00 0.  1.
          1   -1    0    0  501    0  0.00000000000E+00 -0.00000000000E+00 -0.14114670516E+04  0.14114670516E+04  0.00000000000E+00 0. -1.
         23    2    1    2    0    0 -0.38990099704E+02 -0.22836710928E+03 -0.14718013345E+03  0.28860251641E+03  0.89205696704E+02 0.  0.
         11    1    3    3    0    0 -0.41498826581E+02 -0.12590637219E+03 -0.35960186131E+02  0.13735975448E+03  0.00000000000E+00 0. -1.
        -11    1    3    3    0    0  0.25087268761E+01 -0.10246073709E+03 -0.11121994732E+03  0.15124276193E+03  0.00000000000E+00 0.  1.
         22    1    1    2    0    0  0.38990099704E+02  0.22836710928E+03 -0.11823339254E+04  0.12048175279E+04  0.00000000000E+00 0. -1.
<mgrwt>
<rscale>  0 0.68021746E+03</rscale>
<asrwt>0</asrwt>
<pdfrwt beam="1">  1        1 0.21714879E+00 0.68021746E+03</pdfrwt>
<pdfrwt beam="2">  1       -1 0.12608152E-01 0.68021746E+03</pdfrwt>
<totfact> 0.33545337E+02</totfact>
</mgrwt>
</event>
<event>
 6    1  0.1773638E-005  0.4133431E+04  0.7818608E-02  0.7978157E-01
         -1   -1    0    0    0  501 -0.00000000000E+00  0.00000000000E+00  0.17604418298E+04  0.17604418298E+04  0.00000000000E+00 0.  1.
          1   -1    0    0  501    0  0.00000000000E+00 -0.00000000000E+00 -0.24262727850E+04  0.24262727850E+04  0.00000000000E+00 0. -1.
         23    2    1    2    0    0  0.80320643225E+03  0.16704946949E+04  0.59055903932E+03  0.19474716809E+04  0.90514475935E+02 0.  0.
         11    1    3    3    0    0  0.48342864302E+03  0.95964789479E+03  0.30017062422E+03  0.11156745666E+04  0.00000000000E+00 0. -1.
        -11    1    3    3    0    0  0.31977778923E+03  0.71084680012E+03  0.29038841509E+03  0.83179711429E+03  0.00000000000E+00 0.  1.
         22    1    1    2    0    0 -0.80320643225E+03 -0.16704946949E+04 -0.12563899945E+04  0.22392429338E+04  0.00000000000E+00 0. -1.
<mgrwt>
<rscale>  0 0.41334306E+04</rscale>
<asrwt>0</asrwt>
<pdfrwt beam="1">  1        1 0.37327273E+00 0.41334306E+04</pdfrwt>
<pdfrwt beam="2">  1       -1 0.27083721E+00 0.41334306E+04</pdfrwt>
<totfact> 0.60196351E-02</totfact>
</mgrwt>
</event>
<event>
 6    1  0.1773638E-005  0.4345971E+04  0.7818608E-02  0.7938172E-01
          1   -1    0    0  501    0  0.00000000000E+00  0.00000000000E+00  0.32298131222E+04  0.32298131222E+04  0.00000000000E+00 0. -1.
         -1   -1    0    0    0  501 -0.00000000000E+00 -0.00000000000E+00 -0.14619623344E+04  0.14619623344E+04  0.00000000000E+00 0.  1.
         23    2    1    2    0    0  0.47598845609E+03 -0.10152322292E+04 -0.11237977033E+04  0.15903415163E+04  0.94886094777E+02 0.  0.
         11    1    3    3    0    0  0.30066374110E+02 -0.96719298716E+02 -0.70608469848E+02  0.12346726534E+03  0.00000000000E+00 0.  1.
        -11    1    3    3    0    0  0.44592208198E+03 -0.91851293047E+03 -0.10531892335E+04  0.14668742510E+04  0.00000000000E+00 0. -1.
         22    1    1    2    0    0 -0.47598845609E+03  0.10152322292E+04  0.28916484912E+04  0.31014339403E+04  0.00000000000E+00 0. -1.
<mgrwt>
<rscale>  0 0.43459706E+04</rscale>
<asrwt>0</asrwt>
<pdfrwt beam="1">  1        1 0.49689433E+00 0.43459706E+04</pdfrwt>
<pdfrwt beam="2">  1       -1 0.22491728E+00 0.43459706E+04</pdfrwt>
<totfact> 0.31315705E-02</totfact>
</mgrwt>
</event>
<event>
 6    1  0.1773638E-005  0.2441494E+04  0.7818608E-02  0.8424130E-01
         -2   -1    0    0    0  501 -0.00000000000E+00  0.00000000000E+00  0.44521168603E+03  0.44521168603E+03  0.00000000000E+00 0. -1.
          2   -1    0    0  501    0  0.00000000000E+00 -0.00000000000E+00 -0.33472230102E+04  0.33472230102E+04  0.00000000000E+00 0.  1.
         23    2    1    2    0    0  0.86360090536E+03 -0.21097829253E+03 -0.27489995174E+04  0.28903643128E+04  0.83000903877E+02 0.  0.
         11    1    3    3    0    0  0.38004549568E+03 -0.89839879350E+02 -0.10759683581E+04  0.11446456615E+04  0.00000000000E+00 0. -1.
        -11    1    3    3    0    0  0.48355540968E+03 -0.12113841318E+03 -0.16730311593E+04  0.17457186513E+04  0.00000000000E+00 0.  1.
         22    1    1    2    0    0 -0.86360090536E+03  0.21097829253E+03 -0.15301180671E+03  0.90207038343E+03  0.00000000000E+00 0. -1.
<mgrwt>
<rscale>  0 0.24414936E+04</rscale>
<asrwt>0</asrwt>
<pdfrwt beam="1">  1        2 0.51495739E+00 0.24414936E+04</pdfrwt>
<pdfrwt beam="2">  1       -2 0.68494105E-01 0.24414936E+04</pdfrwt>
<totfact> 0.18108762E+00</totfact>
</mgrwt>
</event>
<event>
 6    1  0.1773638E-005  0.4603375E+03  0.7818608E-02  0.1024683E+00
          1   -1    0    0  501    0  0.00000000000E+00  0.00000000000E+00  0.86404103715E+03  0.86404103715E+03  0.00000000000E+00 0. -1.
         -1   -1    0    0    0  501 -0.00000000000E+00 -0.00000000000E+00 -0.61313805438E+02  0.61313805438E+02  0.00000000000E+00 0.  1.
         23    2    1    2    0    0  0.69799889064E+02  0.40459776754E+02  0.83093521605E+03  0.83988725558E+03  0.91914366539E+02 0.  0.
         11    1    3    3    0    0  0.45319166943E+02 -0.22065537645E+02  0.47557999364E+03  0.47824370899E+03  0.00000000000E+00 0.  1.
        -11    1    3    3    0    0  0.24480722121E+02  0.62525314399E+02  0.35535522241E+03  0.36164354659E+03  0.00000000000E+00 0. -1.
         22    1    1    2    0    0 -0.69799889064E+02 -0.40459776754E+02 -0.28207984334E+02  0.85467587005E+02  0.00000000000E+00 0.  1.
<mgrwt>
<rscale>  0 0.46033746E+03</rscale>
<asrwt>0</asrwt>
<pdfrwt beam="1">  1        1 0.13292938E+00 0.46033746E+03</pdfrwt>
<pdfrwt beam="2">  1       -1 0.94328938E-02 0.46033746E+03</pdfrwt>
<totfact> 0.13608743E+03</totfact>
</mgrwt>
</event>
<event>
 6    1  0.1773638E-005  0.1227275E+04  0.7818608E-02  0.9089312E-01
          2   -1    0    0  501    0  0.00000000000E+00  0.00000000000E+00  0.22468708985E+04  0.22468708985E+04  0.00000000000E+00 0. -1.
         -2   -1    0    0    0  501 -0.00000000000E+00 -0.00000000000E+00 -0.16758908480E+03  0.16758908480E+03  0.00000000000E+00 0.  1.
         23    2    1    2    0    0  0.18958916029E+03  0.13215442598E+03  0.21565190116E+04  0.21707913010E+04  0.91388090338E+02 0.  0.
         11    1    3    3    0    0  0.56256951949E+02  0.89100932184E+02  0.10967330291E+04  0.11017836257E+04  0.00000000000E+00 0.  1.
        -11    1    3    3    0    0  0.13333220834E+03  0.43053493798E+02  0.10597859825E+04  0.10690076753E+04  0.00000000000E+00 0. -1.
         22    1    1    2    0    0 -0.18958916029E+03 -0.13215442598E+03 -0.77237197899E+02  0.24366868232E+03  0.00000000000E+00 0.  1.
<mgrwt>
<rscale>  0 0.12272751E+04</rscale>
<asrwt>0</asrwt>
<pdfrwt beam="1">  1        2 0.34567242E+00 0.12272751E+04</pdfrwt>
<pdfrwt beam="2">  1       -2 0.25782938E-01 0.12272751E+04</pdfrwt>
<totfact> 0.65115780E+01</totfact>
</mgrwt>
</event>
<event>
 6    1  0.1773638E-005  0.2811506E+04  0.7818608E-02  0.8299705E-01
          1   -1    0    0  501    0  0.00000000000E+00  0.00000000000E+00  0.32777241576E+04  0.32777241576E+04  0.00000000000E+00 0. -1.
         -1   -1    0    0    0  501 -0.00000000000E+00 -0.00000000000E+00 -0.60290066375E+03  0.60290066375E+03  0.00000000000E+00 0.  1.
         23    2    1    2    0    0  0.85190307819E+03 -0.66700220028E+03  0.10322001483E+03  0.10906830221E+04  0.91127896258E+02 0.  0.
         11    1    3    3    0    0  0.31126394619E+03 -0.20599433158E+03  0.39485864909E+01  0.37327536776E+03  0.00000000000E+00 0.  1.
        -11    1    3    3    0    0  0.54063913200E+03 -0.46100786870E+03  0.99271428342E+02  0.71740765436E+03  0.00000000000E+00 0. -1.
         22    1    1    2    0    0 -0.85190307819E+03  0.66700220028E+03  0.25716034790E+04  0.27899417992E+04  0.00000000000E+00 0. -1.
<mgrwt>
<rscale>  0 0.28115064E+04</rscale>
<asrwt>0</asrwt>
<pdfrwt beam="1">  1        1 0.50426525E+00 0.28115064E+04</pdfrwt>
<pdfrwt beam="2">  1       -1 0.92753950E-01 0.28115064E+04</pdfrwt>
<totfact> 0.36264004E-01</totfact>
</mgrwt>
</event>
<event>
 6    1  0.1773638E-005  0.3796045E+04  0.7818608E-02  0.8047004E-01
          2   -1    0    0  501    0  0.00000000000E+00  0.00000000000E+00  0.33362982294E+04  0.33362982294E+04  0.00000000000E+00 0. -1.
         -2   -1    0    0    0  501 -0.00000000000E+00 -0.00000000000E+00 -0.10797864682E+04  0.10797864682E+04  0.00000000000E+00 0.  1.
         23    2    1    2    0    0 -0.11235561703E+04 -0.15044644779E+04  0.81601803290E+03  0.20494807986E+04  0.93243125869E+02 0.  0.
         13    1    3    3    0    0 -0.89103783312E+03 -0.12531910069E+04  0.66830191293E+03  0.16766226667E+04  0.00000000000E+00 0.  1.
        -13    1    3    3    0    0 -0.23251833721E+03 -0.25127347107E+03  0.14771611996E+03  0.37285813187E+03  0.00000000000E+00 0. -1.
         22    1    1    2    0    0  0.11235561703E+04  0.15044644779E+04  0.14404937283E+04  0.23666038990E+04  0.00000000000E+00 0. -1.
<mgrwt>
<rscale>  0 0.37960451E+04</rscale>
<asrwt>0</asrwt>
<pdfrwt beam="1">  1        2 0.51327665E+00 0.37960451E+04</pdfrwt>
<pdfrwt beam="2">  1       -2 0.16612100E+00 0.37960451E+04</pdfrwt>
<totfact> 0.19168383E-01</totfact>
</mgrwt>
</event>
<event>
 6    1  0.1773638E-005  0.3646764E+04  0.7818608E-02  0.8079863E-01
          2   -1    0    0  501    0  0.00000000000E+00  0.00000000000E+00  0.18535006192E+04  0.18535006192E+04  0.00000000000E+00 0. -1.
         -2   -1    0    0    0  501 -0.00000000000E+00 -0.00000000000E+00 -0.17937530653E+04  0.17937530653E+04  0.00000000000E+00 0.  1.
         23    2    1    2    0    0  0.14788918215E+04 -0.42504752682E+03  0.10060974129E+04  0.18407752109E+04  0.91842000113E+02 0.  0.
         11    1    3    3    0    0  0.75657748495E+03 -0.17840342090E+03  0.47603144626E+03  0.91150601158E+03  0.00000000000E+00 0. -1.
        -11    1    3    3    0    0  0.72231433657E+03 -0.24664410592E+03  0.53006596667E+03  0.92926919933E+03  0.00000000000E+00 0.  1.
         22    1    1    2    0    0 -0.14788918215E+04  0.42504752682E+03 -0.94634985906E+03  0.18064784736E+04  0.00000000000E+00 0.  1.
<mgrwt>
<rscale>  0 0.36467643E+04</rscale>
<asrwt>0</asrwt>
<pdfrwt beam="1">  1        2 0.28515394E+00 0.36467643E+04</pdfrwt>
<pdfrwt beam="2">  1       -2 0.27596201E+00 0.36467643E+04</pdfrwt>
<totfact> 0.29162600E-01</totfact>
</mgrwt>
</event>
<event>
 6    1  0.1773638E-005  0.2979179E+04  0.7818608E-02  0.8249702E-01
          1   -1    0    0  501    0  0.00000000000E+00  0.00000000000E+00  0.22268576746E+04  0.22268576746E+04  0.00000000000E+00 0. -1.
         -1   -1    0    0    0  501 -0.00000000000E+00 -0.00000000000E+00 -0.99641609682E+03  0.99641609682E+03  0.00000000000E+00 0.  1.
         23    2    1    2    0    0  0.97707678753E+03  0.11151795022E+04  0.75434993610E+03  0.16660430172E+04  0.91384561679E+02 0.  0.
         13    1    3    3    0    0  0.29892861778E+03  0.40640757067E+03  0.25065449116E+03  0.56334102102E+03  0.00000000000E+00 0.  1.
        -13    1    3    3    0    0  0.67814816974E+03  0.70877193151E+03  0.50369544494E+03  0.11027019961E+04  0.00000000000E+00 0. -1.
         22    1    1    2    0    0 -0.97707678753E+03 -0.11151795022E+04  0.47609164170E+03  0.15572307543E+04  0.00000000000E+00 0.  1.
<mgrwt>
<rscale>  0 0.29791790E+04</rscale>
<asrwt>0</asrwt>
<pdfrwt beam="1">  1        1 0.34259349E+00 0.29791790E+04</pdfrwt>
<pdfrwt beam="2">  1       -1 0.15329478E+00 0.29791790E+04</pdfrwt>
<totfact> 0.58557448E-01</totfact>
</mgrwt>
</event>
<event>
 6    1  0.1773638E-005  0.1927971E+04  0.7818608E-02  0.8641057E-01
          1   -1    0    0  501    0  0.00000000000E+00  0.00000000000E+00  0.22627992660E+04  0.22627992660E+04  0.00000000000E+00 0. -1.
         -1   -1    0    0    0  501 -0.00000000000E+00 -0.00000000000E+00 -0.41067192459E+03  0.41067192459E+03  0.00000000000E+00 0.  1.
         23    2    1    2    0    0 -0.95240091973E+02  0.79175390814E+03  0.16737943793E+04  0.18563129614E+04  0.91461796749E+02 0.  0.
         13    1    3    3    0    0 -0.77050034871E+02  0.30884593049E+03  0.71328697241E+03  0.78108950938E+03  0.00000000000E+00 0.  1.
        -13    1    3    3    0    0 -0.18190057101E+02  0.48290797765E+03  0.96050740689E+03  0.10752234520E+04  0.00000000000E+00 0. -1.
         22    1    1    2    0    0  0.95240091973E+02 -0.79175390814E+03  0.17833296210E+03  0.81715822919E+03  0.00000000000E+00 0.  1.
<mgrwt>
<rscale>  0 0.19279711E+04</rscale>
<asrwt>0</asrwt>
<pdfrwt beam="1">  1        1 0.34812296E+00 0.19279711E+04</pdfrwt>
<pdfrwt beam="2">  1       -1 0.63180297E-01 0.19279711E+04</pdfrwt>
<totfact> 0.46817556E+00</totfact>
</mgrwt>
</event>
<event>
 6    1  0.1773638E-005  0.1465001E+04  0.7818608E-02  0.8908067E-01
         -1   -1    0    0    0  501 -0.00000000000E+00  0.00000000000E+00  0.61270163913E+03  0.61270163913E+03  0.00000000000E+00 0.  1.
          1   -1    0    0  501    0  0.00000000000E+00 -0.00000000000E+00 -0.87572271451E+03  0.87572271451E+03  0.00000000000E+00 0. -1.
         23    2    1    2    0    0  0.17440776032E+03  0.29038334124E+01  0.58788589059E+03  0.61982250938E+03  0.90242028306E+02 0.  0.
         13    1    3    3    0    0  0.12756685836E+03  0.81173564641E+01  0.52989827197E+03  0.54509758159E+03  0.00000000000E+00 0.  1.
        -13    1    3    3    0    0  0.46840901961E+02 -0.52135230517E+01  0.57987618627E+02  0.74724927790E+02  0.00000000000E+00 0. -1.
         22    1    1    2    0    0 -0.17440776032E+03 -0.29038334124E+01 -0.85090696598E+03  0.86860184426E+03  0.00000000000E+00 0. -1.
<mgrwt>
<rscale>  0 0.14650007E+04</rscale>
<asrwt>0</asrwt>
<pdfrwt beam="1">  1        1 0.13472657E+00 0.14650007E+04</pdfrwt>
<pdfrwt beam="2">  1       -1 0.94261791E-01 0.14650007E+04</pdfrwt>
<totfact> 0.20152053E+01</totfact>
</mgrwt>
</event>
<event>
 6    1  0.2967193E-005  0.2504841E+04  0.7818608E-02  0.8401263E-01
         -2   -1    0    0    0  501 -0.00000000000E+00  0.00000000000E+00  0.65722299422E+03  0.65722299422E+03  0.00000000000E+00 0.  1.
          2   -1    0    0  501    0  0.00000000000E+00 -0.00000000000E+00 -0.23866438348E+04  0.23866438348E+04  0.00000000000E+00 0. -1.
         23    2    1    2    0    0  0.39455402522E+03  0.49548291263E+03 -0.21766478866E+04  0.22685035424E+04  0.84475464779E+02 0.  0.
         11    1    3    3    0    0  0.14864227546E+03  0.25260714798E+03 -0.96625713673E+03  0.10097315245E+04  0.00000000000E+00 0.  1.
        -11    1    3    3    0    0  0.24591174976E+03  0.24287576465E+03 -0.12103907499E+04  0.12587720179E+04  0.00000000000E+00 0. -1.
         22    1    1    2    0    0 -0.39455402522E+03 -0.49548291263E+03  0.44722704603E+03  0.77536328661E+03  0.00000000000E+00 0.  1.
<mgrwt>
<rscale>  0 0.25048411E+04</rscale>
<asrwt>0</asrwt>
<pdfrwt beam="1">  1        2 0.36717597E+00 0.25048411E+04</pdfrwt>
<pdfrwt beam="2">  1       -2 0.10111123E+00 0.25048411E+04</pdfrwt>
<totfact> 0.29017996E+00</totfact>
</mgrwt>
</event>
<event>
 6    1  0.1773638E-005  0.3306245E+04  0.7818608E-02  0.8161308E-01
         -1   -1    0    0    0  501 -0.00000000000E+00  0.00000000000E+00  0.34117239109E+04  0.34117239109E+04  0.00000000000E+00 0.  1.
          1   -1    0    0  501    0  0.00000000000E+00 -0.00000000000E+00 -0.80100692528E+03  0.80100692528E+03  0.00000000000E+00 0. -1.
         23    2    1    2    0    0 -0.68270177174E+03 -0.76076568920E+02  0.32205191424E+04  0.32941841449E+04  0.89645305622E+02 0.  0.
         13    1    3    3    0    0 -0.40979382714E+03 -0.87499149881E+02  0.18835325071E+04  0.19295807284E+04  0.00000000000E+00 0.  1.
        -13    1    3    3    0    0 -0.27290794460E+03  0.11422580961E+02  0.13369866352E+04  0.13646034165E+04  0.00000000000E+00 0. -1.
         22    1    1    2    0    0  0.68270177174E+03  0.76076568920E+02 -0.60980215681E+03  0.91854669120E+03  0.00000000000E+00 0. -1.
<mgrwt>
<rscale>  0 0.33062453E+04</rscale>
<asrwt>0</asrwt>
<pdfrwt beam="1">  1        1 0.12323184E+00 0.33062453E+04</pdfrwt>
<pdfrwt beam="2">  1       -1 0.52488059E+00 0.33062453E+04</pdfrwt>
<totfact> 0.19017806E-02</totfact>
</mgrwt>
</event>
<event>
 6    1  0.1773638E-005  0.1770382E+04  0.7818608E-02  0.8722210E-01
         -2   -1    0    0    0  501 -0.00000000000E+00  0.00000000000E+00  0.10527289600E+04  0.10527289600E+04  0.00000000000E+00 0. -1.
          2   -1    0    0  501    0  0.00000000000E+00 -0.00000000000E+00 -0.74431612054E+03  0.74431612054E+03  0.00000000000E+00 0.  1.
         23    2    1    2    0    0  0.59463611789E+03 -0.35601248060E+03 -0.40056697690E+03  0.80558687212E+03  0.90439518521E+02 0.  0.
         13    1    3    3    0    0  0.43795675058E+03 -0.26886084590E+03 -0.34065922002E+03  0.61655573473E+03  0.00000000000E+00 0. -1.
        -13    1    3    3    0    0  0.15667936731E+03 -0.87151634698E+02 -0.59907756880E+02  0.18903113740E+03  0.00000000000E+00 0.  1.
         22    1    1    2    0    0 -0.59463611789E+03  0.35601248060E+03  0.70897981636E+03  0.99145820842E+03  0.00000000000E+00 0. -1.
<mgrwt>
<rscale>  0 0.17703820E+04</rscale>
<asrwt>0</asrwt>
<pdfrwt beam="1">  1        2 0.11451017E+00 0.17703820E+04</pdfrwt>
<pdfrwt beam="2">  1       -2 0.16195830E+00 0.17703820E+04</pdfrwt>
<totfact> 0.87272750E+00</totfact>
</mgrwt>
</event>
<event>
 6    1  0.1773638E-005  0.9775343E+03  0.7818608E-02  0.9333534E-01
         -1   -1    0    0    0  501 -0.00000000000E+00  0.00000000000E+00  0.23269732075E+03  0.23269732075E+03  0.00000000000E+00 0. -1.
          1   -1    0    0  501    0  0.00000000000E+00 -0.00000000000E+00 -0.10266268739E+04  0.10266268739E+04  0.00000000000E+00 0.  1.
         23    2    1    2    0    0  0.13686740999E+03 -0.92647825945E+02 -0.98712390770E+03  0.10050794972E+04  0.91950416099E+02 0.  0.
         13    1    3    3    0    0  0.44571288195E+02 -0.85457790712E+02 -0.48192686186E+03  0.49147037948E+03  0.00000000000E+00 0.  1.
        -13    1    3    3    0    0  0.92296121799E+02 -0.71900352330E+01 -0.50519704584E+03  0.51360911775E+03  0.00000000000E+00 0. -1.
         22    1    1    2    0    0 -0.13686740999E+03  0.92647825945E+02  0.19319435451E+03  0.25424469746E+03  0.00000000000E+00 0. -1.
<mgrwt>
<rscale>  0 0.97753429E+03</rscale>
<asrwt>0</asrwt>
<pdfrwt beam="1">  1        1 0.15794259E+00 0.97753429E+03</pdfrwt>
<pdfrwt beam="2">  1       -1 0.35799589E-01 0.97753429E+03</pdfrwt>
<totfact> 0.10777320E+02</totfact>
</mgrwt>
</event>
<event>
 6    1  0.1773638E-005  0.2442596E+04  0.7818608E-02  0.8423726E-01
         -1   -1    0    0    0  501 -0.00000000000E+00  0.00000000000E+00  0.12051342348E+04  0.12051342348E+04  0.00000000000E+00 0.  1.
          1   -1    0    0  501    0  0.00000000000E+00 -0.00000000000E+00 -0.12376787870E+04  0.12376787870E+04  0.00000000000E+00 0. -1.
         23    2    1    2    0    0  0.10272819795E+04 -0.46406541967E+03 -0.48182919666E+03  0.12293379826E+04  0.91910400669E+02 0.  0.
         11    1    3    3    0    0  0.45118274403E+03 -0.18415635586E+03 -0.25387382833E+03  0.54948280467E+03  0.00000000000E+00 0. -1.
        -11    1    3    3    0    0  0.57609923543E+03 -0.27990906381E+03 -0.22795536833E+03  0.67985517798E+03  0.00000000000E+00 0.  1.
         22    1    1    2    0    0 -0.10272819795E+04  0.46406541967E+03  0.44928464445E+03  0.12134750392E+04  0.00000000000E+00 0. -1.
<mgrwt>
<rscale>  0 0.24425962E+04</rscale>
<asrwt>0</asrwt>
<pdfrwt beam="1">  1        1 0.19041212E+00 0.24425962E+04</pdfrwt>
<pdfrwt beam="2">  1       -1 0.18540527E+00 0.24425962E+04</pdfrwt>
<totfact> 0.17053287E+00</totfact>
</mgrwt>
</event>
<event>
 6    1  0.1773638E-005  0.1815298E+04  0.7818608E-02  0.8698206E-01
          2   -1    0    0  501    0  0.00000000000E+00  0.00000000000E+00  0.68033285400E+03  0.68033285400E+03  0.00000000000E+00 0. -1.
         -2   -1    0    0    0  501 -0.00000000000E+00 -0.00000000000E+00 -0.12109174698E+04  0.12109174698E+04  0.00000000000E+00 0.  1.
         23    2    1    2    0    0 -0.85693770537E+03  0.27554289359E+03 -0.16525290761E+03  0.91979091954E+03  0.91873255567E+02 0.  0.
         11    1    3    3    0    0 -0.49412882838E+03  0.19280917014E+03 -0.12922549600E+03  0.54592847878E+03  0.00000000000E+00 0.  1.
        -11    1    3    3    0    0 -0.36280887699E+03  0.82733723452E+02 -0.36027411610E+02  0.37386244075E+03  0.00000000000E+00 0. -1.
         22    1    1    2    0    0  0.85693770537E+03 -0.27554289359E+03 -0.36533170817E+03  0.97145940424E+03  0.00000000000E+00 0.  1.
<mgrwt>
<rscale>  0 0.18152983E+04</rscale>
<asrwt>0</asrwt>
<pdfrwt beam="1">  1        2 0.10466659E+00 0.18152983E+04</pdfrwt>
<pdfrwt beam="2">  1       -2 0.18629499E+00 0.18152983E+04</pdfrwt>
<totfact> 0.65707809E+00</totfact>
</mgrwt>
</event>
<event>
 6    1  0.1773638E-005  0.2219226E+04  0.7818608E-02  0.8510468E-01
          1   -1    0    0  501    0  0.00000000000E+00  0.00000000000E+00  0.12657948003E+04  0.12657948003E+04  0.00000000000E+00 0. -1.
         -1   -1    0    0    0  501 -0.00000000000E+00 -0.00000000000E+00 -0.97270196587E+03  0.97270196587E+03  0.00000000000E+00 0.  1.
         23    2    1    2    0    0 -0.27963309950E+03  0.15722507121E+02  0.12278185737E+04  0.12627129401E+04  0.91998107615E+02 0.  0.
         11    1    3    3    0    0 -0.91695930361E+02 -0.84706251293E+01  0.59663945559E+03  0.60370401282E+03  0.00000000000E+00 0. -1.
        -11    1    3    3    0    0 -0.18793716914E+03  0.24193132251E+02  0.63117911808E+03  0.65900892732E+03  0.00000000000E+00 0.  1.
         22    1    1    2    0    0  0.27963309950E+03 -0.15722507121E+02 -0.93472573923E+03  0.97578382603E+03  0.00000000000E+00 0.  1.
<mgrwt>
<rscale>  0 0.22192261E+04</rscale>
<asrwt>0</asrwt>
<pdfrwt beam="1">  1        1 0.19473766E+00 0.22192261E+04</pdfrwt>
<pdfrwt beam="2">  1       -1 0.14964646E+00 0.22192261E+04</pdfrwt>
<totfact> 0.30594502E+00</totfact>
</mgrwt>
</event>
<event>
 6    1  0.1773638E-005  0.2000517E+04  0.7818608E-02  0.8606379E-01
          1   -1    0    0  501    0  0.00000000000E+00  0.00000000000E+00  0.25203012961E+04  0.25203012961E+04  0.00000000000E+00 0. -1.
         -1   -1    0    0    0  501 -0.00000000000E+00 -0.00000000000E+00 -0.39698320476E+03  0.39698320476E+03  0.00000000000E+00 0.  1.
         23    2    1    2    0    0 -0.35573231058E+03  0.73830620408E+03  0.23303728980E+03  0.85699252242E+03  0.92131847238E+02 0.  0.
         11    1    3    3    0    0 -0.11344468078E+03  0.30621196668E+03  0.12703893227E+03  0.35039171572E+03  0.00000000000E+00 0. -1.
        -11    1    3    3    0    0 -0.24228762980E+03  0.43209423740E+03  0.10599835753E+03  0.50660080670E+03  0.00000000000E+00 0.  1.
         22    1    1    2    0    0  0.35573231058E+03 -0.73830620408E+03  0.18902808015E+04  0.20602919784E+04  0.00000000000E+00 0. -1.
<mgrwt>
<rscale>  0 0.20005172E+04</rscale>
<asrwt>0</asrwt>
<pdfrwt beam="1">  1        1 0.38773865E+00 0.20005172E+04</pdfrwt>
<pdfrwt beam="2">  1       -1 0.61074341E-01 0.20005172E+04</pdfrwt>
<totfact> 0.33093461E+00</totfact>
</mgrwt>
</event>
<event>
 6    1  0.1773638E-005  0.5660310E+04  0.7818608E-02  0.7734008E-01
         -2   -1    0    0    0  501 -0.00000000000E+00  0.00000000000E+00  0.31925470536E+04  0.31925470536E+04  0.00000000000E+00 0.  1.
          2   -1    0    0  501    0  0.00000000000E+00 -0.00000000000E+00 -0.25088984152E+04  0.25088984152E+04  0.00000000000E+00 0. -1.
         23    2    1    2    0    0  0.14615102638E+04  0.24117622640E+04  0.11025508608E+03  0.28237050991E+04  0.92438265971E+02 0.  0.
         13    1    3    3    0    0  0.34172443971E+03  0.53716920963E+03 -0.11192594073E+02  0.63675083559E+03  0.00000000000E+00 0. -1.
        -13    1    3    3    0    0  0.11197858241E+04  0.18745930544E+04  0.12144768015E+03  0.21869542635E+04  0.00000000000E+00 0.  1.
         22    1    1    2    0    0 -0.14615102638E+04 -0.24117622640E+04  0.57339355231E+03  0.28777403697E+04  0.00000000000E+00 0. -1.
<mgrwt>
<rscale>  0 0.56603096E+04</rscale>
<asrwt>0</asrwt>
<pdfrwt beam="1">  1        2 0.38598437E+00 0.56603096E+04</pdfrwt>
<pdfrwt beam="2">  1       -2 0.49116108E+00 0.56603096E+04</pdfrwt>
<totfact> 0.44943377E-03</totfact>
</mgrwt>
</event>
<event>
 6    1  0.1773638E-005  0.1964454E+04  0.7818608E-02  0.8623422E-01
          2   -1    0    0  501    0  0.00000000000E+00  0.00000000000E+00  0.24403570861E+04  0.24403570861E+04  0.00000000000E+00 0. -1.
         -2   -1    0    0    0  501 -0.00000000000E+00 -0.00000000000E+00 -0.39533975996E+03  0.39533975996E+03  0.00000000000E+00 0.  1.
         23    2    1    2    0    0 -0.63099374592E+03  0.48166510981E+03  0.19553448494E+03  0.82305153073E+03  0.95003694859E+02 0.  0.
         11    1    3    3    0    0 -0.50166575492E+03  0.41957594503E+03  0.18259463340E+03  0.67900905992E+03  0.00000000000E+00 0.  1.
        -11    1    3    3    0    0 -0.12932799100E+03  0.62089164786E+02  0.12939851541E+02  0.14404247081E+03  0.00000000000E+00 0. -1.
         22    1    1    2    0    0  0.63099374592E+03 -0.48166510981E+03  0.18494828412E+04  0.20126453153E+04  0.00000000000E+00 0. -1.
<mgrwt>
<rscale>  0 0.19644543E+04</rscale>
<asrwt>0</asrwt>
<pdfrwt beam="1">  1        2 0.37543954E+00 0.19644543E+04</pdfrwt>
<pdfrwt beam="2">  1       -2 0.60821503E-01 0.19644543E+04</pdfrwt>
<totfact> 0.88403463E+00</totfact>
</mgrwt>
</event>
<event>
 6    1  0.2099722E-005  0.2352269E+04  0.7818608E-02  0.8457593E-01
          1   -1    0    0  501    0  0.00000000000E+00  0.00000000000E+00  0.10530026870E+04  0.10530026870E+04  0.00000000000E+00 0. -1.
         -1   -1    0    0    0  501 -0.00000000000E+00 -0.00000000000E+00 -0.13136645105E+04  0.13136645105E+04  0.00000000000E+00 0.  1.
         23    2    1    2    0    0  0.58013492336E+02  0.54995578500E+03 -0.11728926821E+04  0.12999047731E+04  0.90874883527E+02 0.  0.
         11    1    3    3    0    0 -0.23580468811E+02  0.16540935179E+03 -0.36724172069E+03  0.40346347243E+03  0.00000000000E+00 0.  1.
        -11    1    3    3    0    0  0.81593961147E+02  0.38454643322E+03 -0.80565096145E+03  0.89644130063E+03  0.00000000000E+00 0. -1.
         22    1    1    2    0    0 -0.58013492336E+02 -0.54995578500E+03  0.91223085862E+03  0.10667624244E+04  0.00000000000E+00 0. -1.
<mgrwt>
<rscale>  0 0.23522689E+04</rscale>
<asrwt>0</asrwt>
<pdfrwt beam="1">  1        1 0.16200041E+00 0.23522689E+04</pdfrwt>
<pdfrwt beam="2">  1       -1 0.20210223E+00 0.23522689E+04</pdfrwt>
<totfact> 0.18031001E+00</totfact>
</mgrwt>
</event>
<event>
 6    1  0.1773638E-005  0.1467342E+04  0.7818608E-02  0.8906465E-01
          2   -1    0    0  501    0  0.00000000000E+00  0.00000000000E+00  0.11728166025E+04  0.11728166025E+04  0.00000000000E+00 0. -1.
         -2   -1    0    0    0  501 -0.00000000000E+00 -0.00000000000E+00 -0.45895757141E+03  0.45895757141E+03  0.00000000000E+00 0.  1.
         23    2    1    2    0    0  0.10526029960E+03  0.39070340190E+03  0.10351357640E+04  0.11151044360E+04  0.90680616609E+02 0.  0.
         13    1    3    3    0    0  0.22562006802E+02  0.24097328048E+03  0.65392915746E+03  0.69728079641E+03  0.00000000000E+00 0.  1.
        -13    1    3    3    0    0  0.82698292801E+02  0.14973012142E+03  0.38120660658E+03  0.41782363958E+03  0.00000000000E+00 0. -1.
         22    1    1    2    0    0 -0.10526029960E+03 -0.39070340190E+03 -0.32127673296E+03  0.51666973791E+03  0.00000000000E+00 0.  1.
<mgrwt>
<rscale>  0 0.14673419E+04</rscale>
<asrwt>0</asrwt>
<pdfrwt beam="1">  1        2 0.18043332E+00 0.14673419E+04</pdfrwt>
<pdfrwt beam="2">  1       -2 0.70608858E-01 0.14673419E+04</pdfrwt>
<totfact> 0.34747832E+01</totfact>
</mgrwt>
</event>
<event>
 6    1  0.1773638E-005  0.1985702E+04  0.7818608E-02  0.8613335E-01
         -1   -1    0    0    0  501 -0.00000000000E+00  0.00000000000E+00  0.10837357211E+04  0.10837357211E+04  0.00000000000E+00 0.  1.
          1   -1    0    0  501    0  0.00000000000E+00 -0.00000000000E+00 -0.90958795642E+03  0.90958795642E+03  0.00000000000E+00 0. -1.
         23    2    1    2    0    0 -0.20173629536E+03 -0.96028111524E+03  0.22752461901E+03  0.10106302148E+04  0.82271657297E+02 0.  0.
         13    1    3    3    0    0 -0.42250847724E+02 -0.38575022822E+03  0.10330047874E+03  0.40157111651E+03  0.00000000000E+00 0. -1.
        -13    1    3    3    0    0 -0.15948544764E+03 -0.57453088702E+03  0.12422414026E+03  0.60905909826E+03  0.00000000000E+00 0.  1.
         22    1    1    2    0    0  0.20173629536E+03  0.96028111524E+03 -0.53376854327E+02  0.98269346275E+03  0.00000000000E+00 0.  1.
<mgrwt>
<rscale>  0 0.19857019E+04</rscale>
<asrwt>0</asrwt>
<pdfrwt beam="1">  1        1 0.13993661E+00 0.19857019E+04</pdfrwt>
<pdfrwt beam="2">  1       -1 0.16672857E+00 0.19857019E+04</pdfrwt>
<totfact> 0.43181368E+00</totfact>
</mgrwt>
</event>
<event>
 6    1  0.1773638E-005  0.2882478E+04  0.7818608E-02  0.8278110E-01
          1   -1    0    0  501    0  0.00000000000E+00  0.00000000000E+00  0.26634492765E+04  0.26634492765E+04  0.00000000000E+00 0. -1.
         -1   -1    0    0    0  501 -0.00000000000E+00 -0.00000000000E+00 -0.77987952332E+03  0.77987952332E+03  0.00000000000E+00 0.  1.
         23    2    1    2    0    0 -0.13749260414E+04  0.41651692092E+03  0.10579742338E+04  0.17863689552E+04  0.88862816081E+02 0.  0.
         13    1    3    3    0    0 -0.33894278058E+03  0.11355849501E+03  0.31006455977E+03  0.47319950499E+03  0.00000000000E+00 0. -1.
        -13    1    3    3    0    0 -0.10359832609E+04  0.30295842590E+03  0.74790967401E+03  0.13131694502E+04  0.00000000000E+00 0.  1.
         22    1    1    2    0    0  0.13749260414E+04 -0.41651692092E+03  0.82559551936E+03  0.16569598445E+04  0.00000000000E+00 0. -1.
<mgrwt>
<rscale>  0 0.28824778E+04</rscale>
<asrwt>0</asrwt>
<pdfrwt beam="1">  1        1 0.40976142E+00 0.28824778E+04</pdfrwt>
<pdfrwt beam="2">  1       -1 0.11998147E+00 0.28824778E+04</pdfrwt>
<totfact> 0.55413571E-01</totfact>
</mgrwt>
</event>
<event>
 6    1  0.1773638E-005  0.1563859E+04  0.7818608E-02  0.8843063E-01
          1   -1    0    0  501    0  0.00000000000E+00  0.00000000000E+00  0.36602528776E+03  0.36602528776E+03  0.00000000000E+00 0. -1.
         -1   -1    0    0    0  501 -0.00000000000E+00 -0.00000000000E+00 -0.16704149716E+04  0.16704149716E+04  0.00000000000E+00 0.  1.
         23    2    1    2    0    0  0.22294044450E+03 -0.65339562718E+03 -0.11248189318E+04  0.13230862502E+04  0.93334392089E+02 0.  0.
         13    1    3    3    0    0  0.43264583794E+02 -0.55859518946E+02 -0.14779803852E+03  0.16381810113E+03  0.00000000000E+00 0. -1.
        -13    1    3    3    0    0  0.17967586070E+03 -0.59753610823E+03 -0.97702089329E+03  0.11592681491E+04  0.00000000000E+00 0.  1.
         22    1    1    2    0    0 -0.22294044450E+03  0.65339562718E+03 -0.17957075208E+03  0.71335400918E+03  0.00000000000E+00 0. -1.
<mgrwt>
<rscale>  0 0.15638595E+04</rscale>
<asrwt>0</asrwt>
<pdfrwt beam="1">  1        1 0.56311583E-01 0.15638595E+04</pdfrwt>
<pdfrwt beam="2">  1       -1 0.25698692E+00 0.15638595E+04</pdfrwt>
<totfact> 0.40807315E+00</totfact>
</mgrwt>
</event>
<event>
 6    1  0.1773638E-005  0.1397588E+04  0.7818608E-02  0.8955566E-01
          2   -1    0    0  501    0  0.00000000000E+00  0.00000000000E+00  0.25472068806E+04  0.25472068806E+04  0.00000000000E+00 0. -1.
         -2   -1    0    0    0  501 -0.00000000000E+00 -0.00000000000E+00 -0.19170531585E+03  0.19170531585E+03  0.00000000000E+00 0.  1.
         23    2    1    2    0    0  0.45233164456E+03  0.43898788778E+03  0.17614666502E+04  0.18727760859E+04  0.84918937097E+02 0.  0.
         13    1    3    3    0    0  0.12742610943E+03  0.16637605791E+03  0.50929248407E+03  0.55072428704E+03  0.00000000000E+00 0. -1.
        -13    1    3    3    0    0  0.32490553513E+03  0.27261182987E+03  0.12521741661E+04  0.13220517989E+04  0.00000000000E+00 0.  1.
         22    1    1    2    0    0 -0.45233164456E+03 -0.43898788778E+03  0.59403491459E+03  0.86613611057E+03  0.00000000000E+00 0. -1.
<mgrwt>
<rscale>  0 0.13975881E+04</rscale>
<asrwt>0</asrwt>
<pdfrwt beam="1">  1        2 0.39187796E+00 0.13975881E+04</pdfrwt>
<pdfrwt beam="2">  1       -2 0.29493127E-01 0.13975881E+04</pdfrwt>
<totfact> 0.33813060E+01</totfact>
</mgrwt>
</event>
<event>
 6    1  0.1773638E-005  0.1372447E+04  0.7818608E-02  0.8974008E-01
         -2   -1    0    0    0  501 -0.00000000000E+00  0.00000000000E+00  0.14952502328E+03  0.14952502328E+03  0.00000000000E+00 0.  1.
          2   -1    0    0  501    0  0.00000000000E+00 -0.00000000000E+00 -0.31493237688E+04  0.31493237688E+04  0.00000000000E+00 0. -1.
         23    2    1    2    0    0 -0.20149895492E+03 -0.49000683637E+03 -0.46725795213E+03  0.71148113389E+03  0.84657436311E+02 0.  0.
         13    1    3    3    0    0 -0.11075740089E+03 -0.32421097582E+03 -0.34599566506E+03  0.48692192283E+03  0.00000000000E+00 0. -1.
        -13    1    3    3    0    0 -0.90741554026E+02 -0.16579586056E+03 -0.12126228707E+03  0.22455921105E+03  0.00000000000E+00 0.  1.
         22    1    1    2    0    0  0.20149895492E+03  0.49000683637E+03 -0.25325407934E+04  0.25873676582E+04  0.00000000000E+00 0. -1.
<mgrwt>
<rscale>  0 0.13724470E+04</rscale>
<asrwt>0</asrwt>
<pdfrwt beam="1">  1        2 0.48451132E+00 0.13724470E+04</pdfrwt>
<pdfrwt beam="2">  1       -2 0.23003851E-01 0.13724470E+04</pdfrwt>
<totfact> 0.23016469E+01</totfact>
</mgrwt>
</event>
<event>
 6    1  0.1773638E-005  0.8265548E+03  0.7818608E-02  0.9522356E-01
         -1   -1    0    0    0  501 -0.00000000000E+00  0.00000000000E+00  0.10704472508E+03  0.10704472508E+03  0.00000000000E+00 0.  1.
          1   -1    0    0  501    0  0.00000000000E+00 -0.00000000000E+00 -0.15955779067E+04  0.15955779067E+04  0.00000000000E+00 0. -1.
         23    2    1    2    0    0 -0.21070336318E+03  0.33973303438E+03 -0.58650269774E+03  0.71597505755E+03  0.93917126653E+02 0.  0.
         11    1    3    3    0    0 -0.91033730780E+02  0.13915346539E+03 -0.32693044346E+03  0.36678923367E+03  0.00000000000E+00 0.  1.
        -11    1    3    3    0    0 -0.11966963240E+03  0.20057956898E+03 -0.25957225427E+03  0.34918582388E+03  0.00000000000E+00 0. -1.
         22    1    1    2    0    0  0.21070336318E+03 -0.33973303438E+03 -0.90203048390E+03  0.98664757426E+03  0.00000000000E+00 0. -1.
<mgrwt>
<rscale>  0 0.82655477E+03</rscale>
<asrwt>0</asrwt>
<pdfrwt beam="1">  1        1 0.24547350E+00 0.82655477E+03</pdfrwt>
<pdfrwt beam="2">  1       -1 0.16468421E-01 0.82655477E+03</pdfrwt>
<totfact> 0.16102528E+02</totfact>
</mgrwt>
</event>
<event>
 6    1  0.1773638E-005  0.1456431E+04  0.7818608E-02  0.8913954E-01
          1   -1    0    0  501    0  0.00000000000E+00  0.00000000000E+00  0.31308481626E+03  0.31308481626E+03  0.00000000000E+00 0. -1.
         -1   -1    0    0    0  501 -0.00000000000E+00 -0.00000000000E+00 -0.16937842130E+04  0.16937842130E+04  0.00000000000E+00 0.  1.
         23    2    1    2    0    0  0.29757508387E+02 -0.71882377208E+03 -0.56739110632E+03  0.92102212483E+03  0.93573298985E+02 0.  0.
         11    1    3    3    0    0  0.63345373540E+02 -0.52202240329E+03 -0.41077650965E+03  0.66727607987E+03  0.00000000000E+00 0. -1.
        -11    1    3    3    0    0 -0.33587865153E+02 -0.19680136879E+03 -0.15661459667E+03  0.25374604496E+03  0.00000000000E+00 0.  1.
         22    1    1    2    0    0 -0.29757508387E+02  0.71882377208E+03 -0.81330829045E+03  0.10858469045E+04  0.00000000000E+00 0.  1.
<mgrwt>
<rscale>  0 0.14564314E+04</rscale>
<asrwt>0</asrwt>
<pdfrwt beam="1">  1        1 0.48166894E-01 0.14564314E+04</pdfrwt>
<pdfrwt beam="2">  1       -1 0.26058219E+00 0.14564314E+04</pdfrwt>
<totfact> 0.47928884E+00</totfact>
</mgrwt>
</event>
<event>
 6    1  0.1773638E-005  0.5371059E+04  0.7818608E-02  0.7773685E-01
         -2   -1    0    0    0  501 -0.00000000000E+00  0.00000000000E+00  0.21150402296E+04  0.21150402296E+04  0.00000000000E+00 0. -1.
          2   -1    0    0  501    0  0.00000000000E+00 -0.00000000000E+00 -0.34098969159E+04  0.34098969159E+04  0.00000000000E+00 0.  1.
         23    2    1    2    0    0 -0.17489866192E+03 -0.21674912111E+04  0.97202021955E+03  0.23837051263E+04  0.92839266889E+02 0.  0.
         13    1    3    3    0    0 -0.12258810429E+03 -0.17219936575E+04  0.80819972302E+03  0.19061680913E+04  0.00000000000E+00 0.  1.
        -13    1    3    3    0    0 -0.52310557626E+02 -0.44549755363E+03  0.16382049653E+03  0.47753703502E+03  0.00000000000E+00 0. -1.
         22    1    1    2    0    0  0.17489866192E+03  0.21674912111E+04 -0.22668769059E+04  0.31412320192E+04  0.00000000000E+00 0.  1.
<mgrwt>
<rscale>  0 0.53710592E+04</rscale>
<asrwt>0</asrwt>
<pdfrwt beam="1">  1        2 0.52459952E+00 0.53710592E+04</pdfrwt>
<pdfrwt beam="2">  1       -2 0.32539081E+00 0.53710592E+04</pdfrwt>
<totfact> 0.14689373E-02</totfact>
</mgrwt>
</event>
<event>
 6    1  0.1773638E-005  0.1780105E+04  0.7818608E-02  0.8716952E-01
          2   -1    0    0  501    0  0.00000000000E+00  0.00000000000E+00  0.24120942399E+04  0.24120942399E+04  0.00000000000E+00 0. -1.
         -2   -1    0    0    0  501 -0.00000000000E+00 -0.00000000000E+00 -0.32842542195E+03  0.32842542195E+03  0.00000000000E+00 0.  1.
         23    2    1    2    0    0 -0.24627258967E+03  0.49901930533E+03  0.21092010606E+04  0.21834538211E+04  0.95241897373E+02 0.  0.
         11    1    3    3    0    0 -0.63634137227E+02  0.17538506013E+03  0.55815498945E+03  0.58851186477E+03  0.00000000000E+00 0. -1.
        -11    1    3    3    0    0 -0.18263845245E+03  0.32363424520E+03  0.15510460712E+04  0.15949419563E+04  0.00000000000E+00 0.  1.
         22    1    1    2    0    0  0.24627258967E+03 -0.49901930533E+03 -0.25532242714E+02  0.55706584075E+03  0.00000000000E+00 0.  1.
<mgrwt>
<rscale>  0 0.17801046E+04</rscale>
<asrwt>0</asrwt>
<pdfrwt beam="1">  1        2 0.37109141E+00 0.17801046E+04</pdfrwt>
<pdfrwt beam="2">  1       -2 0.50526990E-01 0.17801046E+04</pdfrwt>
<totfact> 0.13715626E+01</totfact>
</mgrwt>
</event>
<event>
 6    1  0.1773638E-005  0.1800200E+04  0.7818608E-02  0.8706193E-01
          1   -1    0    0  501    0  0.00000000000E+00  0.00000000000E+00  0.41171118401E+03  0.41171118401E+03  0.00000000000E+00 0. -1.
         -1   -1    0    0    0  501 -0.00000000000E+00 -0.00000000000E+00 -0.19678350563E+04  0.19678350563E+04  0.00000000000E+00 0.  1.
         23    2    1    2    0    0 -0.68614359816E+03  0.15160871952E+03 -0.41404903994E+02  0.70977026910E+03  0.91001251077E+02 0.  0.
         11    1    3    3    0    0 -0.49141325353E+03  0.11653948631E+03 -0.69931058620E+02  0.50986154059E+03  0.00000000000E+00 0.  1.
        -11    1    3    3    0    0 -0.19473034462E+03  0.35069233214E+02  0.28526154626E+02  0.19990872850E+03  0.00000000000E+00 0. -1.
         22    1    1    2    0    0  0.68614359816E+03 -0.15160871952E+03 -0.15147189683E+04  0.16697759712E+04  0.00000000000E+00 0.  1.
<mgrwt>
<rscale>  0 0.18001997E+04</rscale>
<asrwt>0</asrwt>
<pdfrwt beam="1">  1        1 0.63340182E-01 0.18001997E+04</pdfrwt>
<pdfrwt beam="2">  1       -1 0.30274385E+00 0.18001997E+04</pdfrwt>
<totfact> 0.17287278E+00</totfact>
</mgrwt>
</event>
<event>
 6    1  0.1773638E-005  0.1009487E+04  0.7818608E-02  0.9298201E-01
         -1   -1    0    0    0  501 -0.00000000000E+00  0.00000000000E+00  0.27812752611E+03  0.27812752611E+03  0.00000000000E+00 0.  1.
          1   -1    0    0  501    0  0.00000000000E+00 -0.00000000000E+00 -0.91600339027E+03  0.91600339027E+03  0.00000000000E+00 0. -1.
         23    2    1    2    0    0 -0.97024452774E+02  0.48965127363E+03 -0.27347992942E+03  0.57610461318E+03  0.89068172331E+02 0.  0.
         11    1    3    3    0    0 -0.10932293754E+03  0.39859251016E+03 -0.24215295174E+03  0.47902562131E+03  0.00000000000E+00 0. -1.
        -11    1    3    3    0    0  0.12298484771E+02  0.91058763466E+02 -0.31326977682E+02  0.97078991869E+02  0.00000000000E+00 0.  1.
         22    1    1    2    0    0  0.97024452774E+02 -0.48965127363E+03 -0.36439593474E+03  0.61802630321E+03  0.00000000000E+00 0. -1.
<mgrwt>
<rscale>  0 0.10094865E+04</rscale>
<asrwt>0</asrwt>
<pdfrwt beam="1">  1        1 0.14092360E+00 0.10094865E+04</pdfrwt>
<pdfrwt beam="2">  1       -1 0.42788850E-01 0.10094865E+04</pdfrwt>
<totfact> 0.95098349E+01</totfact>
</mgrwt>
</event>
<event>
 6    1  0.1773638E-005  0.5323795E+04  0.7818608E-02  0.7780412E-01
         -1   -1    0    0    0  501 -0.00000000000E+00  0.00000000000E+00  0.19064321423E+04  0.19064321423E+04  0.00000000000E+00 0.  1.
          1   -1    0    0  501    0  0.00000000000E+00 -0.00000000000E+00 -0.37167326787E+04  0.37167326787E+04  0.00000000000E+00 0. -1.
         23    2    1    2    0    0 -0.13033978662E+04 -0.69826812987E+03 -0.32422588612E+04  0.35647846271E+04  0.94987027940E+02 0.  0.
         13    1    3    3    0    0 -0.27836393773E+03 -0.18223076569E+03 -0.66582084896E+03  0.74431978121E+03  0.00000000000E+00 0. -1.
        -13    1    3    3    0    0 -0.10250339284E+04 -0.51603736418E+03 -0.25764380123E+04  0.28204648459E+04  0.00000000000E+00 0.  1.
         22    1    1    2    0    0  0.13033978662E+04  0.69826812987E+03  0.14319583248E+04  0.20583801939E+04  0.00000000000E+00 0.  1.
<mgrwt>
<rscale>  0 0.53237951E+04</rscale>
<asrwt>0</asrwt>
<pdfrwt beam="1">  1        1 0.57180503E+00 0.53237951E+04</pdfrwt>
<pdfrwt beam="2">  1       -1 0.29329725E+00 0.53237951E+04</pdfrwt>
<totfact> 0.42855036E-03</totfact>
</mgrwt>
</event>
<event>
 6    1  0.1773638E-005  0.3842467E+04  0.7818608E-02  0.8037103E-01
         -1   -1    0    0    0  501 -0.00000000000E+00  0.00000000000E+00  0.10211969383E+04  0.10211969383E+04  0.00000000000E+00 0.  1.
          1   -1    0    0  501    0  0.00000000000E+00 -0.00000000000E+00 -0.36145206398E+04  0.36145206398E+04  0.00000000000E+00 0. -1.
         23    2    1    2    0    0 -0.86282145519E+03 -0.17143673731E+04 -0.12273271971E+04  0.22799877965E+04  0.92173476829E+02 0.  0.
         11    1    3    3    0    0 -0.45777391818E+03 -0.89054341926E+03 -0.58655297313E+03  0.11604606551E+04  0.00000000000E+00 0. -1.
        -11    1    3    3    0    0 -0.40504753701E+03 -0.82382395388E+03 -0.64077422396E+03  0.11195271414E+04  0.00000000000E+00 0.  1.
         22    1    1    2    0    0  0.86282145519E+03  0.17143673731E+04 -0.13659965044E+04  0.23557297816E+04  0.00000000000E+00 0. -1.
<mgrwt>
<rscale>  0 0.38424666E+04</rscale>
<asrwt>0</asrwt>
<pdfrwt beam="1">  1        1 0.55608009E+00 0.38424666E+04</pdfrwt>
<pdfrwt beam="2">  1       -1 0.15710722E+00 0.38424666E+04</pdfrwt>
<totfact> 0.49267542E-02</totfact>
</mgrwt>
</event>
<event>
 6    1  0.1773638E-005  0.2664311E+04  0.7818608E-02  0.8346679E-01
         -1   -1    0    0    0  501 -0.00000000000E+00  0.00000000000E+00  0.17798516028E+04  0.17798516028E+04  0.00000000000E+00 0.  1.
          1   -1    0    0  501    0  0.00000000000E+00 -0.00000000000E+00 -0.99707089766E+03  0.99707089766E+03  0.00000000000E+00 0. -1.
         23    2    1    2    0    0 -0.20926304263E+03 -0.58147178723E+03  0.16200442207E+04  0.17362925687E+04  0.90929351482E+02 0.  0.
         11    1    3    3    0    0 -0.13312386122E+03 -0.45891357426E+03  0.11749654433E+04  0.12684113781E+04  0.00000000000E+00 0. -1.
        -11    1    3    3    0    0 -0.76139181410E+02 -0.12255821296E+03  0.44507877740E+03  0.46788119069E+03  0.00000000000E+00 0.  1.
         22    1    1    2    0    0  0.20926304263E+03  0.58147178723E+03 -0.83726351553E+03  0.10406299317E+04  0.00000000000E+00 0. -1.
<mgrwt>
<rscale>  0 0.26643110E+04</rscale>
<asrwt>0</asrwt>
<pdfrwt beam="1">  1        1 0.15339552E+00 0.26643110E+04</pdfrwt>
<pdfrwt beam="2">  1       -1 0.27382332E+00 0.26643110E+04</pdfrwt>
<totfact> 0.65013556E-01</totfact>
</mgrwt>
</event>
<event>
 6    1  0.1773638E-005  0.7925366E+03  0.7818608E-02  0.9570883E-01
         -1   -1    0    0    0  501 -0.00000000000E+00  0.00000000000E+00  0.26023252300E+03  0.26023252300E+03  0.00000000000E+00 0.  1.
          1   -1    0    0  501    0  0.00000000000E+00 -0.00000000000E+00 -0.60341637674E+03  0.60341637674E+03  0.00000000000E+00 0. -1.
         23    2    1    2    0    0 -0.30525811492E+03  0.11902486200E+03 -0.40653394037E+03  0.52993844444E+03  0.90639261455E+02 0.  0.
         11    1    3    3    0    0 -0.15670131496E+03  0.10580795038E+03 -0.25350979075E+03  0.31625596987E+03  0.00000000000E+00 0. -1.
        -11    1    3    3    0    0 -0.14855679997E+03  0.13216911620E+02 -0.15302414962E+03  0.21368247456E+03  0.00000000000E+00 0.  1.
         22    1    1    2    0    0  0.30525811492E+03 -0.11902486200E+03  0.63350086625E+02  0.33371045530E+03  0.00000000000E+00 0.  1.
<mgrwt>
<rscale>  0 0.79253660E+03</rscale>
<asrwt>0</asrwt>
<pdfrwt beam="1">  1        1 0.92833289E-01 0.79253660E+03</pdfrwt>
<pdfrwt beam="2">  1       -1 0.40035773E-01 0.79253660E+03</pdfrwt>
<totfact> 0.20879524E+02</totfact>
</mgrwt>
</event>
<event>
 6    1  0.1773638E-005  0.6551978E+03  0.7818608E-02  0.9797074E-01
          1   -1    0    0  501    0  0.00000000000E+00  0.00000000000E+00  0.16410691292E+04  0.16410691292E+04  0.00000000000E+00 0. -1.
         -1   -1    0    0    0  501 -0.00000000000E+00 -0.00000000000E+00 -0.65397030469E+02  0.65397030469E+02  0.00000000000E+00 0.  1.
         23    2    1    2    0    0  0.21982890810E+03  0.61068101056E+02  0.13919200536E+04  0.14135175706E+04  0.92392774171E+02 0.  0.
         13    1    3    3    0    0  0.58639213170E+02  0.54020723064E+02  0.33522697235E+03  0.34457788500E+03  0.00000000000E+00 0. -1.
        -13    1    3    3    0    0  0.16118969493E+03  0.70473779916E+01  0.10566930813E+04  0.10689396855E+04  0.00000000000E+00 0.  1.
         22    1    1    2    0    0 -0.21982890810E+03 -0.61068101056E+02  0.18375204513E+03  0.29294858916E+03  0.00000000000E+00 0.  1.
<mgrwt>
<rscale>  0 0.65519783E+03</rscale>
<asrwt>0</asrwt>
<pdfrwt beam="1">  1        1 0.25247214E+00 0.65519783E+03</pdfrwt>
<pdfrwt beam="2">  1       -1 0.10061083E-01 0.65519783E+03</pdfrwt>
<totfact> 0.33577656E+02</totfact>
</mgrwt>
</event>
<event>
 6    1  0.1773638E-005  0.2142909E+04  0.7818608E-02  0.8542574E-01
          2   -1    0    0  501    0  0.00000000000E+00  0.00000000000E+00  0.22863374880E+04  0.22863374880E+04  0.00000000000E+00 0. -1.
         -2   -1    0    0    0  501 -0.00000000000E+00 -0.00000000000E+00 -0.50211957545E+03  0.50211957545E+03  0.00000000000E+00 0.  1.
         23    2    1    2    0    0 -0.26646227039E+03 -0.60404850506E+03 -0.20177429526E+03  0.69560212640E+03  0.85280208819E+02 0.  0.
         13    1    3    3    0    0 -0.15348660540E+03 -0.32806942257E+03 -0.15405821900E+03  0.39360083702E+03  0.00000000000E+00 0.  1.
        -13    1    3    3    0    0 -0.11297566499E+03 -0.27597908250E+03 -0.47716076263E+02  0.30200128939E+03  0.00000000000E+00 0. -1.
         22    1    1    2    0    0  0.26646227039E+03  0.60404850506E+03  0.19859922078E+04  0.20928549370E+04  0.00000000000E+00 0. -1.
<mgrwt>
<rscale>  0 0.21429091E+04</rscale>
<asrwt>0</asrwt>
<pdfrwt beam="1">  1        2 0.35174422E+00 0.21429091E+04</pdfrwt>
<pdfrwt beam="2">  1       -2 0.77249167E-01 0.21429091E+04</pdfrwt>
<totfact> 0.63365923E+00</totfact>
</mgrwt>
</event>
<event>
 6    1  0.1773638E-005  0.3477774E+04  0.7818608E-02  0.8119077E-01
         -2   -1    0    0    0  501 -0.00000000000E+00  0.00000000000E+00  0.26124776871E+04  0.26124776871E+04  0.00000000000E+00 0. -1.
          2   -1    0    0  501    0  0.00000000000E+00 -0.00000000000E+00 -0.11574180204E+04  0.11574180204E+04  0.00000000000E+00 0.  1.
         23    2    1    2    0    0  0.13397384242E+04  0.77481284121E+03 -0.12850152549E+03  0.15556463915E+04  0.91044325246E+02 0.  0.
         11    1    3    3    0    0  0.39153881001E+03  0.17945585993E+03 -0.32951624368E+02  0.43196395098E+03  0.00000000000E+00 0. -1.
        -11    1    3    3    0    0  0.94819961420E+03  0.59535698129E+03 -0.95549901126E+02  0.11236824405E+04  0.00000000000E+00 0.  1.
         22    1    1    2    0    0 -0.13397384242E+04 -0.77481284121E+03  0.15835611921E+04  0.22142493160E+04  0.00000000000E+00 0. -1.
<mgrwt>
<rscale>  0 0.34777744E+04</rscale>
<asrwt>0</asrwt>
<pdfrwt beam="1">  1        2 0.17806431E+00 0.34777744E+04</pdfrwt>
<pdfrwt beam="2">  1       -2 0.40191964E+00 0.34777744E+04</pdfrwt>
<totfact> 0.11916384E-01</totfact>
</mgrwt>
</event>
<event>
 6    1  0.1773638E-005  0.1825357E+04  0.7818608E-02  0.8692930E-01
         -2   -1    0    0    0  501 -0.00000000000E+00  0.00000000000E+00  0.42058729949E+03  0.42058729949E+03  0.00000000000E+00 0.  1.
          2   -1    0    0  501    0  0.00000000000E+00 -0.00000000000E+00 -0.19805217915E+04  0.19805217915E+04  0.00000000000E+00 0. -1.
         23    2    1    2    0    0  0.30669760513E+03  0.81721051595E+03 -0.11224278610E+04  0.14247339067E+04  0.90144069913E+02 0.  0.
         13    1    3    3    0    0  0.23021162036E+03  0.50152394716E+03 -0.67593852408E+03  0.87259185652E+03  0.00000000000E+00 0.  1.
        -13    1    3    3    0    0  0.76485984764E+02  0.31568656879E+03 -0.44648933695E+03  0.55214205019E+03  0.00000000000E+00 0. -1.
         22    1    1    2    0    0 -0.30669760513E+03 -0.81721051595E+03 -0.43750663101E+03  0.97637518432E+03  0.00000000000E+00 0.  1.
<mgrwt>
<rscale>  0 0.18253573E+04</rscale>
<asrwt>0</asrwt>
<pdfrwt beam="1">  1        2 0.30469566E+00 0.18253573E+04</pdfrwt>
<pdfrwt beam="2">  1       -2 0.64705738E-01 0.18253573E+04</pdfrwt>
<totfact> 0.14227323E+01</totfact>
</mgrwt>
</event>
<event>
 6    1  0.1773638E-005  0.3821512E+04  0.7818608E-02  0.8041554E-01
          2   -1    0    0  501    0  0.00000000000E+00  0.00000000000E+00  0.30098234362E+04  0.30098234362E+04  0.00000000000E+00 0. -1.
         -2   -1    0    0    0  501 -0.00000000000E+00 -0.00000000000E+00 -0.12130244292E+04  0.12130244292E+04  0.00000000000E+00 0.  1.
         23    2    1    2    0    0  0.11717882125E+04 -0.12651890268E+04 -0.76916241608E+01  0.17268556125E+04  0.90444772150E+02 0.  0.
         13    1    3    3    0    0  0.80618715009E+03 -0.81060245417E+03 -0.18357046554E+02  0.11433945255E+04  0.00000000000E+00 0. -1.
        -13    1    3    3    0    0  0.36560106245E+03 -0.45458657266E+03  0.10665422393E+02  0.58346108709E+03  0.00000000000E+00 0.  1.
         22    1    1    2    0    0 -0.11717882125E+04  0.12651890268E+04  0.18044906311E+04  0.24959922529E+04  0.00000000000E+00 0. -1.
<mgrwt>
<rscale>  0 0.38215125E+04</rscale>
<asrwt>0</asrwt>
<pdfrwt beam="1">  1        2 0.46304976E+00 0.38215125E+04</pdfrwt>
<pdfrwt beam="2">  1       -2 0.18661914E+00 0.38215125E+04</pdfrwt>
<totfact> 0.22430418E-01</totfact>
</mgrwt>
</event>
<event>
 6    1  0.1773638E-005  0.2416396E+04  0.7818608E-02  0.8433391E-01
          2   -1    0    0  501    0  0.00000000000E+00  0.00000000000E+00  0.13109853224E+04  0.13109853224E+04  0.00000000000E+00 0. -1.
         -2   -1    0    0    0  501 -0.00000000000E+00 -0.00000000000E+00 -0.11134694374E+04  0.11134694374E+04  0.00000000000E+00 0.  1.
         23    2    1    2    0    0 -0.22933254262E+03 -0.15110508698E+03 -0.10799115814E+04  0.11178381005E+04  0.89032762416E+02 0.  0.
         13    1    3    3    0    0 -0.99883357650E+02 -0.19922250560E+02 -0.31595689621E+03  0.33196738012E+03  0.00000000000E+00 0.  1.
        -13    1    3    3    0    0 -0.12944918497E+03 -0.13118283642E+03 -0.76395468520E+03  0.78587072034E+03  0.00000000000E+00 0. -1.
         22    1    1    2    0    0  0.22933254262E+03  0.15110508698E+03  0.12774274664E+04  0.13066166593E+04  0.00000000000E+00 0. -1.
<mgrwt>
<rscale>  0 0.24163957E+04</rscale>
<asrwt>0</asrwt>
<pdfrwt beam="1">  1        2 0.20169005E+00 0.24163957E+04</pdfrwt>
<pdfrwt beam="2">  1       -2 0.17130299E+00 0.24163957E+04</pdfrwt>
<totfact> 0.30522758E+00</totfact>
</mgrwt>
</event>
<event>
 6    1  0.1773638E-005  0.4741921E+04  0.7818608E-02  0.7869600E-01
         -2   -1    0    0    0  501 -0.00000000000E+00  0.00000000000E+00  0.15827775497E+04  0.15827775497E+04  0.00000000000E+00 0.  1.
          2   -1    0    0  501    0  0.00000000000E+00 -0.00000000000E+00 -0.35516387731E+04  0.35516387731E+04  0.00000000000E+00 0. -1.
         23    2    1    2    0    0 -0.61621258579E+03 -0.11510249326E+04 -0.31265481188E+04  0.33894764115E+04  0.93117444101E+02 0.  0.
         13    1    3    3    0    0 -0.24803576315E+03 -0.38040177364E+03 -0.10319737034E+04  0.11274737131E+04  0.00000000000E+00 0.  1.
        -13    1    3    3    0    0 -0.36817682264E+03 -0.77062315893E+03 -0.20945744154E+04  0.22620026984E+04  0.00000000000E+00 0. -1.
         22    1    1    2    0    0  0.61621258579E+03  0.11510249326E+04  0.11576868954E+04  0.17449399113E+04  0.00000000000E+00 0.  1.
<mgrwt>
<rscale>  0 0.47419212E+04</rscale>
<asrwt>0</asrwt>
<pdfrwt beam="1">  1        2 0.54640597E+00 0.47419212E+04</pdfrwt>
<pdfrwt beam="2">  1       -2 0.24350424E+00 0.47419212E+04</pdfrwt>
<totfact> 0.39062055E-02</totfact>
</mgrwt>
</event>
<event>
 6    1  0.1773638E-005  0.2795495E+04  0.7818608E-02  0.8304668E-01
         -1   -1    0    0    0  501 -0.00000000000E+00  0.00000000000E+00  0.64471018929E+03  0.64471018929E+03  0.00000000000E+00 0.  1.
          1   -1    0    0  501    0  0.00000000000E+00 -0.00000000000E+00 -0.30303505440E+04  0.30303505440E+04  0.00000000000E+00 0. -1.
         23    2    1    2    0    0  0.11886079655E+03  0.12426480682E+04 -0.37185512893E+03  0.13057500643E+04  0.91678150066E+02 0.  0.
         11    1    3    3    0    0  0.10204824904E+03  0.79423391724E+03 -0.20108697095E+03  0.82562541767E+03  0.00000000000E+00 0. -1.
        -11    1    3    3    0    0  0.16812547507E+02  0.44841415098E+03 -0.17076815797E+03  0.48012464666E+03  0.00000000000E+00 0.  1.
         22    1    1    2    0    0 -0.11886079655E+03 -0.12426480682E+04 -0.20137852258E+04  0.23693106689E+04  0.00000000000E+00 0. -1.
<mgrwt>
<rscale>  0 0.27954949E+04</rscale>
<asrwt>0</asrwt>
<pdfrwt beam="1">  1        1 0.46620776E+00 0.27954949E+04</pdfrwt>
<pdfrwt beam="2">  1       -1 0.99186187E-01 0.27954949E+04</pdfrwt>
<totfact> 0.47738099E-01</totfact>
</mgrwt>
</event>
<event>
 6    1  0.1773638E-005  0.4103996E+04  0.7818608E-02  0.7983890E-01
          2   -1    0    0  501    0  0.00000000000E+00  0.00000000000E+00  0.34270574431E+04  0.34270574431E+04  0.00000000000E+00 0. -1.
         -2   -1    0    0    0  501 -0.00000000000E+00 -0.00000000000E+00 -0.12286623453E+04  0.12286623453E+04  0.00000000000E+00 0.  1.
         23    2    1    2    0    0 -0.16095855130E+04  0.56853467875E+03 -0.19016715180E+03  0.17198678125E+04  0.88230053272E+02 0.  0.
         11    1    3    3    0    0 -0.13685571125E+04  0.44959557605E+03 -0.16393023956E+03  0.14498130485E+04  0.00000000000E+00 0.  1.
        -11    1    3    3    0    0 -0.24102840045E+03  0.11893910270E+03 -0.26236912240E+02  0.27005476397E+03  0.00000000000E+00 0. -1.
         22    1    1    2    0    0  0.16095855130E+04 -0.56853467875E+03  0.23885622495E+04  0.29358519759E+04  0.00000000000E+00 0. -1.
<mgrwt>
<rscale>  0 0.41039963E+04</rscale>
<asrwt>0</asrwt>
<pdfrwt beam="1">  1        2 0.52723960E+00 0.41039963E+04</pdfrwt>
<pdfrwt beam="2">  1       -2 0.18902498E+00 0.41039963E+04</pdfrwt>
<totfact> 0.11227511E-01</totfact>
</mgrwt>
</event>
<event>
 6    1  0.1773638E-005  0.1114225E+04  0.7818608E-02  0.9191437E-01
          1   -1    0    0  501    0  0.00000000000E+00  0.00000000000E+00  0.10933561972E+04  0.10933561972E+04  0.00000000000E+00 0. -1.
         -1   -1    0    0    0  501 -0.00000000000E+00 -0.00000000000E+00 -0.28387325447E+03  0.28387325447E+03  0.00000000000E+00 0.  1.
         23    2    1    2    0    0 -0.69513369486E+02 -0.21286227647E+03 -0.21824020702E+03  0.32539423177E+03  0.90056431375E+02 0.  0.
         13    1    3    3    0    0 -0.59718761652E+02 -0.10698864510E+03 -0.16763497956E+03  0.20764004201E+03  0.00000000000E+00 0.  1.
        -13    1    3    3    0    0 -0.97946078343E+01 -0.10587363136E+03 -0.50605227459E+02  0.11775418976E+03  0.00000000000E+00 0. -1.
         22    1    1    2    0    0  0.69513369486E+02  0.21286227647E+03  0.10277231498E+04  0.10518352199E+04  0.00000000000E+00 0. -1.
<mgrwt>
<rscale>  0 0.11142254E+04</rscale>
<asrwt>0</asrwt>
<pdfrwt beam="1">  1        1 0.16820864E+00 0.11142254E+04</pdfrwt>
<pdfrwt beam="2">  1       -1 0.43672809E-01 0.11142254E+04</pdfrwt>
<totfact> 0.66088030E+01</totfact>
</mgrwt>
</event>
<event>
 6    1  0.1773638E-005  0.9569824E+03  0.7818608E-02  0.9357026E-01
         -1   -1    0    0    0  501 -0.00000000000E+00  0.00000000000E+00  0.13150381461E+03  0.13150381461E+03  0.00000000000E+00 0.  1.
          1   -1    0    0  501    0  0.00000000000E+00 -0.00000000000E+00 -0.17410431700E+04  0.17410431700E+04  0.00000000000E+00 0. -1.
         23    2    1    2    0    0 -0.20788219694E+03 -0.13689293626E+03 -0.16017025139E+04  0.16235166654E+04  0.91655529122E+02 0.  0.
         13    1    3    3    0    0 -0.19726149924E+03 -0.12034095930E+03 -0.12443078176E+04  0.12655812856E+04  0.00000000000E+00 0.  1.
        -13    1    3    3    0    0 -0.10620697701E+02 -0.16551976964E+02 -0.35739469634E+03  0.35793537982E+03  0.00000000000E+00 0. -1.
         22    1    1    2    0    0  0.20788219694E+03  0.13689293626E+03 -0.78368414984E+01  0.24903031921E+03  0.00000000000E+00 0.  1.
<mgrwt>
<rscale>  0 0.95698238E+03</rscale>
<asrwt>0</asrwt>
<pdfrwt beam="1">  1        1 0.26785278E+00 0.95698238E+03</pdfrwt>
<pdfrwt beam="2">  1       -1 0.20231357E-01 0.95698238E+03</pdfrwt>
<totfact> 0.90333528E+01</totfact>
</mgrwt>
</event>
<event>
 6    1  0.1773638E-005  0.1742716E+04  0.7818608E-02  0.8737370E-01
         -1   -1    0    0    0  501 -0.00000000000E+00  0.00000000000E+00  0.34460779105E+03  0.34460779105E+03  0.00000000000E+00 0.  1.
          1   -1    0    0  501    0  0.00000000000E+00 -0.00000000000E+00 -0.22032710467E+04  0.22032710467E+04  0.00000000000E+00 0. -1.
         23    2    1    2    0    0 -0.31133519023E+03  0.60332795765E+03 -0.13883424191E+03  0.69889369405E+03  0.90792200637E+02 0.  0.
         11    1    3    3    0    0 -0.99571138722E+02  0.18647782433E+03 -0.86535707954E+02  0.22842245814E+03  0.00000000000E+00 0. -1.
        -11    1    3    3    0    0 -0.21176405150E+03  0.41685013332E+03 -0.52298533956E+02  0.47047123590E+03  0.00000000000E+00 0.  1.
         22    1    1    2    0    0  0.31133519023E+03 -0.60332795765E+03 -0.17198290137E+04  0.18489851437E+04  0.00000000000E+00 0. -1.
<mgrwt>
<rscale>  0 0.17427155E+04</rscale>
<asrwt>0</asrwt>
<pdfrwt beam="1">  1        1 0.33896478E+00 0.17427155E+04</pdfrwt>
<pdfrwt beam="2">  1       -1 0.53016583E-01 0.17427155E+04</pdfrwt>
<totfact> 0.73763542E+00</totfact>
</mgrwt>
</event>
<event>
 6    1  0.1773638E-005  0.1378500E+04  0.7818608E-02  0.8969530E-01
          1   -1    0    0  501    0  0.00000000000E+00  0.00000000000E+00  0.36806680831E+03  0.36806680831E+03  0.00000000000E+00 0. -1.
         -1   -1    0    0    0  501 -0.00000000000E+00 -0.00000000000E+00 -0.12907052226E+04  0.12907052226E+04  0.00000000000E+00 0.  1.
         23    2    1    2    0    0  0.33924496919E+03 -0.18215328847E+02  0.25662758907E+03  0.43154456461E+03  0.70384973178E+02 0.  0.
         11    1    3    3    0    0  0.13822071575E+03 -0.40430553142E+02  0.93433745277E+02  0.17166671386E+03  0.00000000000E+00 0. -1.
        -11    1    3    3    0    0  0.20102425343E+03  0.22215224296E+02  0.16319384380E+03  0.25987785075E+03  0.00000000000E+00 0.  1.
         22    1    1    2    0    0 -0.33924496919E+03  0.18215328847E+02 -0.11792660033E+04  0.12272274662E+04  0.00000000000E+00 0.  1.
<mgrwt>
<rscale>  0 0.13785003E+04</rscale>
<asrwt>0</asrwt>
<pdfrwt beam="1">  1        1 0.56625663E-01 0.13785003E+04</pdfrwt>
<pdfrwt beam="2">  1       -1 0.19857003E+00 0.13785003E+04</pdfrwt>
<totfact> 0.10076583E+01</totfact>
</mgrwt>
</event>
<event>
 6    1  0.1773638E-005  0.1741176E+04  0.7818608E-02  0.8738222E-01
         -2   -1    0    0    0  501 -0.00000000000E+00  0.00000000000E+00  0.39737090669E+03  0.39737090669E+03  0.00000000000E+00 0. -1.
          2   -1    0    0  501    0  0.00000000000E+00 -0.00000000000E+00 -0.19073452369E+04  0.19073452369E+04  0.00000000000E+00 0.  1.
         23    2    1    2    0    0 -0.54797735335E+03  0.67307654382E+03 -0.78665277307E+03  0.11748908081E+04  0.90744762938E+02 0.  0.
         13    1    3    3    0    0 -0.39843400067E+03  0.42491103422E+03 -0.50779951376E+03  0.77276088544E+03  0.00000000000E+00 0.  1.
        -13    1    3    3    0    0 -0.14954335267E+03  0.24816550960E+03 -0.27885325931E+03  0.40212992268E+03  0.00000000000E+00 0. -1.
         22    1    1    2    0    0  0.54797735335E+03 -0.67307654382E+03 -0.72332155710E+03  0.11298253354E+04  0.00000000000E+00 0.  1.
<mgrwt>
<rscale>  0 0.17411760E+04</rscale>
<asrwt>0</asrwt>
<pdfrwt beam="1">  1        2 0.29343773E+00 0.17411760E+04</pdfrwt>
<pdfrwt beam="2">  1       -2 0.61133985E-01 0.17411760E+04</pdfrwt>
<totfact> 0.17758804E+01</totfact>
</mgrwt>
</event>
<event>
 6    1  0.1773638E-005  0.4383513E+04  0.7818608E-02  0.7931354E-01
          2   -1    0    0  501    0  0.00000000000E+00  0.00000000000E+00  0.37137398131E+04  0.37137398131E+04  0.00000000000E+00 0. -1.
         -2   -1    0    0    0  501 -0.00000000000E+00 -0.00000000000E+00 -0.12935201965E+04  0.12935201965E+04  0.00000000000E+00 0.  1.
         23    2    1    2    0    0  0.79972456139E+03 -0.49042687243E+03  0.34720565245E+04  0.35978492206E+04  0.96252862635E+02 0.  0.
         11    1    3    3    0    0  0.53239572166E+02 -0.28292804887E+02  0.32881853911E+03  0.33430011444E+03  0.00000000000E+00 0. -1.
        -11    1    3    3    0    0  0.74648498922E+03 -0.46213406754E+03  0.31432379854E+04  0.32635491061E+04  0.00000000000E+00 0.  1.
         22    1    1    2    0    0 -0.79972456139E+03  0.49042687243E+03 -0.10518369079E+04  0.14094107890E+04  0.00000000000E+00 0.  1.
<mgrwt>
<rscale>  0 0.43835134E+04</rscale>
<asrwt>0</asrwt>
<pdfrwt beam="1">  1        2 0.57134458E+00 0.43835134E+04</pdfrwt>
<pdfrwt beam="2">  1       -2 0.19900311E+00 0.43835134E+04</pdfrwt>
<totfact> 0.58726022E-02</totfact>
</mgrwt>
</event>
<event>
 6    1  0.1773638E-005  0.1351836E+04  0.7818608E-02  0.8989439E-01
         -2   -1    0    0    0  501 -0.00000000000E+00  0.00000000000E+00  0.10116118183E+04  0.10116118183E+04  0.00000000000E+00 0.  1.
          2   -1    0    0  501    0  0.00000000000E+00 -0.00000000000E+00 -0.45162105116E+03  0.45162105116E+03  0.00000000000E+00 0. -1.
         23    2    1    2    0    0  0.15556061935E+03  0.55075263149E+03 -0.10167487696E+03  0.58840203326E+03  0.91387114830E+02 0.  0.
         13    1    3    3    0    0  0.16386717719E+03  0.45875371236E+03 -0.83077035958E+02  0.49417528699E+03  0.00000000000E+00 0. -1.
        -13    1    3    3    0    0 -0.83065578356E+01  0.91998919131E+02 -0.18597840997E+02  0.94226746278E+02  0.00000000000E+00 0.  1.
         22    1    1    2    0    0 -0.15556061935E+03 -0.55075263149E+03  0.66166564407E+03  0.87483083618E+03  0.00000000000E+00 0.  1.
<mgrwt>
<rscale>  0 0.13518361E+04</rscale>
<asrwt>0</asrwt>
<pdfrwt beam="1">  1        2 0.69480162E-01 0.13518361E+04</pdfrwt>
<pdfrwt beam="2">  1       -2 0.15563259E+00 0.13518361E+04</pdfrwt>
<totfact> 0.18348336E+01</totfact>
</mgrwt>
</event>
<event>
 6    1  0.1773638E-005  0.1986489E+04  0.7818608E-02  0.8612964E-01
         -2   -1    0    0    0  501 -0.00000000000E+00  0.00000000000E+00  0.36111007570E+03  0.36111007570E+03  0.00000000000E+00 0.  1.
          2   -1    0    0  501    0  0.00000000000E+00 -0.00000000000E+00 -0.27319487865E+04  0.27319487865E+04  0.00000000000E+00 0. -1.
         23    2    1    2    0    0 -0.57103392983E+03  0.65843174765E+03 -0.19235338417E+04  0.21134192544E+04  0.83345000521E+02 0.  0.
         13    1    3    3    0    0 -0.17847013176E+03  0.25925083573E+03 -0.73936563988E+03  0.80356961938E+03  0.00000000000E+00 0. -1.
        -13    1    3    3    0    0 -0.39256379807E+03  0.39918091193E+03 -0.11841682019E+04  0.13098496350E+04  0.00000000000E+00 0.  1.
         22    1    1    2    0    0  0.57103392983E+03 -0.65843174765E+03 -0.44730486904E+03  0.97963960781E+03  0.00000000000E+00 0.  1.
<mgrwt>
<rscale>  0 0.19864886E+04</rscale>
<asrwt>0</asrwt>
<pdfrwt beam="1">  1        2 0.42029981E+00 0.19864886E+04</pdfrwt>
<pdfrwt beam="2">  1       -2 0.55555397E-01 0.19864886E+04</pdfrwt>
<totfact> 0.72055186E+00</totfact>
</mgrwt>
</event>
<event>
 6    1  0.1773638E-005  0.6686803E+03  0.7818608E-02  0.9772345E-01
         -1   -1    0    0    0  501 -0.00000000000E+00  0.00000000000E+00  0.89154146402E+03  0.89154146402E+03  0.00000000000E+00 0.  1.
          1   -1    0    0  501    0  0.00000000000E+00 -0.00000000000E+00 -0.12538210897E+03  0.12538210897E+03  0.00000000000E+00 0. -1.
         23    2    1    2    0    0 -0.12063750506E+03 -0.12840440484E+03  0.81115615525E+03  0.83508350360E+03  0.91373141451E+02 0.  0.
         13    1    3    3    0    0 -0.45133384500E+02 -0.43561002835E+02  0.49863199466E+03  0.50256188620E+03  0.00000000000E+00 0.  1.
        -13    1    3    3    0    0 -0.75504120563E+02 -0.84843402006E+02  0.31252416059E+03  0.33252161740E+03  0.00000000000E+00 0. -1.
         22    1    1    2    0    0  0.12063750506E+03  0.12840440484E+03 -0.44996800192E+02  0.18184006940E+03  0.00000000000E+00 0. -1.
<mgrwt>
<rscale>  0 0.66868034E+03</rscale>
<asrwt>0</asrwt>
<pdfrwt beam="1">  1        1 0.19289556E-01 0.66868034E+03</pdfrwt>
<pdfrwt beam="2">  1       -1 0.13716022E+00 0.66868034E+03</pdfrwt>
<totfact> 0.12409968E+02</totfact>
</mgrwt>
</event>
<event>
 6    1  0.1773638E-005  0.1352221E+04  0.7818608E-02  0.8989148E-01
         -1   -1    0    0    0  501 -0.00000000000E+00  0.00000000000E+00  0.32321641864E+03  0.32321641864E+03  0.00000000000E+00 0.  1.
          1   -1    0    0  501    0  0.00000000000E+00 -0.00000000000E+00 -0.14143014754E+04  0.14143014754E+04  0.00000000000E+00 0. -1.
         23    2    1    2    0    0 -0.59405392324E+03 -0.15641099644E+03 -0.90138205595E+03  0.10945935656E+04  0.90999998127E+02 0.  0.
         13    1    3    3    0    0 -0.55224466604E+03 -0.12126591678E+03 -0.83830933939E+03  0.10111588116E+04  0.00000000000E+00 0. -1.
        -13    1    3    3    0    0 -0.41809257195E+02 -0.35145079659E+02 -0.63072716556E+02  0.83434754061E+02  0.00000000000E+00 0.  1.
         22    1    1    2    0    0  0.59405392324E+03  0.15641099644E+03 -0.18970300081E+03  0.64292432839E+03  0.00000000000E+00 0. -1.
<mgrwt>
<rscale>  0 0.13522211E+04</rscale>
<asrwt>0</asrwt>
<pdfrwt beam="1">  1        1 0.21758484E+00 0.13522211E+04</pdfrwt>
<pdfrwt beam="2">  1       -1 0.49725603E-01 0.13522211E+04</pdfrwt>
<totfact> 0.29796585E+01</totfact>
</mgrwt>
</event>
<event>
 6    1  0.1773638E-005  0.1316461E+04  0.7818608E-02  0.9016613E-01
          2   -1    0    0  501    0  0.00000000000E+00  0.00000000000E+00  0.45393908310E+03  0.45393908310E+03  0.00000000000E+00 0. -1.
         -2   -1    0    0    0  501 -0.00000000000E+00 -0.00000000000E+00 -0.95446088779E+03  0.95446088779E+03  0.00000000000E+00 0.  1.
         23    2    1    2    0    0 -0.31472585247E+03  0.26280495739E+03  0.29465690107E+03  0.51373356269E+03  0.94766429972E+02 0.  0.
         13    1    3    3    0    0 -0.20137113694E+03  0.12697727014E+03  0.21068759858E+03  0.31790380010E+03  0.00000000000E+00 0.  1.
        -13    1    3    3    0    0 -0.11335471553E+03  0.13582768725E+03  0.83969302496E+02  0.19582976259E+03  0.00000000000E+00 0. -1.
         22    1    1    2    0    0  0.31472585247E+03 -0.26280495739E+03 -0.79517870576E+03  0.89466640819E+03  0.00000000000E+00 0.  1.
<mgrwt>
<rscale>  0 0.13164606E+04</rscale>
<asrwt>0</asrwt>
<pdfrwt beam="1">  1        2 0.69836783E-01 0.13164606E+04</pdfrwt>
<pdfrwt beam="2">  1       -2 0.14684014E+00 0.13164606E+04</pdfrwt>
<totfact> 0.21349542E+01</totfact>
</mgrwt>
</event>
<event>
 6    1  0.1773638E-005  0.2456214E+04  0.7818608E-02  0.8418753E-01
          1   -1    0    0  501    0  0.00000000000E+00  0.00000000000E+00  0.13754746597E+04  0.13754746597E+04  0.00000000000E+00 0. -1.
         -1   -1    0    0    0  501 -0.00000000000E+00 -0.00000000000E+00 -0.10965285429E+04  0.10965285429E+04  0.00000000000E+00 0.  1.
         23    2    1    2    0    0  0.38429948701E+03 -0.77917440367E+03 -0.73152650953E+03  0.11393915655E+04  0.91012407382E+02 0.  0.
         11    1    3    3    0    0  0.13789385165E+03 -0.19150619469E+03 -0.21159624109E+03  0.31695789337E+03  0.00000000000E+00 0.  1.
        -11    1    3    3    0    0  0.24640563536E+03 -0.58766820897E+03 -0.51993026844E+03  0.82243367211E+03  0.00000000000E+00 0. -1.
         22    1    1    2    0    0 -0.38429948701E+03  0.77917440367E+03  0.10104726263E+04  0.13326116372E+04  0.00000000000E+00 0. -1.
<mgrwt>
<rscale>  0 0.24562143E+04</rscale>
<asrwt>0</asrwt>
<pdfrwt beam="1">  1        1 0.21161149E+00 0.24562143E+04</pdfrwt>
<pdfrwt beam="2">  1       -1 0.16869670E+00 0.24562143E+04</pdfrwt>
<totfact> 0.17936700E+00</totfact>
</mgrwt>
</event>
<event>
 6    1  0.1773638E-005  0.9896924E+03  0.7818608E-02  0.9319923E-01
         -2   -1    0    0    0  501 -0.00000000000E+00  0.00000000000E+00  0.17573573261E+03  0.17573573261E+03  0.00000000000E+00 0. -1.
          2   -1    0    0  501    0  0.00000000000E+00 -0.00000000000E+00 -0.13934147003E+04  0.13934147003E+04  0.00000000000E+00 0.  1.
         23    2    1    2    0    0  0.47215487433E+03 -0.10947660351E+03 -0.73484520437E+03  0.88501316960E+03  0.91298871353E+02 0.  0.
         11    1    3    3    0    0  0.34107607002E+03 -0.59440165244E+02 -0.58471454961E+03  0.67952713214E+03  0.00000000000E+00 0. -1.
        -11    1    3    3    0    0  0.13107880431E+03 -0.50036438267E+02 -0.15013065476E+03  0.20548603746E+03  0.00000000000E+00 0.  1.
         22    1    1    2    0    0 -0.47215487433E+03  0.10947660351E+03 -0.48283376337E+03  0.68413726336E+03  0.00000000000E+00 0.  1.
<mgrwt>
<rscale>  0 0.98969238E+03</rscale>
<asrwt>0</asrwt>
<pdfrwt beam="1">  1        2 0.21437149E+00 0.98969238E+03</pdfrwt>
<pdfrwt beam="2">  1       -2 0.27036267E-01 0.98969238E+03</pdfrwt>
<totfact> 0.18108101E+02</totfact>
</mgrwt>
</event>
<event>
 6    1  0.1773638E-005  0.1745252E+04  0.7818608E-02  0.8735968E-01
         -2   -1    0    0    0  501 -0.00000000000E+00  0.00000000000E+00  0.44416333011E+03  0.44416333011E+03  0.00000000000E+00 0.  1.
          2   -1    0    0  501    0  0.00000000000E+00 -0.00000000000E+00 -0.17144064047E+04  0.17144064047E+04  0.00000000000E+00 0. -1.
         23    2    1    2    0    0  0.43262172317E+03  0.18163085996E+03 -0.15433387860E+04  0.16156769349E+04  0.91465976006E+02 0.  0.
         11    1    3    3    0    0  0.17185070571E+03  0.49044868659E+02 -0.72221213008E+03  0.74399490928E+03  0.00000000000E+00 0.  1.
        -11    1    3    3    0    0  0.26077101746E+03  0.13258599130E+03 -0.82112665597E+03  0.87168202561E+03  0.00000000000E+00 0. -1.
         22    1    1    2    0    0 -0.43262172317E+03 -0.18163085996E+03  0.27309571142E+03  0.54289279996E+03  0.00000000000E+00 0.  1.
<mgrwt>
<rscale>  0 0.17452524E+04</rscale>
<asrwt>0</asrwt>
<pdfrwt beam="1">  1        2 0.26375483E+00 0.17452524E+04</pdfrwt>
<pdfrwt beam="2">  1       -2 0.68332819E-01 0.17452524E+04</pdfrwt>
<totfact> 0.17883348E+01</totfact>
</mgrwt>
</event>
<event>
 6    1  0.1773638E-005  0.3435937E+04  0.7818608E-02  0.8129142E-01
         -1   -1    0    0    0  501 -0.00000000000E+00  0.00000000000E+00  0.11528730762E+04  0.11528730762E+04  0.00000000000E+00 0.  1.
          1   -1    0    0  501    0  0.00000000000E+00 -0.00000000000E+00 -0.25600520425E+04  0.25600520425E+04  0.00000000000E+00 0. -1.
         23    2    1    2    0    0  0.52394166903E+03 -0.12690922155E+03 -0.24654261746E+04  0.25252770323E+04  0.89872378521E+02 0.  0.
         13    1    3    3    0    0  0.15326348682E+03 -0.73772372662E+02 -0.87277012061E+03  0.88919049860E+03  0.00000000000E+00 0. -1.
        -13    1    3    3    0    0  0.37067818221E+03 -0.53136848885E+02 -0.15926560540E+04  0.16360865337E+04  0.00000000000E+00 0.  1.
         22    1    1    2    0    0 -0.52394166903E+03  0.12690922155E+03  0.10582472083E+04  0.11876480863E+04  0.00000000000E+00 0.  1.
<mgrwt>
<rscale>  0 0.34359366E+04</rscale>
<asrwt>0</asrwt>
<pdfrwt beam="1">  1        1 0.39385416E+00 0.34359366E+04</pdfrwt>
<pdfrwt beam="2">  1       -1 0.17736509E+00 0.34359366E+04</pdfrwt>
<totfact> 0.21937464E-01</totfact>
</mgrwt>
</event>
<event>
 6    1  0.1773638E-005  0.1704029E+04  0.7818608E-02  0.8759070E-01
         -2   -1    0    0    0  501 -0.00000000000E+00  0.00000000000E+00  0.19394166178E+03  0.19394166178E+03  0.00000000000E+00 0.  1.
          2   -1    0    0  501    0  0.00000000000E+00 -0.00000000000E+00 -0.37430249936E+04  0.37430249936E+04  0.00000000000E+00 0. -1.
         23    2    1    2    0    0 -0.19388060149E+03 -0.78796597573E+03 -0.23577848841E+04  0.24955534398E+04  0.10078365195E+03 0.  0.
         11    1    3    3    0    0 -0.21131650595E+02 -0.12276142731E+03 -0.48170702382E+03  0.49755258164E+03  0.00000000000E+00 0. -1.
        -11    1    3    3    0    0 -0.17274895090E+03 -0.66520454842E+03 -0.18760778603E+04  0.19980008582E+04  0.00000000000E+00 0.  1.
         22    1    1    2    0    0  0.19388060149E+03  0.78796597573E+03 -0.11912984476E+04  0.14414132155E+04  0.00000000000E+00 0. -1.
<mgrwt>
<rscale>  0 0.17040287E+04</rscale>
<asrwt>0</asrwt>
<pdfrwt beam="1">  1        2 0.57584997E+00 0.17040287E+04</pdfrwt>
<pdfrwt beam="2">  1       -2 0.29837180E-01 0.17040287E+04</pdfrwt>
<totfact> 0.54138983E+00</totfact>
</mgrwt>
</event>
<event>
 6    1  0.1773638E-005  0.4724674E+04  0.7818608E-02  0.7872442E-01
          2   -1    0    0  501    0  0.00000000000E+00  0.00000000000E+00  0.14848233273E+04  0.14848233273E+04  0.00000000000E+00 0. -1.
         -2   -1    0    0    0  501 -0.00000000000E+00 -0.00000000000E+00 -0.37584506005E+04  0.37584506005E+04  0.00000000000E+00 0.  1.
         23    2    1    2    0    0 -0.10524218625E+04  0.61796323807E+03  0.11062690324E+04  0.16497840675E+04  0.92119254952E+02 0.  0.
         11    1    3    3    0    0 -0.54219839378E+03  0.33374917362E+03  0.63626088186E+03  0.90010861506E+03  0.00000000000E+00 0.  1.
        -11    1    3    3    0    0 -0.51022346867E+03  0.28421406445E+03  0.47000815054E+03  0.74967545244E+03  0.00000000000E+00 0. -1.
         22    1    1    2    0    0  0.10524218625E+04 -0.61796323807E+03 -0.33798963055E+04  0.35934898603E+04  0.00000000000E+00 0.  1.
<mgrwt>
<rscale>  0 0.47246736E+04</rscale>
<asrwt>0</asrwt>
<pdfrwt beam="1">  1        2 0.22843436E+00 0.47246736E+04</pdfrwt>
<pdfrwt beam="2">  1       -2 0.57822316E+00 0.47246736E+04</pdfrwt>
<totfact> 0.60749861E-03</totfact>
</mgrwt>
</event>
<event>
 6    1  0.1773638E-005  0.7589064E+03  0.7818608E-02  0.9621480E-01
         -1   -1    0    0    0  501 -0.00000000000E+00  0.00000000000E+00  0.11123102467E+03  0.11123102467E+03  0.00000000000E+00 0.  1.
          1   -1    0    0  501    0  0.00000000000E+00 -0.00000000000E+00 -0.12944654886E+04  0.12944654886E+04  0.00000000000E+00 0. -1.
         23    2    1    2    0    0 -0.19102724568E+03 -0.23963466735E+03 -0.20562332529E+03  0.38117725002E+03  0.95388477483E+02 0.  0.
         11    1    3    3    0    0 -0.27976661584E+02 -0.51885598324E+02 -0.88434457181E+02  0.10628011161E+03  0.00000000000E+00 0.  1.
        -11    1    3    3    0    0 -0.16305058410E+03 -0.18774906903E+03 -0.11718886811E+03  0.27489713841E+03  0.00000000000E+00 0. -1.
         22    1    1    2    0    0  0.19102724568E+03  0.23963466735E+03 -0.97761113863E+03  0.10245192632E+04  0.00000000000E+00 0. -1.
<mgrwt>
<rscale>  0 0.75890638E+03</rscale>
<asrwt>0</asrwt>
<pdfrwt beam="1">  1        1 0.19914854E+00 0.75890638E+03</pdfrwt>
<pdfrwt beam="2">  1       -1 0.17112465E-01 0.75890638E+03</pdfrwt>
<totfact> 0.24540293E+02</totfact>
</mgrwt>
</event>
<event>
 6    1  0.1773638E-005  0.2414579E+04  0.7818608E-02  0.8434066E-01
         -2   -1    0    0    0  501 -0.00000000000E+00  0.00000000000E+00  0.54458530359E+03  0.54458530359E+03  0.00000000000E+00 0.  1.
          2   -1    0    0  501    0  0.00000000000E+00 -0.00000000000E+00 -0.26764353976E+04  0.26764353976E+04  0.00000000000E+00 0. -1.
         23    2    1    2    0    0  0.11890354373E+04  0.18188560357E+03 -0.96090654888E+03  0.15423317992E+04  0.92511292206E+02 0.  0.
         11    1    3    3    0    0  0.79439311638E+03  0.89790466812E+02 -0.67614187696E+03  0.10470389625E+04  0.00000000000E+00 0. -1.
        -11    1    3    3    0    0  0.39464232090E+03  0.92095136758E+02 -0.28476467192E+03  0.49529283664E+03  0.00000000000E+00 0.  1.
         22    1    1    2    0    0 -0.11890354373E+04 -0.18188560357E+03 -0.11709435452E+04  0.16786889021E+04  0.00000000000E+00 0. -1.
<mgrwt>
<rscale>  0 0.24145785E+04</rscale>
<asrwt>0</asrwt>
<pdfrwt beam="1">  1        2 0.41175929E+00 0.24145785E+04</pdfrwt>
<pdfrwt beam="2">  1       -2 0.83782354E-01 0.24145785E+04</pdfrwt>
<totfact> 0.30671347E+00</totfact>
</mgrwt>
</event>
<event>
 6    1  0.1773638E-005  0.2539187E+04  0.7818608E-02  0.8389156E-01
          2   -1    0    0  501    0  0.00000000000E+00  0.00000000000E+00  0.32411516577E+04  0.32411516577E+04  0.00000000000E+00 0. -1.
         -2   -1    0    0    0  501 -0.00000000000E+00 -0.00000000000E+00 -0.49731329107E+03  0.49731329107E+03  0.00000000000E+00 0.  1.
         23    2    1    2    0    0 -0.75320500067E+03 -0.50531099940E+03  0.69213802517E+02  0.91423522403E+03  0.91534229924E+02 0.  0.
         13    1    3    3    0    0 -0.18840297543E+02 -0.32119594754E+02  0.10306060572E+02  0.38637288507E+02  0.00000000000E+00 0. -1.
        -13    1    3    3    0    0 -0.73436470313E+03 -0.47319140464E+03  0.58907741945E+02  0.87559793552E+03  0.00000000000E+00 0.  1.
         22    1    1    2    0    0  0.75320500067E+03  0.50531099940E+03  0.26746245641E+04  0.28242297248E+04  0.00000000000E+00 0. -1.
<mgrwt>
<rscale>  0 0.25391871E+04</rscale>
<asrwt>0</asrwt>
<pdfrwt beam="1">  1        2 0.49863870E+00 0.25391871E+04</pdfrwt>
<pdfrwt beam="2">  1       -2 0.76509739E-01 0.25391871E+04</pdfrwt>
<totfact> 0.16556175E+00</totfact>
</mgrwt>
</event>
<event>
 6    1  0.1773638E-005  0.1173206E+04  0.7818608E-02  0.9136638E-01
          1   -1    0    0  501    0  0.00000000000E+00  0.00000000000E+00  0.34177017996E+03  0.34177017996E+03  0.00000000000E+00 0. -1.
         -1   -1    0    0    0  501 -0.00000000000E+00 -0.00000000000E+00 -0.10068266562E+04  0.10068266562E+04  0.00000000000E+00 0.  1.
         23    2    1    2    0    0  0.25361336040E+03 -0.77900202432E+02  0.26288094705E+03  0.38347713393E+03  0.86949075986E+02 0.  0.
         11    1    3    3    0    0  0.52337592313E+02 -0.12231645856E+02  0.10968922980E+03  0.12214975998E+03  0.00000000000E+00 0. -1.
        -11    1    3    3    0    0  0.20127576808E+03 -0.65668556577E+02  0.15319171725E+03  0.26132737394E+03  0.00000000000E+00 0.  1.
         22    1    1    2    0    0 -0.25361336040E+03  0.77900202432E+02 -0.92793742332E+03  0.96511970227E+03  0.00000000000E+00 0.  1.
<mgrwt>
<rscale>  0 0.11732064E+04</rscale>
<asrwt>0</asrwt>
<pdfrwt beam="1">  1        1 0.52580029E-01 0.11732064E+04</pdfrwt>
<pdfrwt beam="2">  1       -1 0.15489640E+00 0.11732064E+04</pdfrwt>
<totfact> 0.23428790E+01</totfact>
</mgrwt>
</event>
<event>
 6    1  0.1773638E-005  0.2022268E+04  0.7818608E-02  0.8596280E-01
          2   -1    0    0  501    0  0.00000000000E+00  0.00000000000E+00  0.30338366313E+04  0.30338366313E+04  0.00000000000E+00 0. -1.
         -2   -1    0    0    0  501 -0.00000000000E+00 -0.00000000000E+00 -0.33699629388E+03  0.33699629388E+03  0.00000000000E+00 0.  1.
         23    2    1    2    0    0 -0.83353248333E+03  0.38767299427E+03  0.20444787455E+04  0.22436051763E+04  0.93830139568E+02 0.  0.
         11    1    3    3    0    0 -0.35118419490E+03  0.17219621728E+03  0.76031908772E+03  0.85502455587E+03  0.00000000000E+00 0. -1.
        -11    1    3    3    0    0 -0.48234828843E+03  0.21547677699E+03  0.12841596578E+04  0.13885806204E+04  0.00000000000E+00 0.  1.
         22    1    1    2    0    0  0.83353248333E+03 -0.38767299427E+03  0.65236159195E+03  0.11272277489E+04  0.00000000000E+00 0. -1.
<mgrwt>
<rscale>  0 0.20222677E+04</rscale>
<asrwt>0</asrwt>
<pdfrwt beam="1">  1        2 0.46674408E+00 0.20222677E+04</pdfrwt>
<pdfrwt beam="2">  1       -2 0.51845586E-01 0.20222677E+04</pdfrwt>
<totfact> 0.54144997E+00</totfact>
</mgrwt>
</event>
<event>
 6    1  0.1773638E-005  0.3637939E+04  0.7818608E-02  0.8081856E-01
         -2   -1    0    0    0  501 -0.00000000000E+00  0.00000000000E+00  0.19505236865E+04  0.19505236865E+04  0.00000000000E+00 0.  1.
          2   -1    0    0  501    0  0.00000000000E+00 -0.00000000000E+00 -0.16962884174E+04  0.16962884174E+04  0.00000000000E+00 0. -1.
         23    2    1    2    0    0 -0.36147575877E+02 -0.75930373745E+03 -0.15280605621E+04  0.17091776588E+04  0.92034639857E+02 0.  0.
         11    1    3    3    0    0 -0.30133930175E+02 -0.30334918774E+03 -0.51975403387E+03  0.60255542415E+03  0.00000000000E+00 0.  1.
        -11    1    3    3    0    0 -0.60136457024E+01 -0.45595454971E+03 -0.10083065283E+04  0.11066222347E+04  0.00000000000E+00 0. -1.
         22    1    1    2    0    0  0.36147575877E+02  0.75930373745E+03  0.17822958312E+04  0.19376344451E+04  0.00000000000E+00 0.  1.
<mgrwt>
<rscale>  0 0.36379394E+04</rscale>
<asrwt>0</asrwt>
<pdfrwt beam="1">  1        2 0.26096745E+00 0.36379394E+04</pdfrwt>
<pdfrwt beam="2">  1       -2 0.30008057E+00 0.36379394E+04</pdfrwt>
<totfact> 0.25416149E-01</totfact>
</mgrwt>
</event>
<event>
 6    1  0.1781246E-005  0.2279225E+04  0.7818608E-02  0.8486158E-01
          2   -1    0    0  501    0  0.00000000000E+00  0.00000000000E+00  0.22504053328E+04  0.22504053328E+04  0.00000000000E+00 0. -1.
         -2   -1    0    0    0  501 -0.00000000000E+00 -0.00000000000E+00 -0.57710366091E+03  0.57710366091E+03  0.00000000000E+00 0.  1.
         23    2    1    2    0    0 -0.74873856996E+03 -0.54176956256E+03  0.16613051829E+04  0.19032430035E+04  0.90968755459E+02 0.  0.
         11    1    3    3    0    0 -0.13084410074E+03 -0.10275398242E+03  0.37451615542E+03  0.40980594221E+03  0.00000000000E+00 0.  1.
        -11    1    3    3    0    0 -0.61789446922E+03 -0.43901558014E+03  0.12867890275E+04  0.14934370612E+04  0.00000000000E+00 0. -1.
         22    1    1    2    0    0  0.74873856996E+03  0.54176956256E+03  0.11996489038E+02  0.92426599029E+03  0.00000000000E+00 0.  1.
<mgrwt>
<rscale>  0 0.22792254E+04</rscale>
<asrwt>0</asrwt>
<pdfrwt beam="1">  1        2 0.34621620E+00 0.22792254E+04</pdfrwt>
<pdfrwt beam="2">  1       -2 0.88785180E-01 0.22792254E+04</pdfrwt>
<totfact> 0.47890206E+00</totfact>
</mgrwt>
</event>
<event>
 6    1  0.1773638E-005  0.1085192E+04  0.7818608E-02  0.9219746E-01
          2   -1    0    0  501    0  0.00000000000E+00  0.00000000000E+00  0.19054666291E+04  0.19054666291E+04  0.00000000000E+00 0. -1.
         -2   -1    0    0    0  501 -0.00000000000E+00 -0.00000000000E+00 -0.15450832579E+03  0.15450832579E+03  0.00000000000E+00 0.  1.
         23    2    1    2    0    0 -0.32030429110E+03  0.32958179465E+03  0.14152659735E+04  0.14908454981E+04  0.91779765239E+02 0.  0.
         13    1    3    3    0    0 -0.16498779039E+03  0.21546718725E+03  0.72309352088E+03  0.77234145279E+03  0.00000000000E+00 0. -1.
        -13    1    3    3    0    0 -0.15531650072E+03  0.11411460740E+03  0.69217245262E+03  0.71850404535E+03  0.00000000000E+00 0.  1.
         22    1    1    2    0    0  0.32030429110E+03 -0.32958179465E+03  0.33569232983E+03  0.56912945678E+03  0.00000000000E+00 0.  1.
<mgrwt>
<rscale>  0 0.10851921E+04</rscale>
<asrwt>0</asrwt>
<pdfrwt beam="1">  1        2 0.29314870E+00 0.10851921E+04</pdfrwt>
<pdfrwt beam="2">  1       -2 0.23770513E-01 0.10851921E+04</pdfrwt>
<totfact> 0.11793983E+02</totfact>
</mgrwt>
</event>
<event>
 6    1  0.1773638E-005  0.9426622E+03  0.7818608E-02  0.9373769E-01
          1   -1    0    0  501    0  0.00000000000E+00  0.00000000000E+00  0.19615422366E+04  0.19615422366E+04  0.00000000000E+00 0. -1.
         -1   -1    0    0    0  501 -0.00000000000E+00 -0.00000000000E+00 -0.11325426606E+03  0.11325426606E+03  0.00000000000E+00 0.  1.
         23    2    1    2    0    0  0.84015793785E+02  0.28836044302E+03  0.14600671807E+03  0.34622140703E+03  0.91328540213E+02 0.  0.
         13    1    3    3    0    0  0.65980371701E+02  0.25326696211E+03  0.15707997050E+03  0.30524036542E+03  0.00000000000E+00 0. -1.
        -13    1    3    3    0    0  0.18035422084E+02  0.35093480912E+02 -0.11073252430E+02  0.40981041612E+02  0.00000000000E+00 0.  1.
         22    1    1    2    0    0 -0.84015793785E+02 -0.28836044302E+03  0.17022812524E+04  0.17285750956E+04  0.00000000000E+00 0. -1.
<mgrwt>
<rscale>  0 0.94266224E+03</rscale>
<asrwt>0</asrwt>
<pdfrwt beam="1">  1        1 0.30177570E+00 0.94266224E+03</pdfrwt>
<pdfrwt beam="2">  1       -1 0.17423735E-01 0.94266224E+03</pdfrwt>
<totfact> 0.82380723E+01</totfact>
</mgrwt>
</event>
<event>
 6    1  0.1773638E-005  0.1985262E+04  0.7818608E-02  0.8613542E-01
          2   -1    0    0  501    0  0.00000000000E+00  0.00000000000E+00  0.17263838242E+04  0.17263838242E+04  0.00000000000E+00 0.  1.
         -2   -1    0    0    0  501 -0.00000000000E+00 -0.00000000000E+00 -0.57074019082E+03  0.57074019082E+03  0.00000000000E+00 0. -1.
         23    2    1    2    0    0 -0.68999973192E+03  0.21133105919E+03  0.13640477547E+04  0.15459963797E+04  0.93370671552E+02 0.  0.
         11    1    3    3    0    0 -0.39070861871E+03  0.10228888245E+03  0.85339774867E+03  0.94414191604E+03  0.00000000000E+00 0.  1.
        -11    1    3    3    0    0 -0.29929111321E+03  0.10904217674E+03  0.51065000607E+03  0.60185446368E+03  0.00000000000E+00 0. -1.
         22    1    1    2    0    0  0.68999973192E+03 -0.21133105919E+03 -0.20840412140E+03  0.75112763525E+03  0.00000000000E+00 0. -1.
<mgrwt>
<rscale>  0 0.19852623E+04</rscale>
<asrwt>0</asrwt>
<pdfrwt beam="1">  1        2 0.26559751E+00 0.19852623E+04</pdfrwt>
<pdfrwt beam="2">  1       -2 0.87806184E-01 0.19852623E+04</pdfrwt>
<totfact> 0.98646184E+00</totfact>
</mgrwt>
</event>
<event>
 6    1  0.1773638E-005  0.5110241E+04  0.7818608E-02  0.7811723E-01
         -2   -1    0    0    0  501 -0.00000000000E+00  0.00000000000E+00  0.23420825910E+04  0.23420825910E+04  0.00000000000E+00 0.  1.
          2   -1    0    0  501    0  0.00000000000E+00 -0.00000000000E+00 -0.27875361646E+04  0.27875361646E+04  0.00000000000E+00 0. -1.
         23    2    1    2    0    0 -0.13596327435E+03  0.62029449829E+03  0.22607603549E+04  0.23498984273E+04  0.87942933722E+02 0.  0.
         13    1    3    3    0    0 -0.11562212856E+03  0.50211456939E+03  0.16957385741E+04  0.17722914064E+04  0.00000000000E+00 0.  1.
        -13    1    3    3    0    0 -0.20341145794E+02  0.11817992890E+03  0.56502178081E+03  0.57760702091E+03  0.00000000000E+00 0. -1.
         22    1    1    2    0    0  0.13596327435E+03 -0.62029449829E+03 -0.27062139285E+04  0.27797203283E+04  0.00000000000E+00 0. -1.
<mgrwt>
<rscale>  0 0.51102407E+04</rscale>
<asrwt>0</asrwt>
<pdfrwt beam="1">  1        2 0.42885171E+00 0.51102407E+04</pdfrwt>
<pdfrwt beam="2">  1       -2 0.36032040E+00 0.51102407E+04</pdfrwt>
<totfact> 0.22728364E-02</totfact>
</mgrwt>
</event>
<event>
 6    1  0.1773638E-005  0.2373947E+04  0.7818608E-02  0.8449322E-01
          1   -1    0    0  501    0  0.00000000000E+00  0.00000000000E+00  0.16250322370E+04  0.16250322370E+04  0.00000000000E+00 0. -1.
         -1   -1    0    0    0  501 -0.00000000000E+00 -0.00000000000E+00 -0.86700178671E+03  0.86700178671E+03  0.00000000000E+00 0.  1.
         23    2    1    2    0    0 -0.72151940910E+03  0.74504721712E+03 -0.22270950358E+03  0.10646110063E+04  0.90063635077E+02 0.  0.
         13    1    3    3    0    0 -0.61662932605E+03  0.59020184417E+03 -0.19484928502E+03  0.87552052316E+03  0.00000000000E+00 0. -1.
        -13    1    3    3    0    0 -0.10489008306E+03  0.15484537294E+03 -0.27860218567E+02  0.18909048317E+03  0.00000000000E+00 0.  1.
         22    1    1    2    0    0  0.72151940910E+03 -0.74504721712E+03  0.98073995389E+03  0.14274230174E+04  0.00000000000E+00 0. -1.
<mgrwt>
<rscale>  0 0.23739468E+04</rscale>
<asrwt>0</asrwt>
<pdfrwt beam="1">  1        1 0.25000496E+00 0.23739468E+04</pdfrwt>
<pdfrwt beam="2">  1       -1 0.13338489E+00 0.23739468E+04</pdfrwt>
<totfact> 0.22884536E+00</totfact>
</mgrwt>
</event>
<event>
 6    1  0.1773638E-005  0.9650079E+03  0.7818608E-02  0.9347779E-01
          2   -1    0    0  501    0  0.00000000000E+00  0.00000000000E+00  0.28436656438E+04  0.28436656438E+04  0.00000000000E+00 0. -1.
         -2   -1    0    0    0  501 -0.00000000000E+00 -0.00000000000E+00 -0.81869697735E+02  0.81869697735E+02  0.00000000000E+00 0.  1.
         23    2    1    2    0    0 -0.22560644063E+03  0.42045194881E+03  0.14793658732E+04  0.15572133768E+04  0.93338131937E+02 0.  0.
         11    1    3    3    0    0 -0.13759305558E+03  0.29268041307E+03  0.86265968733E+03  0.92129007880E+03  0.00000000000E+00 0.  1.
        -11    1    3    3    0    0 -0.88013385050E+02  0.12777153574E+03  0.61670618588E+03  0.63592329804E+03  0.00000000000E+00 0. -1.
         22    1    1    2    0    0  0.22560644063E+03 -0.42045194881E+03  0.12824300729E+04  0.13683219647E+04  0.00000000000E+00 0. -1.
<mgrwt>
<rscale>  0 0.96500787E+03</rscale>
<asrwt>0</asrwt>
<pdfrwt beam="1">  1        2 0.43748695E+00 0.96500787E+03</pdfrwt>
<pdfrwt beam="2">  1       -2 0.12595340E-01 0.96500787E+03</pdfrwt>
<totfact> 0.10474301E+02</totfact>
</mgrwt>
</event>
<event>
 6    1  0.1773638E-005  0.1346218E+04  0.7818608E-02  0.8993696E-01
          2   -1    0    0  501    0  0.00000000000E+00  0.00000000000E+00  0.33051522335E+04  0.33051522335E+04  0.00000000000E+00 0.  1.
         -2   -1    0    0    0  501 -0.00000000000E+00 -0.00000000000E+00 -0.13708167479E+03  0.13708167479E+03  0.00000000000E+00 0. -1.
         23    2    1    2    0    0  0.38414544125E+03  0.41972901435E+03  0.24957628258E+04  0.25614740924E+04  0.92613595238E+02 0.  0.
         11    1    3    3    0    0  0.23156416625E+03  0.26973758143E+03  0.13575119594E+04  0.14032886538E+04  0.00000000000E+00 0.  1.
        -11    1    3    3    0    0  0.15258127500E+03  0.14999143292E+03  0.11382508664E+04  0.11581854386E+04  0.00000000000E+00 0. -1.
         22    1    1    2    0    0 -0.38414544125E+03 -0.41972901435E+03  0.67230773295E+03  0.88075981590E+03  0.00000000000E+00 0. -1.
<mgrwt>
<rscale>  0 0.13462181E+04</rscale>
<asrwt>0</asrwt>
<pdfrwt beam="1">  1        2 0.50848490E+00 0.13462181E+04</pdfrwt>
<pdfrwt beam="2">  1       -2 0.21089491E-01 0.13462181E+04</pdfrwt>
<totfact> 0.21339969E+01</totfact>
</mgrwt>
</event>
<event>
 6    1  0.1773638E-005  0.8164243E+03  0.7818608E-02  0.9536543E-01
          1   -1    0    0  501    0  0.00000000000E+00  0.00000000000E+00  0.20045185037E+03  0.20045185037E+03  0.00000000000E+00 0. -1.
         -1   -1    0    0    0  501 -0.00000000000E+00 -0.00000000000E+00 -0.83130774624E+03  0.83130774624E+03  0.00000000000E+00 0.  1.
         23    2    1    2    0    0 -0.21861412951E+03 -0.32974105049E+03 -0.41506097892E+03  0.58110591120E+03  0.94271765696E+02 0.  0.
         11    1    3    3    0    0 -0.48943031555E+02 -0.93588957050E+02 -0.17330137492E+03  0.20294748032E+03  0.00000000000E+00 0.  1.
        -11    1    3    3    0    0 -0.16967109796E+03 -0.23615209344E+03 -0.24175960400E+03  0.37815843088E+03  0.00000000000E+00 0. -1.
         22    1    1    2    0    0  0.21861412951E+03  0.32974105049E+03 -0.21579491694E+03  0.45065368541E+03  0.00000000000E+00 0.  1.
<mgrwt>
<rscale>  0 0.81642434E+03</rscale>
<asrwt>0</asrwt>
<pdfrwt beam="1">  1        1 0.30838746E-01 0.81642434E+03</pdfrwt>
<pdfrwt beam="2">  1       -1 0.12789350E+00 0.81642434E+03</pdfrwt>
<totfact> 0.79379228E+01</totfact>
</mgrwt>
</event>
<event>
 6    1  0.1773638E-005  0.2521708E+04  0.7818608E-02  0.8395292E-01
         -3   -1    0    0    0  501 -0.00000000000E+00  0.00000000000E+00  0.16860892861E+04  0.16860892861E+04  0.00000000000E+00 0.  1.
          3   -1    0    0  501    0  0.00000000000E+00 -0.00000000000E+00 -0.94286413583E+03  0.94286413583E+03  0.00000000000E+00 0. -1.
         23    2    1    2    0    0  0.74519132744E+03 -0.94951581676E+03 -0.18142603062E+01  0.12105126850E+04  0.91909021687E+02 0.  0.
         13    1    3    3    0    0  0.26274025651E+03 -0.40550079708E+03 -0.11646704273E+02  0.48332078845E+03  0.00000000000E+00 0.  1.
        -13    1    3    3    0    0  0.48245107093E+03 -0.54401501968E+03  0.98324439670E+01  0.72719189656E+03  0.00000000000E+00 0. -1.
         22    1    1    2    0    0 -0.74519132744E+03  0.94951581676E+03  0.74503941055E+03  0.14184407369E+04  0.00000000000E+00 0.  1.
<mgrwt>
<rscale>  0 0.25217082E+04</rscale>
<asrwt>0</asrwt>
<pdfrwt beam="1">  1        3 0.14505602E+00 0.25217082E+04</pdfrwt>
<pdfrwt beam="2">  1       -3 0.25939835E+00 0.25217082E+04</pdfrwt>
<totfact> 0.52763061E-02</totfact>
</mgrwt>
</event>
<event>
 6    1  0.1773638E-005  0.4539876E+04  0.7818608E-02  0.7903693E-01
         -1   -1    0    0    0  501 -0.00000000000E+00  0.00000000000E+00  0.15123516001E+04  0.15123516001E+04  0.00000000000E+00 0.  1.
          1   -1    0    0  501    0  0.00000000000E+00 -0.00000000000E+00 -0.34070243842E+04  0.34070243842E+04  0.00000000000E+00 0. -1.
         23    2    1    2    0    0  0.64310318123E+03 -0.17510234072E+04  0.45211936910E+03  0.19215270748E+04  0.90496967423E+02 0.  0.
         13    1    3    3    0    0  0.33392466486E+03 -0.80543898072E+03  0.23952938882E+03  0.90421897877E+03  0.00000000000E+00 0.  1.
        -13    1    3    3    0    0  0.30917851637E+03 -0.94558442644E+03  0.21258998028E+03  0.10173080960E+04  0.00000000000E+00 0. -1.
         22    1    1    2    0    0 -0.64310318123E+03  0.17510234072E+04 -0.23467921531E+04  0.29978489095E+04  0.00000000000E+00 0. -1.
<mgrwt>
<rscale>  0 0.45398761E+04</rscale>
<asrwt>0</asrwt>
<pdfrwt beam="1">  1        1 0.52415759E+00 0.45398761E+04</pdfrwt>
<pdfrwt beam="2">  1       -1 0.23266948E+00 0.45398761E+04</pdfrwt>
<totfact> 0.20034125E-02</totfact>
</mgrwt>
</event>
<event>
 6    1  0.1773638E-005  0.2693877E+04  0.7818608E-02  0.8336994E-01
          2   -1    0    0  501    0  0.00000000000E+00  0.00000000000E+00  0.10202263222E+04  0.10202263222E+04  0.00000000000E+00 0. -1.
         -2   -1    0    0    0  501 -0.00000000000E+00 -0.00000000000E+00 -0.17782754765E+04  0.17782754765E+04  0.00000000000E+00 0.  1.
         23    2    1    2    0    0  0.61333341245E+03 -0.12519596476E+03 -0.16166806505E+04  0.17359106494E+04  0.88755577016E+02 0.  0.
         13    1    3    3    0    0  0.40141793720E+03 -0.62809347394E+02 -0.93900442870E+03  0.10231376699E+04  0.00000000000E+00 0. -1.
        -13    1    3    3    0    0  0.21191547526E+03 -0.62386617368E+02 -0.67767622182E+03  0.71277297950E+03  0.00000000000E+00 0.  1.
         22    1    1    2    0    0 -0.61333341245E+03  0.12519596476E+03  0.85863149619E+03  0.10625911494E+04  0.00000000000E+00 0. -1.
<mgrwt>
<rscale>  0 0.26938771E+04</rscale>
<asrwt>0</asrwt>
<pdfrwt beam="1">  1        2 0.15695790E+00 0.26938771E+04</pdfrwt>
<pdfrwt beam="2">  1       -2 0.27358084E+00 0.26938771E+04</pdfrwt>
<totfact> 0.98894101E-01</totfact>
</mgrwt>
</event>
<event>
 6    1  0.1773638E-005  0.2514844E+04  0.7818608E-02  0.8397716E-01
          2   -1    0    0  501    0  0.00000000000E+00  0.00000000000E+00  0.23449325486E+04  0.23449325486E+04  0.00000000000E+00 0. -1.
         -2   -1    0    0    0  501 -0.00000000000E+00 -0.00000000000E+00 -0.67426650468E+03  0.67426650468E+03  0.00000000000E+00 0.  1.
         23    2    1    2    0    0 -0.75643047118E+03  0.97679938053E+03  0.56693217425E+03  0.13625299425E+04  0.93550341734E+02 0.  0.
         13    1    3    3    0    0 -0.54694212387E+03  0.67870292540E+03  0.35615922074E+03  0.94161177686E+03  0.00000000000E+00 0.  1.
        -13    1    3    3    0    0 -0.20948834732E+03  0.29809645513E+03  0.21077295352E+03  0.42091816563E+03  0.00000000000E+00 0. -1.
         22    1    1    2    0    0  0.75643047118E+03 -0.97679938053E+03  0.11037338696E+04  0.16566691107E+04  0.00000000000E+00 0. -1.
<mgrwt>
<rscale>  0 0.25148435E+04</rscale>
<asrwt>0</asrwt>
<pdfrwt beam="1">  1        2 0.36075885E+00 0.25148435E+04</pdfrwt>
<pdfrwt beam="2">  1       -2 0.10373331E+00 0.25148435E+04</pdfrwt>
<totfact> 0.28811620E+00</totfact>
</mgrwt>
</event>
<event>
 6    1  0.1773638E-005  0.2011314E+04  0.7818608E-02  0.8601349E-01
         -2   -1    0    0    0  501 -0.00000000000E+00  0.00000000000E+00  0.13130461328E+04  0.13130461328E+04  0.00000000000E+00 0.  1.
          2   -1    0    0  501    0  0.00000000000E+00 -0.00000000000E+00 -0.77022855607E+03  0.77022855607E+03  0.00000000000E+00 0. -1.
         23    2    1    2    0    0 -0.66379925167E+02 -0.14023982296E+03  0.12989586265E+04  0.13113791070E+04  0.91368191925E+02 0.  0.
         11    1    3    3    0    0 -0.23585755022E+02 -0.97872929013E+02  0.49302225803E+03  0.50319612974E+03  0.00000000000E+00 0. -1.
        -11    1    3    3    0    0 -0.42794170145E+02 -0.42366893950E+02  0.80593636843E+03  0.80818297722E+03  0.00000000000E+00 0.  1.
         22    1    1    2    0    0  0.66379925167E+02  0.14023982296E+03 -0.75614104969E+03  0.77189558195E+03  0.00000000000E+00 0. -1.
<mgrwt>
<rscale>  0 0.20113136E+04</rscale>
<asrwt>0</asrwt>
<pdfrwt beam="1">  1        2 0.11849670E+00 0.20113136E+04</pdfrwt>
<pdfrwt beam="2">  1       -2 0.20200710E+00 0.20113136E+04</pdfrwt>
<totfact> 0.43354323E+00</totfact>
</mgrwt>
</event>
<event>
 6    1  0.1773638E-005  0.1433498E+04  0.7818608E-02  0.8929921E-01
         -2   -1    0    0    0  501 -0.00000000000E+00  0.00000000000E+00  0.33864126435E+03  0.33864126435E+03  0.00000000000E+00 0.  1.
          2   -1    0    0  501    0  0.00000000000E+00 -0.00000000000E+00 -0.15170312715E+04  0.15170312715E+04  0.00000000000E+00 0. -1.
         23    2    1    2    0    0 -0.43960443825E+03 -0.13750440727E+03  0.11425504450E+03  0.48341499672E+03  0.92066930652E+02 0.  0.
         11    1    3    3    0    0 -0.32008409285E+03 -0.12439728588E+03  0.11801344657E+03  0.36311938092E+03  0.00000000000E+00 0. -1.
        -11    1    3    3    0    0 -0.11952034540E+03 -0.13107121387E+02 -0.37584020732E+01  0.12029561580E+03  0.00000000000E+00 0.  1.
         22    1    1    2    0    0  0.43960443825E+03  0.13750440727E+03 -0.12926450517E+04  0.13722575391E+04  0.00000000000E+00 0. -1.
<mgrwt>
<rscale>  0 0.14334984E+04</rscale>
<asrwt>0</asrwt>
<pdfrwt beam="1">  1        2 0.23338942E+00 0.14334984E+04</pdfrwt>
<pdfrwt beam="2">  1       -2 0.52098657E-01 0.14334984E+04</pdfrwt>
<totfact> 0.41921327E+01</totfact>
</mgrwt>
</event>
<event>
 6    1  0.1773638E-005  0.1522086E+04  0.7818608E-02  0.8869898E-01
          2   -1    0    0  501    0  0.00000000000E+00  0.00000000000E+00  0.12885778578E+04  0.12885778578E+04  0.00000000000E+00 0. -1.
         -2   -1    0    0    0  501 -0.00000000000E+00 -0.00000000000E+00 -0.44947716703E+03  0.44947716703E+03  0.00000000000E+00 0.  1.
         23    2    1    2    0    0  0.35656330845E+03 -0.49326871668E+03 -0.93896019924E+02  0.62408272627E+03  0.10105130819E+03 0.  0.
         11    1    3    3    0    0  0.10258852188E+03 -0.22327699045E+03 -0.50787188963E+02  0.25091105565E+03  0.00000000000E+00 0. -1.
        -11    1    3    3    0    0  0.25397478657E+03 -0.26999172623E+03 -0.43108830962E+02  0.37317167062E+03  0.00000000000E+00 0.  1.
         22    1    1    2    0    0 -0.35656330845E+03  0.49326871668E+03  0.93299671069E+03  0.11139722986E+04  0.00000000000E+00 0. -1.
<mgrwt>
<rscale>  0 0.15220858E+04</rscale>
<asrwt>0</asrwt>
<pdfrwt beam="1">  1        2 0.19824275E+00 0.15220858E+04</pdfrwt>
<pdfrwt beam="2">  1       -2 0.69150334E-01 0.15220858E+04</pdfrwt>
<totfact> 0.30916152E+01</totfact>
</mgrwt>
</event>
<event>
 6    1  0.1773638E-005  0.1609848E+04  0.7818608E-02  0.8814521E-01
          2   -1    0    0  501    0  0.00000000000E+00  0.00000000000E+00  0.21259573745E+04  0.21259573745E+04  0.00000000000E+00 0. -1.
         -2   -1    0    0    0  501 -0.00000000000E+00 -0.00000000000E+00 -0.30475811037E+03  0.30475811037E+03  0.00000000000E+00 0.  1.
         23    2    1    2    0    0  0.47977609749E+03 -0.66969377414E+02 -0.52514602865E+02  0.49539286148E+03  0.89366114685E+02 0.  0.
         11    1    3    3    0    0  0.45451048526E+03 -0.49969556528E+02 -0.31378945050E+02  0.45832453129E+03  0.00000000000E+00 0. -1.
        -11    1    3    3    0    0  0.25265612231E+02 -0.16999820886E+02 -0.21135657814E+02  0.37068330187E+02  0.00000000000E+00 0.  1.
         22    1    1    2    0    0 -0.47977609749E+03  0.66969377414E+02  0.18737138670E+04  0.19353226234E+04  0.00000000000E+00 0. -1.
<mgrwt>
<rscale>  0 0.16098481E+04</rscale>
<asrwt>0</asrwt>
<pdfrwt beam="1">  1        2 0.32707036E+00 0.16098481E+04</pdfrwt>
<pdfrwt beam="2">  1       -2 0.46885865E-01 0.16098481E+04</pdfrwt>
<totfact> 0.23492146E+01</totfact>
</mgrwt>
</event>
<event>
 6    1  0.1773638E-005  0.1656788E+04  0.7818608E-02  0.8786401E-01
         -2   -1    0    0    0  501 -0.00000000000E+00  0.00000000000E+00  0.38341849180E+03  0.38341849180E+03  0.00000000000E+00 0.  1.
          2   -1    0    0  501    0  0.00000000000E+00 -0.00000000000E+00 -0.17897847690E+04  0.17897847690E+04  0.00000000000E+00 0. -1.
         23    2    1    2    0    0 -0.21558677550E+03 -0.40998632020E+03  0.19193576097E+03  0.50913119333E+03  0.88367387461E+02 0.  0.
         13    1    3    3    0    0 -0.11417145470E+03 -0.30437828014E+03  0.12848492578E+03  0.34955633973E+03  0.00000000000E+00 0. -1.
        -13    1    3    3    0    0 -0.10141532080E+03 -0.10560804006E+03  0.63450835188E+02  0.15957485361E+03  0.00000000000E+00 0.  1.
         22    1    1    2    0    0  0.21558677550E+03  0.40998632020E+03 -0.15983020382E+04  0.16640720675E+04  0.00000000000E+00 0. -1.
<mgrwt>
<rscale>  0 0.16567879E+04</rscale>
<asrwt>0</asrwt>
<pdfrwt beam="1">  1        2 0.27535150E+00 0.16567879E+04</pdfrwt>
<pdfrwt beam="2">  1       -2 0.58987460E-01 0.16567879E+04</pdfrwt>
<totfact> 0.22407369E+01</totfact>
</mgrwt>
</event>
<event>
 6    1  0.1773638E-005  0.1657342E+04  0.7818608E-02  0.8786075E-01
         -2   -1    0    0    0  501 -0.00000000000E+00  0.00000000000E+00  0.16366491623E+03  0.16366491623E+03  0.00000000000E+00 0. -1.
          2   -1    0    0  501    0  0.00000000000E+00 -0.00000000000E+00 -0.41957413618E+04  0.41957413618E+04  0.00000000000E+00 0.  1.
         23    2    1    2    0    0 -0.66792318743E+03 -0.43824782108E+03 -0.25765736615E+04  0.26990837517E+04  0.90214902177E+02 0.  0.
         11    1    3    3    0    0 -0.25820213805E+03 -0.12155061540E+03 -0.97034717283E+03  0.10114427972E+04  0.00000000000E+00 0.  1.
        -11    1    3    3    0    0 -0.40972104937E+03 -0.31669720568E+03 -0.16062264887E+04  0.16876409545E+04  0.00000000000E+00 0. -1.
         22    1    1    2    0    0  0.66792318743E+03  0.43824782108E+03 -0.14555027841E+04  0.16603225263E+04  0.00000000000E+00 0. -1.
<mgrwt>
<rscale>  0 0.16573420E+04</rscale>
<asrwt>0</asrwt>
<pdfrwt beam="1">  1        2 0.64549860E+00 0.16573420E+04</pdfrwt>
<pdfrwt beam="2">  1       -2 0.25179221E-01 0.16573420E+04</pdfrwt>
<totfact> 0.32412816E+00</totfact>
</mgrwt>
</event>
<event>
 6    1  0.1773638E-005  0.4246944E+04  0.7818608E-02  0.7956502E-01
          1   -1    0    0  501    0  0.00000000000E+00  0.00000000000E+00  0.24587087889E+04  0.24587087889E+04  0.00000000000E+00 0. -1.
         -1   -1    0    0    0  501 -0.00000000000E+00 -0.00000000000E+00 -0.18339434576E+04  0.18339434576E+04  0.00000000000E+00 0.  1.
         23    2    1    2    0    0  0.82269401702E+03  0.18833533003E+04  0.84843692749E+03  0.22253172271E+04  0.91358862393E+02 0.  0.
         11    1    3    3    0    0  0.29175574483E+03  0.59757390980E+03  0.23979362374E+03  0.70690662346E+03  0.00000000000E+00 0. -1.
        -11    1    3    3    0    0  0.53093827219E+03  0.12857793905E+04  0.60864330375E+03  0.15184106036E+04  0.00000000000E+00 0.  1.
         22    1    1    2    0    0 -0.82269401702E+03 -0.18833533003E+04 -0.22367159612E+03  0.20673350194E+04  0.00000000000E+00 0.  1.
<mgrwt>
<rscale>  0 0.42469438E+04</rscale>
<asrwt>0</asrwt>
<pdfrwt beam="1">  1        1 0.37826289E+00 0.42469438E+04</pdfrwt>
<pdfrwt beam="2">  1       -1 0.28214515E+00 0.42469438E+04</pdfrwt>
<totfact> 0.47848738E-02</totfact>
</mgrwt>
</event>
<event>
 6    1  0.3129611E-005  0.2318144E+04  0.7818608E-02  0.8470801E-01
          2   -1    0    0  501    0  0.00000000000E+00  0.00000000000E+00  0.19737658023E+04  0.19737658023E+04  0.00000000000E+00 0.  1.
         -2   -1    0    0    0  501 -0.00000000000E+00 -0.00000000000E+00 -0.68065210868E+03  0.68065210868E+03  0.00000000000E+00 0. -1.
         23    2    1    2    0    0  0.56898398972E+03 -0.43271152001E+03 -0.39460368743E+03  0.82155894248E+03  0.90911966935E+02 0.  0.
         13    1    3    3    0    0  0.31935633282E+03 -0.19001654324E+03 -0.18416162727E+03  0.41474119518E+03  0.00000000000E+00 0. -1.
        -13    1    3    3    0    0  0.24962765689E+03 -0.24269497677E+03 -0.21044206016E+03  0.40681774730E+03  0.00000000000E+00 0.  1.
         22    1    1    2    0    0 -0.56898398972E+03  0.43271152001E+03  0.16877173811E+04  0.18328589685E+04  0.00000000000E+00 0.  1.
<mgrwt>
<rscale>  0 0.23181440E+04</rscale>
<asrwt>0</asrwt>
<pdfrwt beam="1">  1        2 0.30365628E+00 0.23181440E+04</pdfrwt>
<pdfrwt beam="2">  1       -2 0.10471571E+00 0.23181440E+04</pdfrwt>
<totfact> 0.46278261E+00</totfact>
</mgrwt>
</event>
<event>
 6    1  0.1773638E-005  0.1560200E+04  0.7818608E-02  0.8845379E-01
         -2   -1    0    0    0  501 -0.00000000000E+00  0.00000000000E+00  0.25629053833E+03  0.25629053833E+03  0.00000000000E+00 0.  1.
          2   -1    0    0  501    0  0.00000000000E+00 -0.00000000000E+00 -0.23744771230E+04  0.23744771230E+04  0.00000000000E+00 0. -1.
         23    2    1    2    0    0 -0.46740418141E+03 -0.44051272315E+03 -0.18011033044E+04  0.19144856396E+04  0.93616359906E+02 0.  0.
         13    1    3    3    0    0 -0.15442944258E+03 -0.20847899787E+03 -0.71448742764E+03  0.76013434967E+03  0.00000000000E+00 0.  1.
        -13    1    3    3    0    0 -0.31297473883E+03 -0.23203372528E+03 -0.10866158768E+04  0.11543512899E+04  0.00000000000E+00 0. -1.
         22    1    1    2    0    0  0.46740418141E+03  0.44051272315E+03 -0.31708328020E+03  0.71628202172E+03  0.00000000000E+00 0.  1.
<mgrwt>
<rscale>  0 0.15602000E+04</rscale>
<asrwt>0</asrwt>
<pdfrwt beam="1">  1        2 0.36530419E+00 0.15602000E+04</pdfrwt>
<pdfrwt beam="2">  1       -2 0.39429312E-01 0.15602000E+04</pdfrwt>
<totfact> 0.24096446E+01</totfact>
</mgrwt>
</event>
<event>
 6    1  0.1773638E-005  0.3713970E+04  0.7818608E-02  0.8064873E-01
          2   -1    0    0  501    0  0.00000000000E+00  0.00000000000E+00  0.20908799126E+04  0.20908799126E+04  0.00000000000E+00 0. -1.
         -2   -1    0    0    0  501 -0.00000000000E+00 -0.00000000000E+00 -0.16492544824E+04  0.16492544824E+04  0.00000000000E+00 0.  1.
         23    2    1    2    0    0  0.48275577806E+03 -0.65023852727E+03 -0.14607566472E+04  0.16725462222E+04  0.87963625522E+02 0.  0.
         11    1    3    3    0    0  0.22694634670E+03 -0.36146596655E+03 -0.70814200716E+03  0.82681762896E+03  0.00000000000E+00 0.  1.
        -11    1    3    3    0    0  0.25580943137E+03 -0.28877256072E+03 -0.75261464007E+03  0.84572859326E+03  0.00000000000E+00 0. -1.
         22    1    1    2    0    0 -0.48275577806E+03  0.65023852727E+03  0.19023820774E+04  0.20675881728E+04  0.00000000000E+00 0. -1.
<mgrwt>
<rscale>  0 0.37139699E+04</rscale>
<asrwt>0</asrwt>
<pdfrwt beam="1">  1        2 0.32167383E+00 0.37139699E+04</pdfrwt>
<pdfrwt beam="2">  1       -2 0.25373146E+00 0.37139699E+04</pdfrwt>
<totfact> 0.29264451E-01</totfact>
</mgrwt>
</event>
<event>
 6    1  0.1773638E-005  0.1116335E+04  0.7818608E-02  0.9189415E-01
          2   -1    0    0  501    0  0.00000000000E+00  0.00000000000E+00  0.59723934203E+03  0.59723934203E+03  0.00000000000E+00 0. -1.
         -2   -1    0    0    0  501 -0.00000000000E+00 -0.00000000000E+00 -0.52165222639E+03  0.52165222639E+03  0.00000000000E+00 0.  1.
         23    2    1    2    0    0  0.12095124011E+03 -0.95377504964E+02 -0.49560339601E+03  0.52729654517E+03  0.93235451848E+02 0.  0.
         11    1    3    3    0    0  0.39164635322E+02  0.10720754199E+02 -0.17845088436E+03  0.18301235303E+03  0.00000000000E+00 0.  1.
        -11    1    3    3    0    0  0.81786604791E+02 -0.10609825916E+03 -0.31715251165E+03  0.34428419215E+03  0.00000000000E+00 0. -1.
         22    1    1    2    0    0 -0.12095124011E+03  0.95377504964E+02  0.57119051164E+03  0.59159502324E+03  0.00000000000E+00 0. -1.
<mgrwt>
<rscale>  0 0.11163355E+04</rscale>
<asrwt>0</asrwt>
<pdfrwt beam="1">  1        2 0.91882976E-01 0.11163355E+04</pdfrwt>
<pdfrwt beam="2">  1       -2 0.80254188E-01 0.11163355E+04</pdfrwt>
<totfact> 0.67937084E+01</totfact>
</mgrwt>
</event>
<event>
 6    1  0.1773638E-005  0.1460554E+04  0.7818608E-02  0.8911116E-01
         -2   -1    0    0    0  501 -0.00000000000E+00  0.00000000000E+00  0.54287969214E+03  0.54287969214E+03  0.00000000000E+00 0.  1.
          2   -1    0    0  501    0  0.00000000000E+00 -0.00000000000E+00 -0.98236188567E+03  0.98236188567E+03  0.00000000000E+00 0. -1.
         23    2    1    2    0    0  0.62050435460E+03 -0.48634785693E+02  0.17386336470E+03  0.65140877328E+03  0.81938537108E+02 0.  0.
         13    1    3    3    0    0  0.96460672502E+02  0.20988407438E+02  0.36029723791E+02  0.10508718087E+03  0.00000000000E+00 0.  1.
        -13    1    3    3    0    0  0.52404368210E+03 -0.69623193131E+02  0.13783364090E+03  0.54632159241E+03  0.00000000000E+00 0. -1.
         22    1    1    2    0    0 -0.62050435460E+03  0.48634785693E+02 -0.61334555822E+03  0.87383280452E+03  0.00000000000E+00 0.  1.
<mgrwt>
<rscale>  0 0.14605538E+04</rscale>
<asrwt>0</asrwt>
<pdfrwt beam="1">  1        2 0.15113259E+00 0.14605538E+04</pdfrwt>
<pdfrwt beam="2">  1       -2 0.83519954E-01 0.14605538E+04</pdfrwt>
<totfact> 0.31431057E+01</totfact>
</mgrwt>
</event>
<event>
 6    1  0.1773638E-005  0.2979511E+04  0.7818608E-02  0.8249606E-01
         -2   -1    0    0    0  501 -0.00000000000E+00  0.00000000000E+00  0.15429210610E+04  0.15429210610E+04  0.00000000000E+00 0.  1.
          2   -1    0    0  501    0  0.00000000000E+00 -0.00000000000E+00 -0.14384221713E+04  0.14384221713E+04  0.00000000000E+00 0. -1.
         23    2    1    2    0    0 -0.29283916136E+03  0.52877470311E+03  0.14134491524E+04  0.15395706250E+04  0.84153085731E+02 0.  0.
         11    1    3    3    0    0 -0.17238337635E+03  0.26915356524E+03  0.83779337193E+03  0.89669248027E+03  0.00000000000E+00 0. -1.
        -11    1    3    3    0    0 -0.12045578501E+03  0.25962113787E+03  0.57565578049E+03  0.64287814474E+03  0.00000000000E+00 0.  1.
         22    1    1    2    0    0  0.29283916136E+03 -0.52877470311E+03 -0.13089502627E+04  0.14417726073E+04  0.00000000000E+00 0. -1.
<mgrwt>
<rscale>  0 0.29795113E+04</rscale>
<asrwt>0</asrwt>
<pdfrwt beam="1">  1        2 0.22129572E+00 0.29795113E+04</pdfrwt>
<pdfrwt beam="2">  1       -2 0.23737247E+00 0.29795113E+04</pdfrwt>
<totfact> 0.90727337E-01</totfact>
</mgrwt>
</event>
<event>
 6    1  0.1773638E-005  0.1881910E+04  0.7818608E-02  0.8663913E-01
          1   -1    0    0  501    0  0.00000000000E+00  0.00000000000E+00  0.25531818441E+04  0.25531818441E+04  0.00000000000E+00 0. -1.
         -1   -1    0    0    0  501 -0.00000000000E+00 -0.00000000000E+00 -0.34678166107E+03  0.34678166107E+03  0.00000000000E+00 0.  1.
         23    2    1    2    0    0 -0.86917674380E+03 -0.21355586544E+03  0.66991617210E+03  0.11218022539E+04  0.92619110408E+02 0.  0.
         13    1    3    3    0    0 -0.49291528759E+03 -0.16575203566E+03  0.36917131986E+03  0.63775126928E+03  0.00000000000E+00 0.  1.
        -13    1    3    3    0    0 -0.37626145621E+03 -0.47803829785E+02  0.30074485224E+03  0.48405098463E+03  0.00000000000E+00 0. -1.
         22    1    1    2    0    0  0.86917674380E+03  0.21355586544E+03  0.15364840109E+04  0.17781612512E+04  0.00000000000E+00 0. -1.
<mgrwt>
<rscale>  0 0.18819103E+04</rscale>
<asrwt>0</asrwt>
<pdfrwt beam="1">  1        1 0.39279719E+00 0.18819103E+04</pdfrwt>
<pdfrwt beam="2">  1       -1 0.53351026E-01 0.18819103E+04</pdfrwt>
<totfact> 0.41355263E+00</totfact>
</mgrwt>
</event>
<event>
 6    1  0.1773638E-005  0.2612978E+04  0.7818608E-02  0.8363806E-01
          1   -1    0    0  501    0  0.00000000000E+00  0.00000000000E+00  0.25963022661E+04  0.25963022661E+04  0.00000000000E+00 0. -1.
         -1   -1    0    0    0  501 -0.00000000000E+00 -0.00000000000E+00 -0.65743996420E+03  0.65743996420E+03  0.00000000000E+00 0.  1.
         23    2    1    2    0    0 -0.10757161165E+04  0.21066014538E+03  0.89008624944E+02  0.11035093391E+04  0.90925607505E+02 0.  0.
         11    1    3    3    0    0 -0.34187860087E+03  0.10835878873E+03  0.41902154585E+02  0.36107948625E+03  0.00000000000E+00 0. -1.
        -11    1    3    3    0    0 -0.73383751562E+03  0.10230135666E+03  0.47106470359E+02  0.74242985288E+03  0.00000000000E+00 0.  1.
         22    1    1    2    0    0  0.10757161165E+04 -0.21066014538E+03  0.18498536770E+04  0.21502328912E+04  0.00000000000E+00 0. -1.
<mgrwt>
<rscale>  0 0.26129775E+04</rscale>
<asrwt>0</asrwt>
<pdfrwt beam="1">  1        1 0.39943111E+00 0.26129775E+04</pdfrwt>
<pdfrwt beam="2">  1       -1 0.10114461E+00 0.26129775E+04</pdfrwt>
<totfact> 0.94776450E-01</totfact>
</mgrwt>
</event>
<event>
 6    1  0.1773638E-005  0.5254552E+04  0.7818608E-02  0.7790397E-01
          2   -1    0    0  501    0  0.00000000000E+00  0.00000000000E+00  0.29711711914E+04  0.29711711914E+04  0.00000000000E+00 0. -1.
         -2   -1    0    0    0  501 -0.00000000000E+00 -0.00000000000E+00 -0.23231843129E+04  0.23231843129E+04  0.00000000000E+00 0.  1.
         23    2    1    2    0    0 -0.58661421990E+03 -0.78537023445E+03 -0.21311220930E+04  0.23474301025E+04  0.88453734150E+02 0.  0.
         11    1    3    3    0    0 -0.12318469524E+03 -0.23006396287E+03 -0.56780182861E+03  0.62490224253E+03  0.00000000000E+00 0. -1.
        -11    1    3    3    0    0 -0.46342952466E+03 -0.55530627158E+03 -0.15633202643E+04  0.17225278600E+04  0.00000000000E+00 0.  1.
         22    1    1    2    0    0  0.58661421990E+03  0.78537023445E+03  0.27791089714E+04  0.29469254017E+04  0.00000000000E+00 0. -1.
<mgrwt>
<rscale>  0 0.52545517E+04</rscale>
<asrwt>0</asrwt>
<pdfrwt beam="1">  1        2 0.45710326E+00 0.52545517E+04</pdfrwt>
<pdfrwt beam="2">  1       -2 0.35741297E+00 0.52545517E+04</pdfrwt>
<totfact> 0.18081424E-02</totfact>
</mgrwt>
</event>
<event>
 6    1  0.1773638E-005  0.1298624E+04  0.7818608E-02  0.9030657E-01
         -1   -1    0    0    0  501 -0.00000000000E+00  0.00000000000E+00  0.61589892124E+03  0.61589892124E+03  0.00000000000E+00 0.  1.
          1   -1    0    0  501    0  0.00000000000E+00 -0.00000000000E+00 -0.68453811655E+03  0.68453811655E+03  0.00000000000E+00 0. -1.
         23    2    1    2    0    0 -0.41598627341E+03  0.48463423393E+03 -0.13231778164E+03  0.65858823727E+03  0.91189640712E+02 0.  0.
         11    1    3    3    0    0 -0.74228195017E+02  0.64007951430E+02 -0.51217848841E+02  0.11058983146E+03  0.00000000000E+00 0. -1.
        -11    1    3    3    0    0 -0.34175807839E+03  0.42062628250E+03 -0.81099932797E+02  0.54799840581E+03  0.00000000000E+00 0.  1.
         22    1    1    2    0    0  0.41598627341E+03 -0.48463423393E+03  0.63678586327E+02  0.64184880051E+03  0.00000000000E+00 0.  1.
<mgrwt>
<rscale>  0 0.12986243E+04</rscale>
<asrwt>0</asrwt>
<pdfrwt beam="1">  1        1 0.10531356E+00 0.12986243E+04</pdfrwt>
<pdfrwt beam="2">  1       -1 0.94753680E-01 0.12986243E+04</pdfrwt>
<totfact> 0.29842116E+01</totfact>
</mgrwt>
</event>
<event>
 6    1  0.1773638E-005  0.1698897E+04  0.7818608E-02  0.8761994E-01
         -2   -1    0    0    0  501 -0.00000000000E+00  0.00000000000E+00  0.55010897101E+03  0.55010897101E+03  0.00000000000E+00 0.  1.
          2   -1    0    0  501    0  0.00000000000E+00 -0.00000000000E+00 -0.13116717652E+04  0.13116717652E+04  0.00000000000E+00 0. -1.
         23    2    1    2    0    0 -0.26453510194E+03 -0.43299128522E+03 -0.11255234041E+04  0.12373389064E+04  0.82124070968E+02 0.  0.
         11    1    3    3    0    0 -0.12834146455E+03 -0.18398010389E+03 -0.59091928710E+03  0.63206472296E+03  0.00000000000E+00 0. -1.
        -11    1    3    3    0    0 -0.13619363739E+03 -0.24901118133E+03 -0.53460411696E+03  0.60527418346E+03  0.00000000000E+00 0.  1.
         22    1    1    2    0    0  0.26453510194E+03  0.43299128522E+03  0.36396060988E+03  0.62444182978E+03  0.00000000000E+00 0.  1.
<mgrwt>
<rscale>  0 0.16988966E+04</rscale>
<asrwt>0</asrwt>
<pdfrwt beam="1">  1        2 0.20179565E+00 0.16988966E+04</pdfrwt>
<pdfrwt beam="2">  1       -2 0.84632150E-01 0.16988966E+04</pdfrwt>
<totfact> 0.18847729E+01</totfact>
</mgrwt>
</event>
<event>
 6    1  0.1773638E-005  0.2564715E+04  0.7818608E-02  0.8380287E-01
         -2   -1    0    0    0  501 -0.00000000000E+00  0.00000000000E+00  0.17068269338E+04  0.17068269338E+04  0.00000000000E+00 0.  1.
          2   -1    0    0  501    0  0.00000000000E+00 -0.00000000000E+00 -0.96344881003E+03  0.96344881003E+03  0.00000000000E+00 0. -1.
         23    2    1    2    0    0 -0.36766585893E+03 -0.10038269831E+04  0.11063913241E+04  0.15412826618E+04  0.92756055544E+02 0.  0.
         11    1    3    3    0    0 -0.73546901566E+02 -0.29386706324E+03  0.27502681132E+03  0.40915369304E+03  0.00000000000E+00 0. -1.
        -11    1    3    3    0    0 -0.29411895736E+03 -0.70995991982E+03  0.83136451274E+03  0.11321289688E+04  0.00000000000E+00 0.  1.
         22    1    1    2    0    0  0.36766585893E+03  0.10038269831E+04 -0.36301320027E+03  0.11289930820E+04  0.00000000000E+00 0. -1.
<mgrwt>
<rscale>  0 0.25647147E+04</rscale>
<asrwt>0</asrwt>
<pdfrwt beam="1">  1        2 0.14822289E+00 0.25647147E+04</pdfrwt>
<pdfrwt beam="2">  1       -2 0.26258876E+00 0.25647147E+04</pdfrwt>
<totfact> 0.12695014E+00</totfact>
</mgrwt>
</event>
<event>
 6    1  0.1773638E-005  0.1811532E+04  0.7818608E-02  0.8700191E-01
         -1   -1    0    0    0  501 -0.00000000000E+00  0.00000000000E+00  0.10055685997E+04  0.10055685997E+04  0.00000000000E+00 0.  1.
          1   -1    0    0  501    0  0.00000000000E+00 -0.00000000000E+00 -0.81586919122E+03  0.81586919122E+03  0.00000000000E+00 0. -1.
         23    2    1    2    0    0 -0.57247570549E+03  0.36258032960E+03  0.69566081358E+03  0.97574879834E+03  0.94598208875E+02 0.  0.
         11    1    3    3    0    0 -0.36371154147E+03  0.22315608395E+03  0.37168354849E+03  0.56589167110E+03  0.00000000000E+00 0. -1.
        -11    1    3    3    0    0 -0.20876416402E+03  0.13942424565E+03  0.32397726509E+03  0.40985712724E+03  0.00000000000E+00 0.  1.
         22    1    1    2    0    0  0.57247570549E+03 -0.36258032960E+03 -0.50596140507E+03  0.84568899260E+03  0.00000000000E+00 0. -1.
<mgrwt>
<rscale>  0 0.18115324E+04</rscale>
<asrwt>0</asrwt>
<pdfrwt beam="1">  1        1 0.12551834E+00 0.18115324E+04</pdfrwt>
<pdfrwt beam="2">  1       -1 0.15470286E+00 0.18115324E+04</pdfrwt>
<totfact> 0.64778204E+00</totfact>
</mgrwt>
</event>
<event>
 6    1  0.1773638E-005  0.3406752E+04  0.7818608E-02  0.8136251E-01
         -2   -1    0    0    0  501 -0.00000000000E+00  0.00000000000E+00  0.19765542874E+04  0.19765542874E+04  0.00000000000E+00 0.  1.
          2   -1    0    0  501    0  0.00000000000E+00 -0.00000000000E+00 -0.14679535552E+04  0.14679535552E+04  0.00000000000E+00 0. -1.
         23    2    1    2    0    0 -0.42228000724E+03 -0.60098645193E+03 -0.12980529546E+04  0.14942507661E+04  0.91316806269E+02 0.  0.
         11    1    3    3    0    0 -0.13029434968E+03 -0.26017297456E+03 -0.53480273286E+03  0.60883541070E+03  0.00000000000E+00 0.  1.
        -11    1    3    3    0    0 -0.29198565756E+03 -0.34081347737E+03 -0.76325022178E+03  0.88541535542E+03  0.00000000000E+00 0. -1.
         22    1    1    2    0    0  0.42228000724E+03  0.60098645193E+03  0.18066536869E+04  0.19502570764E+04  0.00000000000E+00 0.  1.
<mgrwt>
<rscale>  0 0.34067521E+04</rscale>
<asrwt>0</asrwt>
<pdfrwt beam="1">  1        2 0.22583901E+00 0.34067521E+04</pdfrwt>
<pdfrwt beam="2">  1       -2 0.30408528E+00 0.34067521E+04</pdfrwt>
<totfact> 0.32875511E-01</totfact>
</mgrwt>
</event>
<event>
 6    1  0.1773638E-005  0.4606917E+04  0.7818608E-02  0.7892182E-01
          2   -1    0    0  501    0  0.00000000000E+00  0.00000000000E+00  0.29734345380E+04  0.29734345380E+04  0.00000000000E+00 0. -1.
         -2   -1    0    0    0  501 -0.00000000000E+00 -0.00000000000E+00 -0.17844418397E+04  0.17844418397E+04  0.00000000000E+00 0.  1.
         23    2    1    2    0    0  0.15341203516E+04  0.40281183063E+03  0.23185745216E+04  0.28106378921E+04  0.90082874373E+02 0.  0.
         13    1    3    3    0    0  0.86395829649E+03  0.20833173096E+03  0.12259247334E+04  0.15141722161E+04  0.00000000000E+00 0.  1.
        -13    1    3    3    0    0  0.67016205507E+03  0.19448009968E+03  0.10926497883E+04  0.12964656760E+04  0.00000000000E+00 0. -1.
         22    1    1    2    0    0 -0.15341203516E+04 -0.40281183063E+03 -0.11295818234E+04  0.19472384856E+04  0.00000000000E+00 0.  1.
<mgrwt>
<rscale>  0 0.46069170E+04</rscale>
<asrwt>0</asrwt>
<pdfrwt beam="1">  1        2 0.45745147E+00 0.46069170E+04</pdfrwt>
<pdfrwt beam="2">  1       -2 0.27452951E+00 0.46069170E+04</pdfrwt>
<totfact> 0.61772805E-02</totfact>
</mgrwt>
</event>
<event>
 6    1  0.1773638E-005  0.3390451E+04  0.7818608E-02  0.8140254E-01
          1   -1    0    0  501    0  0.00000000000E+00  0.00000000000E+00  0.32860882791E+04  0.32860882791E+04  0.00000000000E+00 0. -1.
         -1   -1    0    0    0  501 -0.00000000000E+00 -0.00000000000E+00 -0.87453180673E+03  0.87453180673E+03  0.00000000000E+00 0.  1.
         23    2    1    2    0    0 -0.28117927389E+03  0.13773151807E+04  0.23666951367E+04  0.27541808121E+04  0.90593513015E+02 0.  0.
         11    1    3    3    0    0 -0.25963441754E+03  0.12045935304E+04  0.20186506910E+04  0.23650383119E+04  0.00000000000E+00 0.  1.
        -11    1    3    3    0    0 -0.21544856356E+02  0.17272165034E+03  0.34804444570E+03  0.38914250026E+03  0.00000000000E+00 0. -1.
         22    1    1    2    0    0  0.28117927389E+03 -0.13773151807E+04  0.44861335660E+02  0.14064392737E+04  0.00000000000E+00 0.  1.
<mgrwt>
<rscale>  0 0.33904505E+04</rscale>
<asrwt>0</asrwt>
<pdfrwt beam="1">  1        1 0.50555204E+00 0.33904505E+04</pdfrwt>
<pdfrwt beam="2">  1       -1 0.13454336E+00 0.33904505E+04</pdfrwt>
<totfact> 0.13984075E-01</totfact>
</mgrwt>
</event>
<event>
 6    1  0.1773638E-005  0.1997276E+04  0.7818608E-02  0.8607895E-01
         -1   -1    0    0    0  501 -0.00000000000E+00  0.00000000000E+00  0.37402154486E+03  0.37402154486E+03  0.00000000000E+00 0.  1.
          1   -1    0    0  501    0  0.00000000000E+00 -0.00000000000E+00 -0.26663638218E+04  0.26663638218E+04  0.00000000000E+00 0. -1.
         23    2    1    2    0    0 -0.23390218445E+03 -0.53080351520E+03  0.85483045283E+02  0.59283233012E+03  0.87636847066E+02 0.  0.
         11    1    3    3    0    0 -0.18805790734E+03 -0.48222143256E+03  0.58879458314E+02  0.52093193139E+03  0.00000000000E+00 0.  1.
        -11    1    3    3    0    0 -0.45844277109E+02 -0.48582082643E+02  0.26603586969E+02  0.71900398728E+02  0.00000000000E+00 0. -1.
         22    1    1    2    0    0  0.23390218445E+03  0.53080351520E+03 -0.23778253222E+04  0.24475530365E+04  0.00000000000E+00 0. -1.
<mgrwt>
<rscale>  0 0.19972757E+04</rscale>
<asrwt>0</asrwt>
<pdfrwt beam="1">  1        1 0.41020980E+00 0.19972757E+04</pdfrwt>
<pdfrwt beam="2">  1       -1 0.57541778E-01 0.19972757E+04</pdfrwt>
<totfact> 0.29443086E+00</totfact>
</mgrwt>
</event>
<event>
 6    1  0.1773638E-005  0.1781957E+04  0.7818608E-02  0.8715954E-01
          2   -1    0    0  501    0  0.00000000000E+00  0.00000000000E+00  0.14848646860E+04  0.14848646860E+04  0.00000000000E+00 0. -1.
         -2   -1    0    0    0  501 -0.00000000000E+00 -0.00000000000E+00 -0.53462262819E+03  0.53462262819E+03  0.00000000000E+00 0.  1.
         23    2    1    2    0    0 -0.58518412613E+02  0.61445871889E+03 -0.24904932737E+03  0.67067904449E+03  0.82467517400E+02 0.  0.
         13    1    3    3    0    0 -0.42466187361E+02  0.13514313099E+03 -0.37695187855E+02  0.14658775566E+03  0.00000000000E+00 0. -1.
        -13    1    3    3    0    0 -0.16052225252E+02  0.47931558790E+03 -0.21135413952E+03  0.52409128883E+03  0.00000000000E+00 0.  1.
         22    1    1    2    0    0  0.58518412613E+02 -0.61445871889E+03  0.11992913852E+04  0.13488082697E+04  0.00000000000E+00 0. -1.
<mgrwt>
<rscale>  0 0.17819565E+04</rscale>
<asrwt>0</asrwt>
<pdfrwt beam="1">  1        2 0.22844072E+00 0.17819565E+04</pdfrwt>
<pdfrwt beam="2">  1       -2 0.82249636E-01 0.17819565E+04</pdfrwt>
<totfact> 0.15892471E+01</totfact>
</mgrwt>
</event>
<event>
 6    1  0.1773638E-005  0.1263184E+04  0.7818608E-02  0.9059281E-01
         -1   -1    0    0    0  501 -0.00000000000E+00  0.00000000000E+00  0.75011987402E+03  0.75011987402E+03  0.00000000000E+00 0.  1.
          1   -1    0    0  501    0  0.00000000000E+00 -0.00000000000E+00 -0.53179291333E+03  0.53179291333E+03  0.00000000000E+00 0. -1.
         23    2    1    2    0    0  0.32205728279E+03  0.29674031762E+03 -0.34750664474E+03  0.56641060111E+03  0.91018632242E+02 0.  0.
         13    1    3    3    0    0  0.17928368686E+03  0.20867978676E+03 -0.25358909096E+03  0.37416215847E+03  0.00000000000E+00 0.  1.
        -13    1    3    3    0    0  0.14277359594E+03  0.88060530858E+02 -0.93917553773E+02  0.19224844264E+03  0.00000000000E+00 0. -1.
         22    1    1    2    0    0 -0.32205728279E+03 -0.29674031762E+03  0.56583360542E+03  0.71550218625E+03  0.00000000000E+00 0.  1.
<mgrwt>
<rscale>  0 0.12631840E+04</rscale>
<asrwt>0</asrwt>
<pdfrwt beam="1">  1        1 0.81814294E-01 0.12631840E+04</pdfrwt>
<pdfrwt beam="2">  1       -1 0.11540306E+00 0.12631840E+04</pdfrwt>
<totfact> 0.27287937E+01</totfact>
</mgrwt>
</event>
<event>
 6    1  0.1773638E-005  0.1253169E+04  0.7818608E-02  0.9067550E-01
         -1   -1    0    0    0  501 -0.00000000000E+00  0.00000000000E+00  0.36170940027E+03  0.36170940027E+03  0.00000000000E+00 0.  1.
          1   -1    0    0  501    0  0.00000000000E+00 -0.00000000000E+00 -0.10854242522E+04  0.10854242522E+04  0.00000000000E+00 0. -1.
         23    2    1    2    0    0 -0.24402973173E+03  0.53026528870E+03 -0.10915574034E+03  0.59954018389E+03  0.82472238248E+02 0.  0.
         13    1    3    3    0    0 -0.14163297935E+03  0.34785285556E+03 -0.33422829118E+02  0.37706577075E+03  0.00000000000E+00 0. -1.
        -13    1    3    3    0    0 -0.10239675238E+03  0.18241243313E+03 -0.75732911223E+02  0.22247441314E+03  0.00000000000E+00 0.  1.
         22    1    1    2    0    0  0.24402973173E+03 -0.53026528870E+03 -0.61455911163E+03  0.84759346862E+03  0.00000000000E+00 0. -1.
<mgrwt>
<rscale>  0 0.12531690E+04</rscale>
<asrwt>0</asrwt>
<pdfrwt beam="1">  1        1 0.16698835E+00 0.12531690E+04</pdfrwt>
<pdfrwt beam="2">  1       -1 0.55647600E-01 0.12531690E+04</pdfrwt>
<totfact> 0.41868077E+01</totfact>
</mgrwt>
</event>
<event>
 6    1  0.1773638E-005  0.6338040E+03  0.7818608E-02  0.9837654E-01
         -1   -1    0    0    0  501 -0.00000000000E+00  0.00000000000E+00  0.46206191525E+03  0.46206191525E+03  0.00000000000E+00 0.  1.
          1   -1    0    0  501    0  0.00000000000E+00 -0.00000000000E+00 -0.21734507036E+03  0.21734507036E+03  0.00000000000E+00 0. -1.
         23    2    1    2    0    0 -0.13501926660E+03  0.51547717245E+01  0.42439111500E+03  0.45459680487E+03  0.91069547505E+02 0.  0.
         11    1    3    3    0    0 -0.17078635652E+02 -0.34351788567E+02  0.90787920718E+02  0.98560497776E+02  0.00000000000E+00 0. -1.
        -11    1    3    3    0    0 -0.11794063095E+03  0.39506560292E+02  0.33360319429E+03  0.35603630710E+03  0.00000000000E+00 0.  1.
         22    1    1    2    0    0  0.13501926660E+03 -0.51547717245E+01 -0.17967427011E+03  0.22481018074E+03  0.00000000000E+00 0. -1.
<mgrwt>
<rscale>  0 0.63380401E+03</rscale>
<asrwt>0</asrwt>
<pdfrwt beam="1">  1        1 0.33437703E-01 0.63380401E+03</pdfrwt>
<pdfrwt beam="2">  1       -1 0.71086448E-01 0.63380401E+03</pdfrwt>
<totfact> 0.27076701E+02</totfact>
</mgrwt>
</event>
<event>
 6    1  0.1773638E-005  0.1146093E+04  0.7818608E-02  0.9161395E-01
          2   -1    0    0  501    0  0.00000000000E+00  0.00000000000E+00  0.49446890418E+03  0.49446890418E+03  0.00000000000E+00 0. -1.
         -2   -1    0    0    0  501 -0.00000000000E+00 -0.00000000000E+00 -0.66411165072E+03  0.66411165072E+03  0.00000000000E+00 0.  1.
         23    2    1    2    0    0 -0.10856416788E+03 -0.97715563343E+02  0.47090521481E+03  0.50159029572E+03  0.92231196227E+02 0.  0.
         11    1    3    3    0    0 -0.11819872612E+03 -0.59988539757E+02  0.33672881623E+03  0.36187823842E+03  0.00000000000E+00 0.  1.
        -11    1    3    3    0    0  0.96345582321E+01 -0.37727023586E+02  0.13417639857E+03  0.13971205730E+03  0.00000000000E+00 0. -1.
         22    1    1    2    0    0  0.10856416788E+03  0.97715563343E+02 -0.64054796135E+03  0.65699025918E+03  0.00000000000E+00 0.  1.
<mgrwt>
<rscale>  0 0.11460935E+04</rscale>
<asrwt>0</asrwt>
<pdfrwt beam="1">  1        2 0.76072139E-01 0.11460935E+04</pdfrwt>
<pdfrwt beam="2">  1       -2 0.10217102E+00 0.11460935E+04</pdfrwt>
<totfact> 0.48482068E+01</totfact>
</mgrwt>
</event>
<event>
 6    1  0.1773638E-005  0.3118486E+04  0.7818608E-02  0.8210683E-01
         -2   -1    0    0    0  501 -0.00000000000E+00  0.00000000000E+00  0.10091068245E+04  0.10091068245E+04  0.00000000000E+00 0.  1.
          2   -1    0    0  501    0  0.00000000000E+00 -0.00000000000E+00 -0.24092972228E+04  0.24092972228E+04  0.00000000000E+00 0. -1.
         23    2    1    2    0    0 -0.81769690181E+03 -0.87866729281E+03 -0.17893611112E+04  0.21566044283E+04  0.91896896287E+02 0.  0.
         11    1    3    3    0    0 -0.24843315173E+03 -0.25069791401E+03 -0.45567775162E+03  0.57637721007E+03  0.00000000000E+00 0.  1.
        -11    1    3    3    0    0 -0.56926375008E+03 -0.62796937880E+03 -0.13336833595E+04  0.15802272183E+04  0.00000000000E+00 0. -1.
         22    1    1    2    0    0  0.81769690181E+03  0.87866729281E+03  0.38917071284E+03  0.12617996190E+04  0.00000000000E+00 0.  1.
<mgrwt>
<rscale>  0 0.31184857E+04</rscale>
<asrwt>0</asrwt>
<pdfrwt beam="1">  1        2 0.37066111E+00 0.31184857E+04</pdfrwt>
<pdfrwt beam="2">  1       -2 0.15524720E+00 0.31184857E+04</pdfrwt>
<totfact> 0.90985993E-01</totfact>
</mgrwt>
</event>
<event>
 6    1  0.1773638E-005  0.3255203E+04  0.7818608E-02  0.8174388E-01
         -2   -1    0    0    0  501 -0.00000000000E+00  0.00000000000E+00  0.25454432933E+04  0.25454432933E+04  0.00000000000E+00 0.  1.
          2   -1    0    0  501    0  0.00000000000E+00 -0.00000000000E+00 -0.10407171736E+04  0.10407171736E+04  0.00000000000E+00 0. -1.
         23    2    1    2    0    0  0.10668928862E+03  0.69669429473E+03  0.23675212399E+04  0.24720774520E+04  0.96148648119E+02 0.  0.
         13    1    3    3    0    0  0.25520547008E+02  0.40623960941E+03  0.14653871614E+04  0.15208686503E+04  0.00000000000E+00 0.  1.
        -13    1    3    3    0    0  0.81168741613E+02  0.29045468533E+03  0.90213407851E+03  0.95120880171E+03  0.00000000000E+00 0. -1.
         22    1    1    2    0    0 -0.10668928862E+03 -0.69669429473E+03 -0.86279512020E+03  0.11140830149E+04  0.00000000000E+00 0. -1.
<mgrwt>
<rscale>  0 0.32552029E+04</rscale>
<asrwt>0</asrwt>
<pdfrwt beam="1">  1        2 0.16011034E+00 0.32552029E+04</pdfrwt>
<pdfrwt beam="2">  1       -2 0.39160666E+00 0.32552029E+04</pdfrwt>
<totfact> 0.16732542E-01</totfact>
</mgrwt>
</event>
<event>
 6    1  0.1773638E-005  0.2943634E+04  0.7818608E-02  0.8260012E-01
         -2   -1    0    0    0  501 -0.00000000000E+00  0.00000000000E+00  0.95019540964E+03  0.95019540964E+03  0.00000000000E+00 0.  1.
          2   -1    0    0  501    0  0.00000000000E+00 -0.00000000000E+00 -0.22797885462E+04  0.22797885462E+04  0.00000000000E+00 0. -1.
         23    2    1    2    0    0  0.75754533344E+03  0.10907035313E+04  0.27392860022E+02  0.13313212369E+04  0.90314680757E+02 0.  0.
         11    1    3    3    0    0  0.13919962916E+03  0.25201838094E+03  0.28670953703E+02  0.28932995814E+03  0.00000000000E+00 0.  1.
        -11    1    3    3    0    0  0.61834570428E+03  0.83868515037E+03 -0.12780936810E+01  0.10419912787E+04  0.00000000000E+00 0. -1.
         22    1    1    2    0    0 -0.75754533344E+03 -0.10907035313E+04 -0.13569859966E+04  0.18986627190E+04  0.00000000000E+00 0. -1.
<mgrwt>
<rscale>  0 0.29436335E+04</rscale>
<asrwt>0</asrwt>
<pdfrwt beam="1">  1        2 0.35073669E+00 0.29436335E+04</pdfrwt>
<pdfrwt beam="2">  1       -2 0.14618391E+00 0.29436335E+04</pdfrwt>
<totfact> 0.12838710E+00</totfact>
</mgrwt>
</event>
<event>
 6    1  0.1773638E-005  0.1162325E+04  0.7818608E-02  0.9146488E-01
         -1   -1    0    0    0  501 -0.00000000000E+00  0.00000000000E+00  0.42673932145E+03  0.42673932145E+03  0.00000000000E+00 0.  1.
          1   -1    0    0  501    0  0.00000000000E+00 -0.00000000000E+00 -0.79146606314E+03  0.79146606314E+03  0.00000000000E+00 0. -1.
         23    2    1    2    0    0 -0.45841084698E+03  0.22665036191E+03 -0.46482589901E+03  0.69711927608E+03  0.91658482984E+02 0.  0.
         13    1    3    3    0    0 -0.20190019024E+03  0.61170706846E+02 -0.22913846688E+03  0.31146425028E+03  0.00000000000E+00 0. -1.
        -13    1    3    3    0    0 -0.25651065674E+03  0.16547965506E+03 -0.23568743213E+03  0.38565502580E+03  0.00000000000E+00 0.  1.
         22    1    1    2    0    0  0.45841084698E+03 -0.22665036191E+03  0.10009915733E+03  0.52108610851E+03  0.00000000000E+00 0.  1.
<mgrwt>
<rscale>  0 0.11623247E+04</rscale>
<asrwt>0</asrwt>
<pdfrwt beam="1">  1        1 0.12176401E+00 0.11623247E+04</pdfrwt>
<pdfrwt beam="2">  1       -1 0.65652203E-01 0.11623247E+04</pdfrwt>
<totfact> 0.52504445E+01</totfact>
</mgrwt>
</event>
<event>
 6    1  0.1773638E-005  0.2165680E+04  0.7818608E-02  0.8532850E-01
         -2   -1    0    0    0  501 -0.00000000000E+00  0.00000000000E+00  0.17254185361E+04  0.17254185361E+04  0.00000000000E+00 0.  1.
          2   -1    0    0  501    0  0.00000000000E+00 -0.00000000000E+00 -0.67956979132E+03  0.67956979132E+03  0.00000000000E+00 0. -1.
         23    2    1    2    0    0 -0.27673267741E+03 -0.57129696802E+03 -0.44768107261E+03  0.78215361129E+03  0.91568162983E+02 0.  0.
         13    1    3    3    0    0 -0.23055118283E+03 -0.52118327846E+03 -0.37331634410E+03  0.68128624705E+03  0.00000000000E+00 0. -1.
        -13    1    3    3    0    0 -0.46181494582E+02 -0.50113689564E+02 -0.74364728508E+02  0.10086736424E+03  0.00000000000E+00 0.  1.
         22    1    1    2    0    0  0.27673267741E+03  0.57129696802E+03  0.14935298174E+04  0.16228347161E+04  0.00000000000E+00 0.  1.
<mgrwt>
<rscale>  0 0.21656799E+04</rscale>
<asrwt>0</asrwt>
<pdfrwt beam="1">  1        2 0.10454920E+00 0.21656799E+04</pdfrwt>
<pdfrwt beam="2">  1       -2 0.26544900E+00 0.21656799E+04</pdfrwt>
<totfact> 0.20145929E+00</totfact>
</mgrwt>
</event>
<event>
 6    1  0.1773638E-005  0.4117034E+04  0.7818608E-02  0.7981344E-01
          2   -1    0    0  501    0  0.00000000000E+00  0.00000000000E+00  0.30596654083E+04  0.30596654083E+04  0.00000000000E+00 0. -1.
         -2   -1    0    0    0  501 -0.00000000000E+00 -0.00000000000E+00 -0.13849528532E+04  0.13849528532E+04  0.00000000000E+00 0.  1.
         23    2    1    2    0    0 -0.11327609817E+04 -0.16276993070E+04  0.14295288062E+04  0.24464522157E+04  0.94991370128E+02 0.  0.
         13    1    3    3    0    0 -0.46720263265E+03 -0.60169367504E+03  0.51984338281E+03  0.92225306786E+03  0.00000000000E+00 0.  1.
        -13    1    3    3    0    0 -0.66555834907E+03 -0.10260056320E+04  0.90968542341E+03  0.15241991479E+04  0.00000000000E+00 0. -1.
         22    1    1    2    0    0  0.11327609817E+04  0.16276993070E+04  0.24518374890E+03  0.19981660458E+04  0.00000000000E+00 0.  1.
<mgrwt>
<rscale>  0 0.41170340E+04</rscale>
<asrwt>0</asrwt>
<pdfrwt beam="1">  1        2 0.47071775E+00 0.41170340E+04</pdfrwt>
<pdfrwt beam="2">  1       -2 0.21306967E+00 0.41170340E+04</pdfrwt>
<totfact> 0.13642923E-01</totfact>
</mgrwt>
</event>
<event>
 6    1  0.1773638E-005  0.2654449E+04  0.7818608E-02  0.8349938E-01
         -1   -1    0    0    0  501 -0.00000000000E+00  0.00000000000E+00  0.73676029871E+03  0.73676029871E+03  0.00000000000E+00 0.  1.
          1   -1    0    0  501    0  0.00000000000E+00 -0.00000000000E+00 -0.23909062653E+04  0.23909062653E+04  0.00000000000E+00 0. -1.
         23    2    1    2    0    0  0.40616573878E+03 -0.64246974545E+03 -0.21078287898E+04  0.22424738814E+04  0.89492569964E+02 0.  0.
         11    1    3    3    0    0  0.20050284001E+03 -0.31439731583E+03 -0.90332129960E+03  0.97725965401E+03  0.00000000000E+00 0.  1.
        -11    1    3    3    0    0  0.20566289877E+03 -0.32807242962E+03 -0.12045074902E+04  0.12652142273E+04  0.00000000000E+00 0. -1.
         22    1    1    2    0    0 -0.40616573878E+03  0.64246974545E+03  0.45368282330E+03  0.88519268260E+03  0.00000000000E+00 0.  1.
<mgrwt>
<rscale>  0 0.26544490E+04</rscale>
<asrwt>0</asrwt>
<pdfrwt beam="1">  1        1 0.36783174E+00 0.26544490E+04</pdfrwt>
<pdfrwt beam="2">  1       -1 0.11334774E+00 0.26544490E+04</pdfrwt>
<totfact> 0.10036610E+00</totfact>
</mgrwt>
</event>
<event>
 6    1  0.1773638E-005  0.1056424E+04  0.7818608E-02  0.9248737E-01
         -1   -1    0    0    0  501 -0.00000000000E+00  0.00000000000E+00  0.45513699846E+03  0.45513699846E+03  0.00000000000E+00 0.  1.
          1   -1    0    0  501    0  0.00000000000E+00 -0.00000000000E+00 -0.61301934268E+03  0.61301934268E+03  0.00000000000E+00 0. -1.
         23    2    1    2    0    0 -0.34530803959E+03  0.11479014069E+03 -0.46074315356E+03  0.59472304232E+03  0.94851594149E+02 0.  0.
         13    1    3    3    0    0 -0.14465275350E+03  0.90548727015E+02 -0.17223661100E+03  0.24246430919E+03  0.00000000000E+00 0.  1.
        -13    1    3    3    0    0 -0.20065528609E+03  0.24241413671E+02 -0.28850654256E+03  0.35225873314E+03  0.00000000000E+00 0. -1.
         22    1    1    2    0    0  0.34530803959E+03 -0.11479014069E+03  0.30286080933E+03  0.47343329882E+03  0.00000000000E+00 0.  1.
<mgrwt>
<rscale>  0 0.10564237E+04</rscale>
<asrwt>0</asrwt>
<pdfrwt beam="1">  1        1 0.94310669E-01 0.10564237E+04</pdfrwt>
<pdfrwt beam="2">  1       -1 0.70021076E-01 0.10564237E+04</pdfrwt>
<totfact> 0.68427048E+01</totfact>
</mgrwt>
</event>
<event>
 6    1  0.1773638E-005  0.2877083E+04  0.7818608E-02  0.8279729E-01
         -1   -1    0    0    0  501 -0.00000000000E+00  0.00000000000E+00  0.11943891147E+04  0.11943891147E+04  0.00000000000E+00 0. -1.
          1   -1    0    0  501    0  0.00000000000E+00 -0.00000000000E+00 -0.17326031401E+04  0.17326031401E+04  0.00000000000E+00 0.  1.
         23    2    1    2    0    0 -0.64736899190E+03  0.48487152515E+03 -0.14779308268E+04  0.16871315068E+04  0.89141377149E+02 0.  0.
         11    1    3    3    0    0 -0.31875861331E+03  0.29212348555E+03 -0.81129620740E+03  0.91931752975E+03  0.00000000000E+00 0.  1.
        -11    1    3    3    0    0 -0.32861037858E+03  0.19274803960E+03 -0.66663461936E+03  0.76781397708E+03  0.00000000000E+00 0. -1.
         22    1    1    2    0    0  0.64736899190E+03 -0.48487152515E+03  0.93971680135E+03  0.12398607480E+04  0.00000000000E+00 0. -1.
<mgrwt>
<rscale>  0 0.28770835E+04</rscale>
<asrwt>0</asrwt>
<pdfrwt beam="1">  1        1 0.26655433E+00 0.28770835E+04</pdfrwt>
<pdfrwt beam="2">  1       -1 0.18375217E+00 0.28770835E+04</pdfrwt>
<totfact> 0.76187635E-01</totfact>
</mgrwt>
</event>
<event>
 6    1  0.1773638E-005  0.1955878E+04  0.7818608E-02  0.8627532E-01
          1   -1    0    0  501    0  0.00000000000E+00  0.00000000000E+00  0.13048558414E+04  0.13048558414E+04  0.00000000000E+00 0. -1.
         -1   -1    0    0    0  501 -0.00000000000E+00 -0.00000000000E+00 -0.73292746028E+03  0.73292746028E+03  0.00000000000E+00 0.  1.
         23    2    1    2    0    0  0.89513855474E+03  0.16638065001E+03  0.65231982530E+03  0.11237710823E+04  0.91568215426E+02 0.  0.
         13    1    3    3    0    0  0.42469757555E+03  0.89664075808E+02  0.25639707328E+03  0.50413007880E+03  0.00000000000E+00 0. -1.
        -13    1    3    3    0    0  0.47044097919E+03  0.76716574203E+02  0.39592275202E+03  0.61964100351E+03  0.00000000000E+00 0.  1.
         22    1    1    2    0    0 -0.89513855474E+03 -0.16638065001E+03 -0.80391444168E+02  0.91401221938E+03  0.00000000000E+00 0.  1.
<mgrwt>
<rscale>  0 0.19558780E+04</rscale>
<asrwt>0</asrwt>
<pdfrwt beam="1">  1        1 0.20074705E+00 0.19558780E+04</pdfrwt>
<pdfrwt beam="2">  1       -1 0.11275807E+00 0.19558780E+04</pdfrwt>
<totfact> 0.60127501E+00</totfact>
</mgrwt>
</event>
<event>
 6    1  0.2199660E-005  0.2550187E+04  0.7818608E-02  0.8385321E-01
         -2   -1    0    0    0  501 -0.00000000000E+00  0.00000000000E+00  0.13654514534E+04  0.13654514534E+04  0.00000000000E+00 0. -1.
          2   -1    0    0  501    0  0.00000000000E+00 -0.00000000000E+00 -0.11907145522E+04  0.11907145522E+04  0.00000000000E+00 0.  1.
         23    2    1    2    0    0 -0.20295735441E+03 -0.96701885908E+03 -0.71777667920E+03  0.12246639768E+04  0.91001832132E+02 0.  0.
         13    1    3    3    0    0 -0.10682030776E+03 -0.68947042113E+03 -0.48177916322E+03  0.84787452012E+03  0.00000000000E+00 0. -1.
        -13    1    3    3    0    0 -0.96137046643E+02 -0.27754843795E+03 -0.23599751598E+03  0.37678945672E+03  0.00000000000E+00 0.  1.
         22    1    1    2    0    0  0.20295735441E+03  0.96701885908E+03  0.89251358043E+03  0.13315020288E+04  0.00000000000E+00 0. -1.
<mgrwt>
<rscale>  0 0.25501866E+04</rscale>
<asrwt>0</asrwt>
<pdfrwt beam="1">  1        2 0.18318685E+00 0.25501866E+04</pdfrwt>
<pdfrwt beam="2">  1       -2 0.21006945E+00 0.25501866E+04</pdfrwt>
<totfact> 0.19491861E+00</totfact>
</mgrwt>
</event>
<event>
 6    1  0.1773638E-005  0.3003632E+04  0.7818608E-02  0.8242695E-01
          1   -1    0    0  501    0  0.00000000000E+00  0.00000000000E+00  0.18501361695E+04  0.18501361695E+04  0.00000000000E+00 0. -1.
         -1   -1    0    0    0  501 -0.00000000000E+00 -0.00000000000E+00 -0.12190729179E+04  0.12190729179E+04  0.00000000000E+00 0.  1.
         23    2    1    2    0    0  0.89224115997E+03 -0.95572650346E+02  0.15445379940E+04  0.17887152281E+04  0.93145763264E+02 0.  0.
         13    1    3    3    0    0  0.28421515717E+03 -0.36590315737E+02  0.41079181247E+03  0.50086626954E+03  0.00000000000E+00 0.  1.
        -13    1    3    3    0    0  0.60802600280E+03 -0.58982334609E+02  0.11337461815E+04  0.12878489585E+04  0.00000000000E+00 0. -1.
         22    1    1    2    0    0 -0.89224115997E+03  0.95572650346E+02 -0.91347474236E+03  0.12804938594E+04  0.00000000000E+00 0.  1.
<mgrwt>
<rscale>  0 0.30036317E+04</rscale>
<asrwt>0</asrwt>
<pdfrwt beam="1">  1        1 0.28463633E+00 0.30036317E+04</pdfrwt>
<pdfrwt beam="2">  1       -1 0.18754968E+00 0.30036317E+04</pdfrwt>
<totfact> 0.58923226E-01</totfact>
</mgrwt>
</event>
<event>
 6    1  0.1773638E-005  0.8190048E+03  0.7818608E-02  0.9532909E-01
         -2   -1    0    0    0  501 -0.00000000000E+00  0.00000000000E+00  0.11814872490E+03  0.11814872490E+03  0.00000000000E+00 0. -1.
          2   -1    0    0  501    0  0.00000000000E+00 -0.00000000000E+00 -0.14193316237E+04  0.14193316237E+04  0.00000000000E+00 0.  1.
         23    2    1    2    0    0 -0.27157790203E+03  0.20869785667E+03 -0.10629101573E+04  0.11202474980E+04  0.88696685957E+02 0.  0.
         11    1    3    3    0    0 -0.96787370560E+02  0.78870048246E+02 -0.53138699281E+03  0.54585750497E+03  0.00000000000E+00 0.  1.
        -11    1    3    3    0    0 -0.17479053147E+03  0.12982780842E+03 -0.53152316450E+03  0.57438999307E+03  0.00000000000E+00 0. -1.
         22    1    1    2    0    0  0.27157790203E+03 -0.20869785667E+03 -0.23827274148E+03  0.41723285055E+03  0.00000000000E+00 0. -1.
<mgrwt>
<rscale>  0 0.81900481E+03</rscale>
<asrwt>0</asrwt>
<pdfrwt beam="1">  1        2 0.21835871E+00 0.81900481E+03</pdfrwt>
<pdfrwt beam="2">  1       -2 0.18176727E-01 0.81900481E+03</pdfrwt>
<totfact> 0.35836017E+02</totfact>
</mgrwt>
</event>
<event>
 6    1  0.1773638E-005  0.2505489E+04  0.7818608E-02  0.8401033E-01
         -2   -1    0    0    0  501 -0.00000000000E+00  0.00000000000E+00  0.21365762825E+04  0.21365762825E+04  0.00000000000E+00 0.  1.
          2   -1    0    0  501    0  0.00000000000E+00 -0.00000000000E+00 -0.73452523393E+03  0.73452523393E+03  0.00000000000E+00 0. -1.
         23    2    1    2    0    0  0.83074269967E+03  0.53732153546E+03  0.15794403112E+04  0.18659573397E+04  0.91198856392E+02 0.  0.
         11    1    3    3    0    0  0.15577389850E+03  0.60418680397E+02  0.26009112725E+03  0.30913317336E+03  0.00000000000E+00 0.  1.
        -11    1    3    3    0    0  0.67496880118E+03  0.47690285507E+03  0.13193491840E+04  0.15568241664E+04  0.00000000000E+00 0. -1.
         22    1    1    2    0    0 -0.83074269967E+03 -0.53732153546E+03 -0.17738926264E+03  0.10051441767E+04  0.00000000000E+00 0. -1.
<mgrwt>
<rscale>  0 0.25054893E+04</rscale>
<asrwt>0</asrwt>
<pdfrwt beam="1">  1        2 0.11300388E+00 0.25054893E+04</pdfrwt>
<pdfrwt beam="2">  1       -2 0.32870404E+00 0.25054893E+04</pdfrwt>
<totfact> 0.72658046E-01</totfact>
</mgrwt>
</event>
<event>
 6    1  0.1773638E-005  0.2545830E+04  0.7818608E-02  0.8386838E-01
          1   -1    0    0  501    0  0.00000000000E+00  0.00000000000E+00  0.23698222959E+04  0.23698222959E+04  0.00000000000E+00 0. -1.
         -1   -1    0    0    0  501 -0.00000000000E+00 -0.00000000000E+00 -0.68372736199E+03  0.68372736199E+03  0.00000000000E+00 0.  1.
         23    2    1    2    0    0  0.77139456190E+03  0.94250530213E+03  0.12813478100E+04  0.17701221963E+04  0.90080881366E+02 0.  0.
         11    1    3    3    0    0  0.11081615844E+03  0.14428627023E+03  0.14782095514E+03  0.23441370167E+03  0.00000000000E+00 0.  1.
        -11    1    3    3    0    0  0.66057840346E+03  0.79821903190E+03  0.11335268548E+04  0.15357084947E+04  0.00000000000E+00 0. -1.
         22    1    1    2    0    0 -0.77139456190E+03 -0.94250530213E+03  0.40474712390E+03  0.12834274615E+04  0.00000000000E+00 0.  1.
<mgrwt>
<rscale>  0 0.25458298E+04</rscale>
<asrwt>0</asrwt>
<pdfrwt beam="1">  1        1 0.36458804E+00 0.25458298E+04</pdfrwt>
<pdfrwt beam="2">  1       -1 0.10518883E+00 0.25458298E+04</pdfrwt>
<totfact> 0.12498619E+00</totfact>
</mgrwt>
</event>
<event>
 6    1  0.1773638E-005  0.2315093E+04  0.7818608E-02  0.8471994E-01
          2   -1    0    0  501    0  0.00000000000E+00  0.00000000000E+00  0.31174389281E+04  0.31174389281E+04  0.00000000000E+00 0. -1.
         -2   -1    0    0    0  501 -0.00000000000E+00 -0.00000000000E+00 -0.42981247979E+03  0.42981247979E+03  0.00000000000E+00 0.  1.
         23    2    1    2    0    0  0.31592313051E+03  0.11128805232E+04  0.13435248682E+04  0.17738593077E+04  0.56632930492E+02 0.  0.
         13    1    3    3    0    0  0.23204243337E+03  0.88337241659E+03  0.10374227084E+04  0.13821853686E+04  0.00000000000E+00 0. -1.
        -13    1    3    3    0    0  0.83880697139E+02  0.22950810659E+03  0.30610215974E+03  0.39167393907E+03  0.00000000000E+00 0.  1.
         22    1    1    2    0    0 -0.31592313051E+03 -0.11128805232E+04  0.13441015801E+04  0.17733921002E+04  0.00000000000E+00 0.  1.
<mgrwt>
<rscale>  0 0.23150932E+04</rscale>
<asrwt>0</asrwt>
<pdfrwt beam="1">  1        2 0.47960598E+00 0.23150932E+04</pdfrwt>
<pdfrwt beam="2">  1       -2 0.66124999E-01 0.23150932E+04</pdfrwt>
<totfact> 0.27969810E+00</totfact>
</mgrwt>
</event>
<event>
 6    1  0.1797723E-005  0.4698011E+04  0.7818608E-02  0.7876859E-01
         -2   -1    0    0    0  501 -0.00000000000E+00  0.00000000000E+00  0.15941588914E+04  0.15941588914E+04  0.00000000000E+00 0.  1.
          2   -1    0    0  501    0  0.00000000000E+00 -0.00000000000E+00 -0.34612774609E+04  0.34612774609E+04  0.00000000000E+00 0. -1.
         23    2    1    2    0    0  0.40405517991E+03  0.40238073388E+03 -0.33850467545E+04  0.34339318601E+04  0.90419276847E+02 0.  0.
         11    1    3    3    0    0  0.25747268945E+03  0.19579981724E+03 -0.18207034257E+04  0.18492135406E+04  0.00000000000E+00 0.  1.
        -11    1    3    3    0    0  0.14658249046E+03  0.20658091664E+03 -0.15643433288E+04  0.15847183194E+04  0.00000000000E+00 0. -1.
         22    1    1    2    0    0 -0.40405517991E+03 -0.40238073388E+03  0.15179281850E+04  0.16215044922E+04  0.00000000000E+00 0.  1.
<mgrwt>
<rscale>  0 0.46980107E+04</rscale>
<asrwt>0</asrwt>
<pdfrwt beam="1">  1        2 0.53250421E+00 0.46980107E+04</pdfrwt>
<pdfrwt beam="2">  1       -2 0.24525522E+00 0.46980107E+04</pdfrwt>
<totfact> 0.44263738E-02</totfact>
</mgrwt>
</event>
<event>
 6    1  0.1773638E-005  0.1889814E+04  0.7818608E-02  0.8659943E-01
         -1   -1    0    0    0  501 -0.00000000000E+00  0.00000000000E+00  0.27008814032E+04  0.27008814032E+04  0.00000000000E+00 0.  1.
          1   -1    0    0  501    0  0.00000000000E+00 -0.00000000000E+00 -0.33057700653E+03  0.33057700653E+03  0.00000000000E+00 0. -1.
         23    2    1    2    0    0 -0.62576580681E+03  0.37498553847E+03  0.22988725785E+03  0.77013522910E+03  0.89794881583E+02 0.  0.
         13    1    3    3    0    0 -0.32128696600E+03  0.23192755153E+03  0.93541698777E+02  0.40714340606E+03  0.00000000000E+00 0.  1.
        -13    1    3    3    0    0 -0.30447884080E+03  0.14305798694E+03  0.13634555907E+03  0.36299182305E+03  0.00000000000E+00 0. -1.
         22    1    1    2    0    0  0.62576580681E+03 -0.37498553847E+03  0.21404171388E+04  0.22613231806E+04  0.00000000000E+00 0.  1.
<mgrwt>
<rscale>  0 0.18898141E+04</rscale>
<asrwt>0</asrwt>
<pdfrwt beam="1">  1        1 0.50858003E-01 0.18898141E+04</pdfrwt>
<pdfrwt beam="2">  1       -1 0.41552020E+00 0.18898141E+04</pdfrwt>
<totfact> 0.40567639E-01</totfact>
</mgrwt>
</event>
<event>
 6    1  0.1773638E-005  0.1384266E+04  0.7818608E-02  0.8965287E-01
         -2   -1    0    0    0  501 -0.00000000000E+00  0.00000000000E+00  0.13459477294E+04  0.13459477294E+04  0.00000000000E+00 0.  1.
          2   -1    0    0  501    0  0.00000000000E+00 -0.00000000000E+00 -0.35591896454E+03  0.35591896454E+03  0.00000000000E+00 0. -1.
         23    2    1    2    0    0 -0.40895138869E+03  0.48313367184E+03  0.16017898463E+03  0.65816652583E+03  0.82864259065E+02 0.  0.
         11    1    3    3    0    0 -0.78279153090E+02  0.52495866429E+02  0.38109053996E+02  0.10166485035E+03  0.00000000000E+00 0. -1.
        -11    1    3    3    0    0 -0.33067223560E+03  0.43063780541E+03  0.12206993063E+03  0.55650167548E+03  0.00000000000E+00 0.  1.
         22    1    1    2    0    0  0.40895138869E+03 -0.48313367184E+03  0.82984978024E+03  0.10437001681E+04  0.00000000000E+00 0. -1.
<mgrwt>
<rscale>  0 0.13842663E+04</rscale>
<asrwt>0</asrwt>
<pdfrwt beam="1">  1        2 0.54756764E-01 0.13842663E+04</pdfrwt>
<pdfrwt beam="2">  1       -2 0.20706888E+00 0.13842663E+04</pdfrwt>
<totfact> 0.10560990E+01</totfact>
</mgrwt>
</event>
<event>
 6    1  0.1773638E-005  0.1522992E+04  0.7818608E-02  0.8869306E-01
         -2   -1    0    0    0  501 -0.00000000000E+00  0.00000000000E+00  0.36286409638E+03  0.36286409638E+03  0.00000000000E+00 0.  1.
          2   -1    0    0  501    0  0.00000000000E+00 -0.00000000000E+00 -0.15980538277E+04  0.15980538277E+04  0.00000000000E+00 0. -1.
         23    2    1    2    0    0  0.46304789195E+03  0.58934399375E+03 -0.46616109809E+03  0.88707215679E+03  0.88606708333E+02 0.  0.
         13    1    3    3    0    0  0.35005816415E+03  0.39418918590E+03 -0.35573865240E+03  0.63598413611E+03  0.00000000000E+00 0. -1.
        -13    1    3    3    0    0  0.11298972781E+03  0.19515480785E+03 -0.11042244568E+03  0.25108802068E+03  0.00000000000E+00 0.  1.
         22    1    1    2    0    0 -0.46304789195E+03 -0.58934399375E+03 -0.76902863327E+03  0.10738457673E+04  0.00000000000E+00 0. -1.
<mgrwt>
<rscale>  0 0.15229923E+04</rscale>
<asrwt>0</asrwt>
<pdfrwt beam="1">  1        2 0.24585443E+00 0.15229923E+04</pdfrwt>
<pdfrwt beam="2">  1       -2 0.55825246E-01 0.15229923E+04</pdfrwt>
<totfact> 0.32495151E+01</totfact>
</mgrwt>
</event>
<event>
 6    1  0.1773638E-005  0.2279986E+04  0.7818608E-02  0.8485854E-01
          2   -1    0    0  501    0  0.00000000000E+00  0.00000000000E+00  0.28992759985E+04  0.28992759985E+04  0.00000000000E+00 0. -1.
         -2   -1    0    0    0  501 -0.00000000000E+00 -0.00000000000E+00 -0.44824430574E+03  0.44824430574E+03  0.00000000000E+00 0.  1.
         23    2    1    2    0    0  0.55059141890E+03 -0.41686677012E+03 -0.10083461415E+03  0.70385798411E+03  0.91211993598E+02 0.  0.
         13    1    3    3    0    0  0.27156404071E+03 -0.15240913128E+03 -0.28914349496E+02  0.31274847899E+03  0.00000000000E+00 0. -1.
        -13    1    3    3    0    0  0.27902737820E+03 -0.26445763884E+03 -0.71920264657E+02  0.39110950512E+03  0.00000000000E+00 0.  1.
         22    1    1    2    0    0 -0.55059141890E+03  0.41686677012E+03  0.25518663069E+04  0.26436623202E+04  0.00000000000E+00 0. -1.
<mgrwt>
<rscale>  0 0.22799859E+04</rscale>
<asrwt>0</asrwt>
<pdfrwt beam="1">  1        2 0.44604245E+00 0.22799859E+04</pdfrwt>
<pdfrwt beam="2">  1       -2 0.68960664E-01 0.22799859E+04</pdfrwt>
<totfact> 0.35098399E+00</totfact>
</mgrwt>
</event>
<event>
 6    1  0.1773638E-005  0.3337808E+04  0.7818608E-02  0.8153341E-01
          2   -1    0    0  501    0  0.00000000000E+00  0.00000000000E+00  0.20309693959E+04  0.20309693959E+04  0.00000000000E+00 0. -1.
         -2   -1    0    0    0  501 -0.00000000000E+00 -0.00000000000E+00 -0.13713845408E+04  0.13713845408E+04  0.00000000000E+00 0.  1.
         23    2    1    2    0    0  0.72385517726E+03 -0.18346255386E+03  0.18499980130E+04  0.19971107859E+04  0.91290834512E+02 0.  0.
         11    1    3    3    0    0  0.23290490221E+03 -0.99190636830E+02  0.67345089320E+03  0.71945783856E+03  0.00000000000E+00 0.  1.
        -11    1    3    3    0    0  0.49095027506E+03 -0.84271917030E+02  0.11765471198E+04  0.12776529473E+04  0.00000000000E+00 0. -1.
         22    1    1    2    0    0 -0.72385517726E+03  0.18346255386E+03 -0.11904131580E+04  0.14052431509E+04  0.00000000000E+00 0.  1.
<mgrwt>
<rscale>  0 0.33378077E+04</rscale>
<asrwt>0</asrwt>
<pdfrwt beam="1">  1        2 0.31245683E+00 0.33378077E+04</pdfrwt>
<pdfrwt beam="2">  1       -2 0.21098224E+00 0.33378077E+04</pdfrwt>
<totfact> 0.60340666E-01</totfact>
</mgrwt>
</event>
<event>
 6    1  0.1773638E-005  0.2333303E+04  0.7818608E-02  0.8464905E-01
         -2   -1    0    0    0  501 -0.00000000000E+00  0.00000000000E+00  0.33346625094E+03  0.33346625094E+03  0.00000000000E+00 0.  1.
          2   -1    0    0  501    0  0.00000000000E+00 -0.00000000000E+00 -0.40815982505E+04  0.40815982505E+04  0.00000000000E+00 0. -1.
         23    2    1    2    0    0 -0.74347356134E+03 -0.78550817237E+03 -0.10594173700E+04  0.15169681635E+04  0.95137898441E+02 0.  0.
         11    1    3    3    0    0 -0.18552809543E+03 -0.13954185902E+03 -0.22241236618E+03  0.32149629118E+03  0.00000000000E+00 0.  1.
        -11    1    3    3    0    0 -0.55794546592E+03 -0.64596631336E+03 -0.83700500386E+03  0.11954718723E+04  0.00000000000E+00 0. -1.
         22    1    1    2    0    0  0.74347356134E+03  0.78550817237E+03 -0.26887146295E+04  0.28980963380E+04  0.00000000000E+00 0.  1.
<mgrwt>
<rscale>  0 0.23333026E+04</rscale>
<asrwt>0</asrwt>
<pdfrwt beam="1">  1        2 0.62793819E+00 0.23333026E+04</pdfrwt>
<pdfrwt beam="2">  1       -2 0.51302501E-01 0.23333026E+04</pdfrwt>
<totfact> 0.95737778E-01</totfact>
</mgrwt>
</event>
<event>
 6    1  0.1773638E-005  0.4167640E+04  0.7818608E-02  0.7971557E-01
         -1   -1    0    0    0  501 -0.00000000000E+00  0.00000000000E+00  0.49437780461E+04  0.49437780461E+04  0.00000000000E+00 0.  1.
          1   -1    0    0  501    0  0.00000000000E+00 -0.00000000000E+00 -0.87833743469E+03  0.87833743469E+03  0.00000000000E+00 0. -1.
         23    2    1    2    0    0 -0.80290672375E+03 -0.55255061089E+03  0.46051473122E+04  0.47079993704E+04  0.88909616970E+02 0.  0.
         13    1    3    3    0    0 -0.11365144593E+03 -0.10474170507E+03  0.85142497462E+03  0.86533921866E+03  0.00000000000E+00 0.  1.
        -13    1    3    3    0    0 -0.68925527782E+03 -0.44780890582E+03  0.37537223376E+04  0.38426601517E+04  0.00000000000E+00 0. -1.
         22    1    1    2    0    0  0.80290672375E+03  0.55255061089E+03 -0.53970670076E+03  0.11141161104E+04  0.00000000000E+00 0. -1.
<mgrwt>
<rscale>  0 0.41676398E+04</rscale>
<asrwt>0</asrwt>
<pdfrwt beam="1">  1        1 0.13512884E+00 0.41676398E+04</pdfrwt>
<pdfrwt beam="2">  1       -1 0.76058122E+00 0.41676398E+04</pdfrwt>
<totfact> 0.16698429E-03</totfact>
</mgrwt>
</event>
<event>
 6    1  0.1773638E-005  0.3666931E+04  0.7818608E-02  0.8075330E-01
          2   -1    0    0  501    0  0.00000000000E+00  0.00000000000E+00  0.19584772420E+04  0.19584772420E+04  0.00000000000E+00 0. -1.
         -2   -1    0    0    0  501 -0.00000000000E+00 -0.00000000000E+00 -0.17164334527E+04  0.17164334527E+04  0.00000000000E+00 0.  1.
         23    2    1    2    0    0  0.12592615225E+04  0.80188991565E+03  0.11855918426E+04  0.19088274726E+04  0.96058752790E+02 0.  0.
         13    1    3    3    0    0  0.82363341875E+03  0.55405433749E+03  0.73891449920E+03  0.12374743854E+04  0.00000000000E+00 0. -1.
        -13    1    3    3    0    0  0.43562810373E+03  0.24783557816E+03  0.44667734338E+03  0.67135308717E+03  0.00000000000E+00 0.  1.
         22    1    1    2    0    0 -0.12592615225E+04 -0.80188991565E+03 -0.94354805329E+03  0.17660832222E+04  0.00000000000E+00 0.  1.
<mgrwt>
<rscale>  0 0.36669311E+04</rscale>
<asrwt>0</asrwt>
<pdfrwt beam="1">  1        2 0.30130419E+00 0.36669311E+04</pdfrwt>
<pdfrwt beam="2">  1       -2 0.26406668E+00 0.36669311E+04</pdfrwt>
<totfact> 0.30094372E-01</totfact>
</mgrwt>
</event>
<event>
 6    1  0.1773638E-005  0.1860698E+04  0.7818608E-02  0.8674671E-01
          1   -1    0    0  501    0  0.00000000000E+00  0.00000000000E+00  0.15836245043E+04  0.15836245043E+04  0.00000000000E+00 0. -1.
         -1   -1    0    0    0  501 -0.00000000000E+00 -0.00000000000E+00 -0.54656207997E+03  0.54656207997E+03  0.00000000000E+00 0.  1.
         23    2    1    2    0    0  0.18103600979E+03 -0.28160596187E+03 -0.47130001016E+03  0.58511921087E+03  0.90359486191E+02 0.  0.
         11    1    3    3    0    0  0.16975418410E+03 -0.19150984002E+03 -0.35188655193E+03  0.43510532894E+03  0.00000000000E+00 0.  1.
        -11    1    3    3    0    0  0.11281825691E+02 -0.90096121852E+02 -0.11941345823E+03  0.15001388192E+03  0.00000000000E+00 0. -1.
         22    1    1    2    0    0 -0.18103600979E+03  0.28160596187E+03  0.15083624345E+04  0.15450673734E+04  0.00000000000E+00 0. -1.
<mgrwt>
<rscale>  0 0.18606978E+04</rscale>
<asrwt>0</asrwt>
<pdfrwt beam="1">  1        1 0.24363454E+00 0.18606978E+04</pdfrwt>
<pdfrwt beam="2">  1       -1 0.84086474E-01 0.18606978E+04</pdfrwt>
<totfact> 0.75340659E+00</totfact>
</mgrwt>
</event>
<event>
 6    1  0.1773638E-005  0.1855044E+04  0.7818608E-02  0.8677563E-01
         -2   -1    0    0    0  501 -0.00000000000E+00  0.00000000000E+00  0.52781638701E+03  0.52781638701E+03  0.00000000000E+00 0.  1.
          2   -1    0    0  501    0  0.00000000000E+00 -0.00000000000E+00 -0.16299176558E+04  0.16299176558E+04  0.00000000000E+00 0. -1.
         23    2    1    2    0    0  0.84687046841E+03 -0.33121223536E+03 -0.74814617233E+03  0.11819393178E+04  0.10181709383E+03 0.  0.
         11    1    3    3    0    0  0.76377149453E+03 -0.30622430435E+03 -0.71121111594E+03  0.10876311286E+04  0.00000000000E+00 0. -1.
        -11    1    3    3    0    0  0.83098973882E+02 -0.24987931014E+02 -0.36935056387E+02  0.94308189182E+02  0.00000000000E+00 0.  1.
         22    1    1    2    0    0 -0.84687046841E+03  0.33121223536E+03 -0.35395509647E+03  0.97579472505E+03  0.00000000000E+00 0. -1.
<mgrwt>
<rscale>  0 0.18550442E+04</rscale>
<asrwt>0</asrwt>
<pdfrwt beam="1">  1        2 0.25075656E+00 0.18550442E+04</pdfrwt>
<pdfrwt beam="2">  1       -2 0.81202522E-01 0.18550442E+04</pdfrwt>
<totfact> 0.13479734E+01</totfact>
</mgrwt>
</event>
<event>
 6    1  0.1773638E-005  0.2447859E+04  0.7818608E-02  0.8421800E-01
         -1   -1    0    0    0  501 -0.00000000000E+00  0.00000000000E+00  0.58058802230E+03  0.58058802230E+03  0.00000000000E+00 0.  1.
          1   -1    0    0  501    0  0.00000000000E+00 -0.00000000000E+00 -0.25801489269E+04  0.25801489269E+04  0.00000000000E+00 0. -1.
         23    2    1    2    0    0  0.16504242044E+02 -0.88077400490E+03 -0.20952821598E+04  0.22746230760E+04  0.87564665799E+02 0.  0.
         13    1    3    3    0    0 -0.23256182342E+02 -0.39254123173E+03 -0.85408913659E+03  0.94026470840E+03  0.00000000000E+00 0.  1.
        -13    1    3    3    0    0  0.39760424386E+02 -0.48823277317E+03 -0.12411930232E+04  0.13343583676E+04  0.00000000000E+00 0. -1.
         22    1    1    2    0    0 -0.16504242044E+02  0.88077400490E+03  0.95721255191E+02  0.88611387327E+03  0.00000000000E+00 0.  1.
<mgrwt>
<rscale>  0 0.24478591E+04</rscale>
<asrwt>0</asrwt>
<pdfrwt beam="1">  1        1 0.39694599E+00 0.24478591E+04</pdfrwt>
<pdfrwt beam="2">  1       -1 0.89321234E-01 0.24478591E+04</pdfrwt>
<totfact> 0.13055655E+00</totfact>
</mgrwt>
</event>
<event>
 6    1  0.1773638E-005  0.1030435E+04  0.7818608E-02  0.9275780E-01
          2   -1    0    0  501    0  0.00000000000E+00  0.00000000000E+00  0.19299302510E+04  0.19299302510E+04  0.00000000000E+00 0. -1.
         -2   -1    0    0    0  501 -0.00000000000E+00 -0.00000000000E+00 -0.13754328709E+03  0.13754328709E+03  0.00000000000E+00 0.  1.
         23    2    1    2    0    0 -0.39958699380E+03  0.13473812815E+03  0.32439389867E+03  0.54011380037E+03  0.93098802661E+02 0.  0.
         13    1    3    3    0    0 -0.25300838770E+03  0.13103375125E+03  0.22355675412E+03  0.36216116651E+03  0.00000000000E+00 0. -1.
        -13    1    3    3    0    0 -0.14657860611E+03  0.37043768942E+01  0.10083714455E+03  0.17795263386E+03  0.00000000000E+00 0.  1.
         22    1    1    2    0    0  0.39958699380E+03 -0.13473812815E+03  0.14679930652E+04  0.15273597377E+04  0.00000000000E+00 0. -1.
<mgrwt>
<rscale>  0 0.10304348E+04</rscale>
<asrwt>0</asrwt>
<pdfrwt beam="1">  1        2 0.29691233E+00 0.10304348E+04</pdfrwt>
<pdfrwt beam="2">  1       -2 0.21160507E-01 0.10304348E+04</pdfrwt>
<totfact> 0.14127599E+02</totfact>
</mgrwt>
</event>
<event>
 6    1  0.1773638E-005  0.2260936E+04  0.7818608E-02  0.8493485E-01
          2   -1    0    0  501    0  0.00000000000E+00  0.00000000000E+00  0.20832183562E+04  0.20832183562E+04  0.00000000000E+00 0. -1.
         -2   -1    0    0    0  501 -0.00000000000E+00 -0.00000000000E+00 -0.61345343739E+03  0.61345343739E+03  0.00000000000E+00 0.  1.
         23    2    1    2    0    0  0.15194703244E+03  0.85993085669E+03  0.15889959480E+04  0.18153177120E+04  0.88889221416E+02 0.  0.
         13    1    3    3    0    0  0.14160409348E+03  0.65874298580E+03  0.11628715951E+04  0.13439733581E+04  0.00000000000E+00 0.  1.
        -13    1    3    3    0    0  0.10342938956E+02  0.20118787088E+03  0.42612435286E+03  0.47134435382E+03  0.00000000000E+00 0. -1.
         22    1    1    2    0    0 -0.15194703244E+03 -0.85993085669E+03 -0.11923102915E+03  0.88135408166E+03  0.00000000000E+00 0.  1.
<mgrwt>
<rscale>  0 0.22609356E+04</rscale>
<asrwt>0</asrwt>
<pdfrwt beam="1">  1        2 0.32049513E+00 0.22609356E+04</pdfrwt>
<pdfrwt beam="2">  1       -2 0.94377453E-01 0.22609356E+04</pdfrwt>
<totfact> 0.51677817E+00</totfact>
</mgrwt>
</event>
<event>
 6    1  0.1773638E-005  0.2306221E+04  0.7818608E-02  0.8475472E-01
          1   -1    0    0  501    0  0.00000000000E+00  0.00000000000E+00  0.20001554736E+04  0.20001554736E+04  0.00000000000E+00 0. -1.
         -1   -1    0    0    0  501 -0.00000000000E+00 -0.00000000000E+00 -0.66478005482E+03  0.66478005482E+03  0.00000000000E+00 0.  1.
         23    2    1    2    0    0 -0.41152944334E+03  0.70383725820E+03  0.16080407443E+04  0.18052322375E+04  0.91241586640E+02 0.  0.
         13    1    3    3    0    0 -0.20586468775E+03  0.42613857564E+03  0.98430347981E+03  0.10921665146E+04  0.00000000000E+00 0.  1.
        -13    1    3    3    0    0 -0.20566475559E+03  0.27769868256E+03  0.62373726448E+03  0.71306572284E+03  0.00000000000E+00 0. -1.
         22    1    1    2    0    0  0.41152944334E+03 -0.70383725820E+03 -0.27266532549E+03  0.85970329097E+03  0.00000000000E+00 0.  1.
<mgrwt>
<rscale>  0 0.23062207E+04</rscale>
<asrwt>0</asrwt>
<pdfrwt beam="1">  1        1 0.30771622E+00 0.23062207E+04</pdfrwt>
<pdfrwt beam="2">  1       -1 0.10227386E+00 0.23062207E+04</pdfrwt>
<totfact> 0.24353495E+00</totfact>
</mgrwt>
</event>
<event>
 6    1  0.1773638E-005  0.2079388E+04  0.7818608E-02  0.8570378E-01
         -2   -1    0    0    0  501 -0.00000000000E+00  0.00000000000E+00  0.56762254182E+03  0.56762254182E+03  0.00000000000E+00 0. -1.
          2   -1    0    0  501    0  0.00000000000E+00 -0.00000000000E+00 -0.19043702178E+04  0.19043702178E+04  0.00000000000E+00 0.  1.
         23    2    1    2    0    0  0.59438678793E+03  0.82673855617E+03 -0.43161529132E+03  0.11096209573E+04  0.90413579167E+02 0.  0.
         13    1    3    3    0    0  0.13639410133E+03  0.24981365437E+03 -0.14248197608E+03  0.31829440192E+03  0.00000000000E+00 0. -1.
        -13    1    3    3    0    0  0.45799268660E+03  0.57692490180E+03 -0.28913331525E+03  0.79132655540E+03  0.00000000000E+00 0.  1.
         22    1    1    2    0    0 -0.59438678793E+03 -0.82673855617E+03 -0.90513238462E+03  0.13623718023E+04  0.00000000000E+00 0. -1.
<mgrwt>
<rscale>  0 0.20793879E+04</rscale>
<asrwt>0</asrwt>
<pdfrwt beam="1">  1        2 0.29298003E+00 0.20793879E+04</pdfrwt>
<pdfrwt beam="2">  1       -2 0.87326545E-01 0.20793879E+04</pdfrwt>
<totfact> 0.78953021E+00</totfact>
</mgrwt>
</event>
<event>
 6    1  0.1773638E-005  0.2703274E+04  0.7818608E-02  0.8333943E-01
          1   -1    0    0  501    0  0.00000000000E+00  0.00000000000E+00  0.17519399703E+04  0.17519399703E+04  0.00000000000E+00 0. -1.
         -1   -1    0    0    0  501 -0.00000000000E+00 -0.00000000000E+00 -0.10427997711E+04  0.10427997711E+04  0.00000000000E+00 0.  1.
         23    2    1    2    0    0  0.82160768535E+03 -0.42964932552E+02  0.14621924005E+04  0.16794044592E+04  0.74212852131E+02 0.  0.
         11    1    3    3    0    0  0.22019062294E+03  0.99506371485E+01  0.34201252774E+03  0.40688511246E+03  0.00000000000E+00 0. -1.
        -11    1    3    3    0    0  0.60141706242E+03 -0.52915569700E+02  0.11201798727E+04  0.12725193467E+04  0.00000000000E+00 0.  1.
         22    1    1    2    0    0 -0.82160768535E+03  0.42964932552E+02 -0.75305220122E+03  0.11153352822E+04  0.00000000000E+00 0.  1.
<mgrwt>
<rscale>  0 0.27032740E+04</rscale>
<asrwt>0</asrwt>
<pdfrwt beam="1">  1        1 0.26952923E+00 0.27032740E+04</pdfrwt>
<pdfrwt beam="2">  1       -1 0.16043073E+00 0.27032740E+04</pdfrwt>
<totfact> 0.11121878E+00</totfact>
</mgrwt>
</event>
<event>
 6    1  0.1773638E-005  0.2635336E+04  0.7818608E-02  0.8356296E-01
         -2   -1    0    0    0  501 -0.00000000000E+00  0.00000000000E+00  0.76241666680E+03  0.76241666680E+03  0.00000000000E+00 0.  1.
          2   -1    0    0  501    0  0.00000000000E+00 -0.00000000000E+00 -0.22772975046E+04  0.22772975046E+04  0.00000000000E+00 0. -1.
         23    2    1    2    0    0  0.11470132544E+04 -0.35033174244E+03 -0.13367740125E+03  0.12104808159E+04  0.94986433384E+02 0.  0.
         13    1    3    3    0    0  0.46223212363E+03 -0.13315848084E+03 -0.99897506818E+02  0.49129342455E+03  0.00000000000E+00 0. -1.
        -13    1    3    3    0    0  0.68478113080E+03 -0.21717326160E+03 -0.33779894432E+02  0.71918739138E+03  0.00000000000E+00 0.  1.
         22    1    1    2    0    0 -0.11470132544E+04  0.35033174244E+03 -0.13812034365E+04  0.18292333555E+04  0.00000000000E+00 0. -1.
<mgrwt>
<rscale>  0 0.26353365E+04</rscale>
<asrwt>0</asrwt>
<pdfrwt beam="1">  1        2 0.35035346E+00 0.26353365E+04</pdfrwt>
<pdfrwt beam="2">  1       -2 0.11729487E+00 0.26353365E+04</pdfrwt>
<totfact> 0.23136856E+00</totfact>
</mgrwt>
</event>
<event>
 6    1  0.1773638E-005  0.2520642E+04  0.7818608E-02  0.8395668E-01
          2   -1    0    0  501    0  0.00000000000E+00  0.00000000000E+00  0.79282651541E+03  0.79282651541E+03  0.00000000000E+00 0. -1.
         -2   -1    0    0    0  501 -0.00000000000E+00 -0.00000000000E+00 -0.20034768688E+04  0.20034768688E+04  0.00000000000E+00 0.  1.
         23    2    1    2    0    0  0.57479029060E+02 -0.10715638523E+04 -0.13358661830E+04  0.17159182990E+04  0.91017699851E+02 0.  0.
         11    1    3    3    0    0 -0.28174037636E+01 -0.16399756637E+03 -0.15805843445E+03  0.22778412640E+03  0.00000000000E+00 0. -1.
        -11    1    3    3    0    0  0.60296432824E+02 -0.90756628591E+03 -0.11778077486E+04  0.14881341726E+04  0.00000000000E+00 0.  1.
         22    1    1    2    0    0 -0.57479029060E+02  0.10715638523E+04  0.12521582963E+03  0.10803850852E+04  0.00000000000E+00 0. -1.
<mgrwt>
<rscale>  0 0.25206424E+04</rscale>
<asrwt>0</asrwt>
<pdfrwt beam="1">  1        2 0.12197331E+00 0.25206424E+04</pdfrwt>
<pdfrwt beam="2">  1       -2 0.30822721E+00 0.25206424E+04</pdfrwt>
<totfact> 0.87849970E-01</totfact>
</mgrwt>
</event>
<event>
 6    1  0.1773638E-005  0.5827372E+04  0.7818608E-02  0.7712182E-01
          2   -1    0    0  501    0  0.00000000000E+00  0.00000000000E+00  0.36222809181E+04  0.36222809181E+04  0.00000000000E+00 0.  1.
         -2   -1    0    0    0  501 -0.00000000000E+00 -0.00000000000E+00 -0.23437073003E+04  0.23437073003E+04  0.00000000000E+00 0. -1.
         23    2    1    2    0    0 -0.17662232627E+04  0.22608040916E+04  0.12283159510E+03  0.28730091726E+04  0.91183063494E+02 0.  0.
         11    1    3    3    0    0 -0.65588510728E+03  0.76891798075E+03  0.45668713444E+02  0.10116846181E+04  0.00000000000E+00 0.  1.
        -11    1    3    3    0    0 -0.11103381554E+04  0.14918861109E+04  0.77162881656E+02  0.18613245546E+04  0.00000000000E+00 0. -1.
         22    1    1    2    0    0  0.17662232627E+04 -0.22608040916E+04  0.11557420227E+04  0.30929790457E+04  0.00000000000E+00 0.  1.
<mgrwt>
<rscale>  0 0.58273720E+04</rscale>
<asrwt>0</asrwt>
<pdfrwt beam="1">  1        2 0.55727399E+00 0.58273720E+04</pdfrwt>
<pdfrwt beam="2">  1       -2 0.36057035E+00 0.58273720E+04</pdfrwt>
<totfact> 0.60370948E-03</totfact>
</mgrwt>
</event>
<event>
 6    1  0.1773638E-005  0.1479438E+04  0.7818608E-02  0.8898243E-01
          2   -1    0    0  501    0  0.00000000000E+00  0.00000000000E+00  0.78104797715E+03  0.78104797715E+03  0.00000000000E+00 0.  1.
         -2   -1    0    0    0  501 -0.00000000000E+00 -0.00000000000E+00 -0.70057686566E+03  0.70057686566E+03  0.00000000000E+00 0. -1.
         23    2    1    2    0    0  0.45355053771E+03  0.57458553364E+03 -0.49991298130E+02  0.73806780663E+03  0.79927039017E+02 0.  0.
         11    1    3    3    0    0  0.28568619294E+03  0.31786573717E+03 -0.57424772747E+00  0.42738221473E+03  0.00000000000E+00 0.  1.
        -11    1    3    3    0    0  0.16786434477E+03  0.25671979648E+03 -0.49417050402E+02  0.31068559190E+03  0.00000000000E+00 0. -1.
         22    1    1    2    0    0 -0.45355053771E+03 -0.57458553364E+03  0.13046240962E+03  0.74355703618E+03  0.00000000000E+00 0. -1.
<mgrwt>
<rscale>  0 0.14794379E+04</rscale>
<asrwt>0</asrwt>
<pdfrwt beam="1">  1        2 0.12016123E+00 0.14794379E+04</pdfrwt>
<pdfrwt beam="2">  1       -2 0.10778106E+00 0.14794379E+04</pdfrwt>
<totfact> 0.23753404E+01</totfact>
</mgrwt>
</event>
<event>
 6    1  0.1773638E-005  0.2684796E+04  0.7818608E-02  0.8339955E-01
          1   -1    0    0  501    0  0.00000000000E+00  0.00000000000E+00  0.12640199929E+04  0.12640199929E+04  0.00000000000E+00 0. -1.
         -1   -1    0    0    0  501 -0.00000000000E+00 -0.00000000000E+00 -0.14256356223E+04  0.14256356223E+04  0.00000000000E+00 0.  1.
         23    2    1    2    0    0 -0.12959690318E+04 -0.27164902055E+03  0.13138303478E+03  0.13334929631E+04  0.87252844938E+02 0.  0.
         13    1    3    3    0    0 -0.50568968564E+03 -0.64959793907E+02  0.64265324314E+02  0.51387923182E+03  0.00000000000E+00 0. -1.
        -13    1    3    3    0    0 -0.79027934619E+03 -0.20668922664E+03  0.67117710468E+02  0.81961373127E+03  0.00000000000E+00 0.  1.
         22    1    1    2    0    0  0.12959690318E+04  0.27164902055E+03 -0.29299866422E+03  0.13561626521E+04  0.00000000000E+00 0.  1.
<mgrwt>
<rscale>  0 0.26847957E+04</rscale>
<asrwt>0</asrwt>
<pdfrwt beam="1">  1        1 0.19446462E+00 0.26847957E+04</pdfrwt>
<pdfrwt beam="2">  1       -1 0.21932856E+00 0.26847957E+04</pdfrwt>
<totfact> 0.93334645E-01</totfact>
</mgrwt>
</event>
<event>
 6    1  0.1773638E-005  0.1700700E+04  0.7818608E-02  0.8760965E-01
         -2   -1    0    0    0  501 -0.00000000000E+00  0.00000000000E+00  0.30367651788E+03  0.30367651788E+03  0.00000000000E+00 0.  1.
          2   -1    0    0  501    0  0.00000000000E+00 -0.00000000000E+00 -0.23811349284E+04  0.23811349284E+04  0.00000000000E+00 0. -1.
         23    2    1    2    0    0  0.31865065107E+03  0.78452306655E+03 -0.97108898983E+03  0.12915892908E+04  0.90412336973E+02 0.  0.
         11    1    3    3    0    0  0.65071212173E+02  0.13513176315E+03 -0.22573559355E+03  0.27101921382E+03  0.00000000000E+00 0. -1.
        -11    1    3    3    0    0  0.25357943890E+03  0.64939130341E+03 -0.74535339628E+03  0.10205700770E+04  0.00000000000E+00 0.  1.
         22    1    1    2    0    0 -0.31865065107E+03 -0.78452306655E+03 -0.11063694207E+04  0.13932221555E+04  0.00000000000E+00 0. -1.
<mgrwt>
<rscale>  0 0.17006996E+04</rscale>
<asrwt>0</asrwt>
<pdfrwt beam="1">  1        2 0.36632846E+00 0.17006996E+04</pdfrwt>
<pdfrwt beam="2">  1       -2 0.46719463E-01 0.17006996E+04</pdfrwt>
<totfact> 0.16861661E+01</totfact>
</mgrwt>
</event>
<event>
 6    1  0.1773638E-005  0.2211176E+04  0.7818608E-02  0.8513791E-01
         -2   -1    0    0    0  501 -0.00000000000E+00  0.00000000000E+00  0.99421730493E+03  0.99421730493E+03  0.00000000000E+00 0.  1.
          2   -1    0    0  501    0  0.00000000000E+00 -0.00000000000E+00 -0.12294341693E+04  0.12294341693E+04  0.00000000000E+00 0. -1.
         23    2    1    2    0    0 -0.10729720143E+04 -0.98844296735E+02 -0.35828129908E+03  0.11391313068E+04  0.90639430589E+02 0.  0.
         13    1    3    3    0    0 -0.70176045876E+03 -0.99332810802E+02 -0.26205261839E+03  0.75564960371E+03  0.00000000000E+00 0. -1.
        -13    1    3    3    0    0 -0.37121155554E+03  0.48851406761E+00 -0.96228680688E+02  0.38348170309E+03  0.00000000000E+00 0.  1.
         22    1    1    2    0    0  0.10729720143E+04  0.98844296735E+02  0.12306443471E+03  0.10845201674E+04  0.00000000000E+00 0. -1.
<mgrwt>
<rscale>  0 0.22111759E+04</rscale>
<asrwt>0</asrwt>
<pdfrwt beam="1">  1        2 0.18914372E+00 0.22111759E+04</pdfrwt>
<pdfrwt beam="2">  1       -2 0.15295651E+00 0.22111759E+04</pdfrwt>
<totfact> 0.47256724E+00</totfact>
</mgrwt>
</event>
<event>
 6    1  0.1773638E-005  0.4146475E+04  0.7818608E-02  0.7975633E-01
          1   -1    0    0  501    0  0.00000000000E+00  0.00000000000E+00  0.19263739423E+04  0.19263739423E+04  0.00000000000E+00 0. -1.
         -1   -1    0    0    0  501 -0.00000000000E+00 -0.00000000000E+00 -0.22312977326E+04  0.22312977326E+04  0.00000000000E+00 0.  1.
         23    2    1    2    0    0  0.18237379614E+04  0.88232104862E+03 -0.58912604864E+03  0.21118756176E+04  0.91861517753E+02 0.  0.
         11    1    3    3    0    0  0.16022453909E+04  0.74285701118E+03 -0.52350155621E+03  0.18420316803E+04  0.00000000000E+00 0. -1.
        -11    1    3    3    0    0  0.22149257044E+03  0.13946403744E+03 -0.65624492436E+02  0.26984393732E+03  0.00000000000E+00 0.  1.
         22    1    1    2    0    0 -0.18237379614E+04 -0.88232104862E+03  0.28420225831E+03  0.20457960574E+04  0.00000000000E+00 0.  1.
<mgrwt>
<rscale>  0 0.41464750E+04</rscale>
<asrwt>0</asrwt>
<pdfrwt beam="1">  1        1 0.29636522E+00 0.41464750E+04</pdfrwt>
<pdfrwt beam="2">  1       -1 0.34327657E+00 0.41464750E+04</pdfrwt>
<totfact> 0.44500204E-02</totfact>
</mgrwt>
</event>
<event>
 6    1  0.1773638E-005  0.2663831E+04  0.7818608E-02  0.8346837E-01
          2   -1    0    0  501    0  0.00000000000E+00  0.00000000000E+00  0.13089488226E+04  0.13089488226E+04  0.00000000000E+00 0. -1.
         -2   -1    0    0    0  501 -0.00000000000E+00 -0.00000000000E+00 -0.13552848012E+04  0.13552848012E+04  0.00000000000E+00 0.  1.
         23    2    1    2    0    0  0.12999222343E+04 -0.14670992605E+03 -0.26545857829E+03  0.13378338608E+04  0.89496170974E+02 0.  0.
         13    1    3    3    0    0  0.10725690654E+04 -0.15448389733E+03 -0.21284085784E+03  0.11043418426E+04  0.00000000000E+00 0. -1.
        -13    1    3    3    0    0  0.22735316891E+03  0.77739712816E+01 -0.52617720442E+02  0.23349201816E+03  0.00000000000E+00 0.  1.
         22    1    1    2    0    0 -0.12999222343E+04  0.14670992605E+03  0.21912259973E+03  0.13263997630E+04  0.00000000000E+00 0. -1.
<mgrwt>
<rscale>  0 0.26638307E+04</rscale>
<asrwt>0</asrwt>
<pdfrwt beam="1">  1        2 0.20137674E+00 0.26638307E+04</pdfrwt>
<pdfrwt beam="2">  1       -2 0.20850535E+00 0.26638307E+04</pdfrwt>
<totfact> 0.16827390E+00</totfact>
</mgrwt>
</event>
<event>
 6    1  0.1773638E-005  0.2095944E+04  0.7818608E-02  0.8563032E-01
         -2   -1    0    0    0  501 -0.00000000000E+00  0.00000000000E+00  0.83908619502E+03  0.83908619502E+03  0.00000000000E+00 0.  1.
          2   -1    0    0  501    0  0.00000000000E+00 -0.00000000000E+00 -0.13088587689E+04  0.13088587689E+04  0.00000000000E+00 0. -1.
         23    2    1    2    0    0 -0.80767080703E+03 -0.73564423956E+02 -0.91227285996E+03  0.12240670715E+04  0.91403322902E+02 0.  0.
         13    1    3    3    0    0 -0.43457970924E+03 -0.82735419311E+02 -0.51735209518E+03  0.68070394716E+03  0.00000000000E+00 0. -1.
        -13    1    3    3    0    0 -0.37309109779E+03  0.91709953546E+01 -0.39492076478E+03  0.54336312431E+03  0.00000000000E+00 0.  1.
         22    1    1    2    0    0  0.80767080703E+03  0.73564423956E+02  0.44250028607E+03  0.92387789246E+03  0.00000000000E+00 0.  1.
<mgrwt>
<rscale>  0 0.20959440E+04</rscale>
<asrwt>0</asrwt>
<pdfrwt beam="1">  1        2 0.20136289E+00 0.20959440E+04</pdfrwt>
<pdfrwt beam="2">  1       -2 0.12909019E+00 0.20959440E+04</pdfrwt>
<totfact> 0.66587872E+00</totfact>
</mgrwt>
</event>
<event>
 6    1  0.1773638E-005  0.1524046E+04  0.7818608E-02  0.8868618E-01
         -1   -1    0    0    0  501 -0.00000000000E+00  0.00000000000E+00  0.10485689036E+04  0.10485689036E+04  0.00000000000E+00 0.  1.
          1   -1    0    0  501    0  0.00000000000E+00 -0.00000000000E+00 -0.55378269417E+03  0.55378269417E+03  0.00000000000E+00 0. -1.
         23    2    1    2    0    0 -0.60070877058E+03  0.39844004003E+03  0.49916492543E+03  0.88150163720E+03  0.90961646019E+02 0.  0.
         13    1    3    3    0    0 -0.14414147266E+03  0.76291506425E+02  0.72607219169E+02  0.17851881236E+03  0.00000000000E+00 0. -1.
        -13    1    3    3    0    0 -0.45656729793E+03  0.32214853361E+03  0.42655770626E+03  0.70298282483E+03  0.00000000000E+00 0.  1.
         22    1    1    2    0    0  0.60070877058E+03 -0.39844004003E+03 -0.43787159514E+01  0.72084996061E+03  0.00000000000E+00 0. -1.
<mgrwt>
<rscale>  0 0.15240463E+04</rscale>
<asrwt>0</asrwt>
<pdfrwt beam="1">  1        1 0.85197338E-01 0.15240463E+04</pdfrwt>
<pdfrwt beam="2">  1       -1 0.16131829E+00 0.15240463E+04</pdfrwt>
<totfact> 0.10592603E+01</totfact>
</mgrwt>
</event>
<event>
 6    1  0.1773638E-005  0.4721236E+04  0.7818608E-02  0.7873010E-01
         -2   -1    0    0    0  501 -0.00000000000E+00  0.00000000000E+00  0.12384336105E+04  0.12384336105E+04  0.00000000000E+00 0.  1.
          2   -1    0    0  501    0  0.00000000000E+00 -0.00000000000E+00 -0.44996490734E+04  0.44996490734E+04  0.00000000000E+00 0. -1.
         23    2    1    2    0    0 -0.97612638533E+03  0.21380075503E+04 -0.13757282163E+04  0.27249512294E+04  0.93979105179E+02 0.  0.
         13    1    3    3    0    0 -0.18375167679E+03  0.37401828319E+03 -0.28381515809E+03  0.50418786067E+03  0.00000000000E+00 0. -1.
        -13    1    3    3    0    0 -0.79237470853E+03  0.17639892671E+04 -0.10919130582E+04  0.22207633687E+04  0.00000000000E+00 0.  1.
         22    1    1    2    0    0  0.97612638533E+03 -0.21380075503E+04 -0.18854872466E+04  0.30131314546E+04  0.00000000000E+00 0.  1.
<mgrwt>
<rscale>  0 0.47212357E+04</rscale>
<asrwt>0</asrwt>
<pdfrwt beam="1">  1        2 0.69225370E+00 0.47212357E+04</pdfrwt>
<pdfrwt beam="2">  1       -2 0.19052825E+00 0.47212357E+04</pdfrwt>
<totfact> 0.13965715E-02</totfact>
</mgrwt>
</event>
<event>
 6    1  0.1773638E-005  0.2248573E+04  0.7818608E-02  0.8498479E-01
         -1   -1    0    0    0  501 -0.00000000000E+00  0.00000000000E+00  0.50980269962E+03  0.50980269962E+03  0.00000000000E+00 0.  1.
          1   -1    0    0  501    0  0.00000000000E+00 -0.00000000000E+00 -0.24794298415E+04  0.24794298415E+04  0.00000000000E+00 0. -1.
         23    2    1    2    0    0  0.97326606544E+03  0.29342931065E+03 -0.16193274862E+04  0.19140314236E+04  0.89147003994E+02 0.  0.
         13    1    3    3    0    0  0.27443792967E+03  0.10735265184E+03 -0.53218658988E+03  0.60832831230E+03  0.00000000000E+00 0. -1.
        -13    1    3    3    0    0  0.69882813577E+03  0.18607665882E+03 -0.10871408963E+04  0.13057031113E+04  0.00000000000E+00 0.  1.
         22    1    1    2    0    0 -0.97326606544E+03 -0.29342931065E+03 -0.35029965571E+03  0.10752011176E+04  0.00000000000E+00 0. -1.
<mgrwt>
<rscale>  0 0.22485729E+04</rscale>
<asrwt>0</asrwt>
<pdfrwt beam="1">  1        1 0.38145075E+00 0.22485729E+04</pdfrwt>
<pdfrwt beam="2">  1       -1 0.78431183E-01 0.22485729E+04</pdfrwt>
<totfact> 0.20678932E+00</totfact>
</mgrwt>
</event>
<event>
 6    1  0.1773638E-005  0.2431895E+04  0.7818608E-02  0.8427658E-01
         -1   -1    0    0    0  501 -0.00000000000E+00  0.00000000000E+00  0.63727576504E+03  0.63727576504E+03  0.00000000000E+00 0.  1.
          1   -1    0    0  501    0  0.00000000000E+00 -0.00000000000E+00 -0.23200766075E+04  0.23200766075E+04  0.00000000000E+00 0. -1.
         23    2    1    2    0    0 -0.67173025139E+03 -0.13589921627E+03  0.37610343973E+03  0.78738072047E+03  0.93938671307E+02 0.  0.
         11    1    3    3    0    0 -0.22980624946E+02 -0.37110657636E+00  0.35332274599E+02  0.42149928485E+02  0.00000000000E+00 0.  1.
        -11    1    3    3    0    0 -0.64874962645E+03 -0.13552810969E+03  0.34077116513E+03  0.74523079198E+03  0.00000000000E+00 0. -1.
         22    1    1    2    0    0  0.67173025139E+03  0.13589921627E+03 -0.20589042822E+04  0.21699716521E+04  0.00000000000E+00 0. -1.
<mgrwt>
<rscale>  0 0.24318952E+04</rscale>
<asrwt>0</asrwt>
<pdfrwt beam="1">  1        1 0.35693485E+00 0.24318952E+04</pdfrwt>
<pdfrwt beam="2">  1       -1 0.98042429E-01 0.24318952E+04</pdfrwt>
<totfact> 0.16062041E+00</totfact>
</mgrwt>
</event>
<event>
 6    1  0.1773638E-005  0.1200801E+04  0.7818608E-02  0.9112156E-01
         -2   -1    0    0    0  501 -0.00000000000E+00  0.00000000000E+00  0.23060348261E+03  0.23060348261E+03  0.00000000000E+00 0.  1.
          2   -1    0    0  501    0  0.00000000000E+00 -0.00000000000E+00 -0.15632056885E+04  0.15632056885E+04  0.00000000000E+00 0. -1.
         23    2    1    2    0    0  0.56112357731E+03 -0.11487575987E+03 -0.92269349780E+03  0.10894788096E+04  0.86860096525E+02 0.  0.
         13    1    3    3    0    0  0.29721450071E+03 -0.17489084290E+02 -0.49127532145E+03  0.57445084121E+03  0.00000000000E+00 0. -1.
        -13    1    3    3    0    0  0.26390907660E+03 -0.97386675576E+02 -0.43141817635E+03  0.51502796834E+03  0.00000000000E+00 0.  1.
         22    1    1    2    0    0 -0.56112357731E+03  0.11487575987E+03 -0.40990870805E+03  0.70433036152E+03  0.00000000000E+00 0.  1.
<mgrwt>
<rscale>  0 0.12008009E+04</rscale>
<asrwt>0</asrwt>
<pdfrwt beam="1">  1        2 0.24049319E+00 0.12008009E+04</pdfrwt>
<pdfrwt beam="2">  1       -2 0.35477459E-01 0.12008009E+04</pdfrwt>
<totfact> 0.86088176E+01</totfact>
</mgrwt>
</event>
<event>
 6    1  0.1773638E-005  0.1190948E+04  0.7818608E-02  0.9120817E-01
          2   -1    0    0  501    0  0.00000000000E+00  0.00000000000E+00  0.22135697193E+04  0.22135697193E+04  0.00000000000E+00 0. -1.
         -2   -1    0    0    0  501 -0.00000000000E+00 -0.00000000000E+00 -0.16018886771E+03  0.16018886771E+03  0.00000000000E+00 0.  1.
         23    2    1    2    0    0  0.57550057218E+03  0.12651994575E+03  0.90713538541E+03  0.10849269944E+04  0.83449209362E+02 0.  0.
         11    1    3    3    0    0  0.21981913256E+03  0.65342146183E+02  0.42181694721E+03  0.48012455057E+03  0.00000000000E+00 0. -1.
        -11    1    3    3    0    0  0.35568143962E+03  0.61177799571E+02  0.48531843820E+03  0.60480244387E+03  0.00000000000E+00 0.  1.
         22    1    1    2    0    0 -0.57550057218E+03 -0.12651994575E+03  0.11462454662E+04  0.12888315925E+04  0.00000000000E+00 0. -1.
<mgrwt>
<rscale>  0 0.11909479E+04</rscale>
<asrwt>0</asrwt>
<pdfrwt beam="1">  1        2 0.34054917E+00 0.11909479E+04</pdfrwt>
<pdfrwt beam="2">  1       -2 0.24644443E-01 0.11909479E+04</pdfrwt>
<totfact> 0.73995375E+01</totfact>
</mgrwt>
</event>
<event>
 6    1  0.1773638E-005  0.3076174E+03  0.7818608E-02  0.1081494E+00
         -1   -1    0    0    0  501 -0.00000000000E+00  0.00000000000E+00  0.87973091558E+02  0.87973091558E+02  0.00000000000E+00 0.  1.
          1   -1    0    0  501    0  0.00000000000E+00 -0.00000000000E+00 -0.26891312053E+03  0.26891312053E+03  0.00000000000E+00 0. -1.
         23    2    1    2    0    0 -0.13091581899E+03  0.48671702765E+02 -0.12021033136E+03  0.20458393869E+03  0.88860440536E+02 0.  0.
         13    1    3    3    0    0 -0.52274162140E+02  0.78297220941E+01 -0.10087477377E+03  0.11388420680E+03  0.00000000000E+00 0. -1.
        -13    1    3    3    0    0 -0.78641656848E+02  0.40841980671E+02 -0.19335557586E+02  0.90699731885E+02  0.00000000000E+00 0.  1.
         22    1    1    2    0    0  0.13091581899E+03 -0.48671702765E+02 -0.60729697618E+02  0.15230227340E+03  0.00000000000E+00 0.  1.
<mgrwt>
<rscale>  0 0.30761742E+03</rscale>
<asrwt>0</asrwt>
<pdfrwt beam="1">  1        1 0.41371250E-01 0.30761742E+03</pdfrwt>
<pdfrwt beam="2">  1       -1 0.13534322E-01 0.30761742E+03</pdfrwt>
<totfact> 0.38076981E+03</totfact>
</mgrwt>
</event>
<event>
 6    1  0.1773638E-005  0.3932421E+04  0.7818608E-02  0.8018320E-01
         -2   -1    0    0    0  501 -0.00000000000E+00  0.00000000000E+00  0.34752209352E+04  0.34752209352E+04  0.00000000000E+00 0.  1.
          2   -1    0    0  501    0  0.00000000000E+00 -0.00000000000E+00 -0.11124423001E+04  0.11124423001E+04  0.00000000000E+00 0. -1.
         23    2    1    2    0    0  0.12497547376E+03 -0.17173031647E+04  0.22868969493E+04  0.28641473350E+04  0.93237714995E+02 0.  0.
         13    1    3    3    0    0  0.68845197066E+02 -0.63125611590E+03  0.90808224490E+03  0.11080782051E+04  0.00000000000E+00 0. -1.
        -13    1    3    3    0    0  0.56130276690E+02 -0.10860470488E+04  0.13788147044E+04  0.17560691300E+04  0.00000000000E+00 0.  1.
         22    1    1    2    0    0 -0.12497547376E+03  0.17173031647E+04  0.75881685797E+02  0.17235159003E+04  0.00000000000E+00 0. -1.
<mgrwt>
<rscale>  0 0.39324205E+04</rscale>
<asrwt>0</asrwt>
<pdfrwt beam="1">  1        2 0.17114497E+00 0.39324205E+04</pdfrwt>
<pdfrwt beam="2">  1       -2 0.53464937E+00 0.39324205E+04</pdfrwt>
<totfact> 0.17517378E-02</totfact>
</mgrwt>
</event>
<event>
 6    1  0.1773638E-005  0.1485011E+04  0.7818608E-02  0.8894482E-01
         -1   -1    0    0    0  501 -0.00000000000E+00  0.00000000000E+00  0.78208279211E+03  0.78208279211E+03  0.00000000000E+00 0.  1.
          1   -1    0    0  501    0  0.00000000000E+00 -0.00000000000E+00 -0.70493075086E+03  0.70493075086E+03  0.00000000000E+00 0. -1.
         23    2    1    2    0    0  0.49095405144E+03  0.75972647992E+02 -0.51008470497E+03  0.71782259139E+03  0.90967810829E+02 0.  0.
         13    1    3    3    0    0  0.26446531511E+03  0.86393358685E+02 -0.27358254524E+03  0.39019626393E+03  0.00000000000E+00 0. -1.
        -13    1    3    3    0    0  0.22648873634E+03 -0.10420710693E+02 -0.23650215972E+03  0.32762632747E+03  0.00000000000E+00 0.  1.
         22    1    1    2    0    0 -0.49095405144E+03 -0.75972647992E+02  0.58723674622E+03  0.76919095157E+03  0.00000000000E+00 0.  1.
<mgrwt>
<rscale>  0 0.14850107E+04</rscale>
<asrwt>0</asrwt>
<pdfrwt beam="1">  1        1 0.10845089E+00 0.14850107E+04</pdfrwt>
<pdfrwt beam="2">  1       -1 0.12032043E+00 0.14850107E+04</pdfrwt>
<totfact> 0.16061047E+01</totfact>
</mgrwt>
</event>
<event>
 6    1  0.1773638E-005  0.1899442E+04  0.7818608E-02  0.8655134E-01
         -2   -1    0    0    0  501 -0.00000000000E+00  0.00000000000E+00  0.63741408015E+03  0.63741408015E+03  0.00000000000E+00 0.  1.
          2   -1    0    0  501    0  0.00000000000E+00 -0.00000000000E+00 -0.14150452716E+04  0.14150452716E+04  0.00000000000E+00 0. -1.
         23    2    1    2    0    0  0.19004619361E+03  0.90420781917E+03 -0.16372427377E+03  0.94313927189E+03  0.94851001108E+02 0.  0.
         13    1    3    3    0    0  0.10010958947E+03  0.52215583673E+03 -0.47426746211E+02  0.53377705458E+03  0.00000000000E+00 0. -1.
        -13    1    3    3    0    0  0.89936604145E+02  0.38205198243E+03 -0.11629752756E+03  0.40936221731E+03  0.00000000000E+00 0.  1.
         22    1    1    2    0    0 -0.19004619361E+03 -0.90420781917E+03 -0.61390691764E+03  0.11093200798E+04  0.00000000000E+00 0.  1.
<mgrwt>
<rscale>  0 0.18994418E+04</rscale>
<asrwt>0</asrwt>
<pdfrwt beam="1">  1        2 0.21769927E+00 0.18994418E+04</pdfrwt>
<pdfrwt beam="2">  1       -2 0.98063706E-01 0.18994418E+04</pdfrwt>
<totfact> 0.11495774E+01</totfact>
</mgrwt>
</event>
<event>
 6    1  0.1773638E-005  0.3385210E+04  0.7818608E-02  0.8141546E-01
         -2   -1    0    0    0  501 -0.00000000000E+00  0.00000000000E+00  0.89510965725E+03  0.89510965725E+03  0.00000000000E+00 0.  1.
          2   -1    0    0  501    0  0.00000000000E+00 -0.00000000000E+00 -0.32006272313E+04  0.32006272313E+04  0.00000000000E+00 0. -1.
         23    2    1    2    0    0  0.14908434241E+04 -0.37758970490E+03 -0.30182206792E+03  0.15698739109E+04  0.90661100794E+02 0.  0.
         11    1    3    3    0    0  0.76737645115E+03 -0.14817519475E+03 -0.16035432006E+03  0.79783207135E+03  0.00000000000E+00 0.  1.
        -11    1    3    3    0    0  0.72346697292E+03 -0.22941451014E+03 -0.14146774786E+03  0.77204183958E+03  0.00000000000E+00 0. -1.
         22    1    1    2    0    0 -0.14908434241E+04  0.37758970490E+03 -0.20036955061E+04  0.25258629776E+04  0.00000000000E+00 0. -1.
<mgrwt>
<rscale>  0 0.33852104E+04</rscale>
<asrwt>0</asrwt>
<pdfrwt beam="1">  1        2 0.49240418E+00 0.33852104E+04</pdfrwt>
<pdfrwt beam="2">  1       -2 0.13770918E+00 0.33852104E+04</pdfrwt>
<totfact> 0.40241290E-01</totfact>
</mgrwt>
</event>
<event>
 6    1  0.1773638E-005  0.1957813E+04  0.7818608E-02  0.8626602E-01
         -3   -1    0    0    0  501 -0.00000000000E+00  0.00000000000E+00  0.90501838491E+03  0.90501838491E+03  0.00000000000E+00 0.  1.
          3   -1    0    0  501    0  0.00000000000E+00 -0.00000000000E+00 -0.10588269628E+04  0.10588269628E+04  0.00000000000E+00 0. -1.
         23    2    1    2    0    0 -0.54761041472E+03 -0.27609342417E+03  0.68559340493E+03  0.92427792134E+03  0.90258594131E+02 0.  0.
         13    1    3    3    0    0 -0.13697096199E+03 -0.10731165065E+03  0.16137362726E+03  0.23731473273E+03  0.00000000000E+00 0.  1.
        -13    1    3    3    0    0 -0.41063945273E+03 -0.16878177352E+03  0.52421977767E+03  0.68696318862E+03  0.00000000000E+00 0. -1.
         22    1    1    2    0    0  0.54761041472E+03  0.27609342417E+03 -0.83940198279E+03  0.10395674263E+04  0.00000000000E+00 0. -1.
<mgrwt>
<rscale>  0 0.19578129E+04</rscale>
<asrwt>0</asrwt>
<pdfrwt beam="1">  1        3 0.16289646E+00 0.19578129E+04</pdfrwt>
<pdfrwt beam="2">  1       -3 0.13923360E+00 0.19578129E+04</pdfrwt>
<totfact> 0.24787696E-01</totfact>
</mgrwt>
</event>
<event>
 6    1  0.1773638E-005  0.2108963E+04  0.7818608E-02  0.8557305E-01
          2   -1    0    0  501    0  0.00000000000E+00  0.00000000000E+00  0.15901475135E+04  0.15901475135E+04  0.00000000000E+00 0. -1.
         -2   -1    0    0    0  501 -0.00000000000E+00 -0.00000000000E+00 -0.69926274943E+03  0.69926274943E+03  0.00000000000E+00 0.  1.
         23    2    1    2    0    0  0.14946285355E+03  0.70934620145E+03  0.12745481774E+04  0.14692219962E+04  0.92892623326E+02 0.  0.
         11    1    3    3    0    0  0.44195644363E+02  0.32725935955E+03  0.65919345270E+03  0.73728417281E+03  0.00000000000E+00 0.  1.
        -11    1    3    3    0    0  0.10526720919E+03  0.38208684190E+03  0.61535472474E+03  0.73193782342E+03  0.00000000000E+00 0. -1.
         22    1    1    2    0    0 -0.14946285355E+03 -0.70934620145E+03 -0.38366341336E+03  0.82018826671E+03  0.00000000000E+00 0.  1.
<mgrwt>
<rscale>  0 0.21089627E+04</rscale>
<asrwt>0</asrwt>
<pdfrwt beam="1">  1        2 0.24463808E+00 0.21089627E+04</pdfrwt>
<pdfrwt beam="2">  1       -2 0.10757889E+00 0.21089627E+04</pdfrwt>
<totfact> 0.72123205E+00</totfact>
</mgrwt>
</event>
<event>
 6    1  0.1773638E-005  0.9368371E+03  0.7818608E-02  0.9380670E-01
          1   -1    0    0  501    0  0.00000000000E+00  0.00000000000E+00  0.58218984708E+03  0.58218984708E+03  0.00000000000E+00 0. -1.
         -1   -1    0    0    0  501 -0.00000000000E+00 -0.00000000000E+00 -0.37688037438E+03  0.37688037438E+03  0.00000000000E+00 0.  1.
         23    2    1    2    0    0  0.28914532397E+03  0.36164190417E+03  0.13190269675E+03  0.49026488875E+03  0.92582150026E+02 0.  0.
         11    1    3    3    0    0  0.13032351369E+03  0.15922407506E+03  0.11179950361E+02  0.20606192174E+03  0.00000000000E+00 0. -1.
        -11    1    3    3    0    0  0.15882181027E+03  0.20241782911E+03  0.12072274639E+03  0.28420296701E+03  0.00000000000E+00 0.  1.
         22    1    1    2    0    0 -0.28914532397E+03 -0.36164190417E+03  0.73406775941E+02  0.46880533271E+03  0.00000000000E+00 0. -1.
<mgrwt>
<rscale>  0 0.93683708E+03</rscale>
<asrwt>0</asrwt>
<pdfrwt beam="1">  1        1 0.89567669E-01 0.93683708E+03</pdfrwt>
<pdfrwt beam="2">  1       -1 0.57981596E-01 0.93683708E+03</pdfrwt>
<totfact> 0.10845420E+02</totfact>
</mgrwt>
</event>
<event>
 6    1  0.1773638E-005  0.2879602E+04  0.7818608E-02  0.8278973E-01
          1   -1    0    0  501    0  0.00000000000E+00  0.00000000000E+00  0.20285669292E+04  0.20285669292E+04  0.00000000000E+00 0. -1.
         -1   -1    0    0    0  501 -0.00000000000E+00 -0.00000000000E+00 -0.10219166153E+04  0.10219166153E+04  0.00000000000E+00 0.  1.
         23    2    1    2    0    0  0.87688423423E+02 -0.14162113275E+04  0.75344393943E+03  0.16091448433E+04  0.91244578407E+02 0.  0.
         11    1    3    3    0    0 -0.11874448279E+02 -0.48632235534E+03  0.24559447971E+03  0.54494686373E+03  0.00000000000E+00 0.  1.
        -11    1    3    3    0    0  0.99562871702E+02 -0.92988897215E+03  0.50784945971E+03  0.10641979796E+04  0.00000000000E+00 0. -1.
         22    1    1    2    0    0 -0.87688423423E+02  0.14162113275E+04  0.25320637447E+03  0.14413387013E+04  0.00000000000E+00 0.  1.
<mgrwt>
<rscale>  0 0.28796015E+04</rscale>
<asrwt>0</asrwt>
<pdfrwt beam="1">  1        1 0.31208722E+00 0.28796015E+04</pdfrwt>
<pdfrwt beam="2">  1       -1 0.15721794E+00 0.28796015E+04</pdfrwt>
<totfact> 0.75187146E-01</totfact>
</mgrwt>
</event>
<event>
 6    1  0.1773638E-005  0.1736872E+04  0.7818608E-02  0.8740610E-01
         -1   -1    0    0    0  501 -0.00000000000E+00  0.00000000000E+00  0.20326970020E+03  0.20326970020E+03  0.00000000000E+00 0.  1.
          1   -1    0    0  501    0  0.00000000000E+00 -0.00000000000E+00 -0.37102500588E+04  0.37102500588E+04  0.00000000000E+00 0. -1.
         23    2    1    2    0    0  0.52679856337E+03  0.68584795168E+03 -0.16547026240E+04  0.18692993831E+04  0.91297703142E+02 0.  0.
         11    1    3    3    0    0  0.33583600766E+03  0.39378839153E+03 -0.10648280831E+04  0.11839400187E+04  0.00000000000E+00 0. -1.
        -11    1    3    3    0    0  0.19096255571E+03  0.29205956014E+03 -0.58987454091E+03  0.68535936440E+03  0.00000000000E+00 0.  1.
         22    1    1    2    0    0 -0.52679856337E+03 -0.68584795168E+03 -0.18522777346E+04  0.20442203759E+04  0.00000000000E+00 0. -1.
<mgrwt>
<rscale>  0 0.17368724E+04</rscale>
<asrwt>0</asrwt>
<pdfrwt beam="1">  1        1 0.57080770E+00 0.17368724E+04</pdfrwt>
<pdfrwt beam="2">  1       -1 0.31272262E-01 0.17368724E+04</pdfrwt>
<totfact> 0.15370026E+00</totfact>
</mgrwt>
</event>
<event>
 6    1  0.1773638E-005  0.7338251E+03  0.7818608E-02  0.9661074E-01
          2   -1    0    0  501    0  0.00000000000E+00  0.00000000000E+00  0.20887364630E+04  0.20887364630E+04  0.00000000000E+00 0. -1.
         -2   -1    0    0    0  501 -0.00000000000E+00 -0.00000000000E+00 -0.64452759639E+02  0.64452759639E+02  0.00000000000E+00 0.  1.
         23    2    1    2    0    0 -0.32735398439E+03  0.13147632014E+03  0.82976436781E+03  0.90766800770E+03  0.10443013103E+03 0.  0.
         13    1    3    3    0    0 -0.98233225690E+02  0.46130415839E+02  0.38645167184E+03  0.40140089258E+03  0.00000000000E+00 0. -1.
        -13    1    3    3    0    0 -0.22912075870E+03  0.85345904302E+02  0.44331269597E+03  0.50626711512E+03  0.00000000000E+00 0.  1.
         22    1    1    2    0    0  0.32735398439E+03 -0.13147632014E+03  0.11945193355E+04  0.12455212149E+04  0.00000000000E+00 0.  1.
<mgrwt>
<rscale>  0 0.73382513E+03</rscale>
<asrwt>0</asrwt>
<pdfrwt beam="1">  1        2 0.32134402E+00 0.73382513E+03</pdfrwt>
<pdfrwt beam="2">  1       -2 0.99158108E-02 0.73382513E+03</pdfrwt>
<totfact> 0.42613954E+02</totfact>
</mgrwt>
</event>
<event>
 6    1  0.1773638E-005  0.1493932E+04  0.7818608E-02  0.8888498E-01
         -2   -1    0    0    0  501 -0.00000000000E+00  0.00000000000E+00  0.34006141679E+03  0.34006141679E+03  0.00000000000E+00 0.  1.
          2   -1    0    0  501    0  0.00000000000E+00 -0.00000000000E+00 -0.16407567579E+04  0.16407567579E+04  0.00000000000E+00 0. -1.
         23    2    1    2    0    0  0.26853123493E+03  0.55085299908E+03 -0.93692466374E+02  0.62715500007E+03  0.94852860457E+02 0.  0.
         13    1    3    3    0    0  0.43804871909E+02  0.16356214945E+03  0.17165611934E+01  0.16933514141E+03  0.00000000000E+00 0.  1.
        -13    1    3    3    0    0  0.22472636302E+03  0.38729084963E+03 -0.95409027568E+02  0.45781985866E+03  0.00000000000E+00 0. -1.
         22    1    1    2    0    0 -0.26853123493E+03 -0.55085299908E+03 -0.12070028748E+04  0.13536631747E+04  0.00000000000E+00 0. -1.
<mgrwt>
<rscale>  0 0.14939318E+04</rscale>
<asrwt>0</asrwt>
<pdfrwt beam="1">  1        2 0.25242411E+00 0.14939318E+04</pdfrwt>
<pdfrwt beam="2">  1       -2 0.52317142E-01 0.14939318E+04</pdfrwt>
<totfact> 0.35266216E+01</totfact>
</mgrwt>
</event>
<event>
 6    1  0.1773638E-005  0.3092900E+04  0.7818608E-02  0.8217689E-01
         -1   -1    0    0    0  501 -0.00000000000E+00  0.00000000000E+00  0.13065800000E+04  0.13065800000E+04  0.00000000000E+00 0.  1.
          1   -1    0    0  501    0  0.00000000000E+00 -0.00000000000E+00 -0.18303570503E+04  0.18303570503E+04  0.00000000000E+00 0. -1.
         23    2    1    2    0    0 -0.74268380351E+03 -0.10590977092E+04  0.59421449018E+03  0.14272083367E+04  0.10278903792E+03 0.  0.
         13    1    3    3    0    0 -0.48104979474E+03 -0.59828653598E+03  0.34712800441E+03  0.84252806221E+03  0.00000000000E+00 0. -1.
        -13    1    3    3    0    0 -0.26163400876E+03 -0.46081117323E+03  0.24708648577E+03  0.58468027448E+03  0.00000000000E+00 0.  1.
         22    1    1    2    0    0  0.74268380351E+03  0.10590977092E+04 -0.11179915404E+04  0.17097287136E+04  0.00000000000E+00 0. -1.
<mgrwt>
<rscale>  0 0.30929002E+04</rscale>
<asrwt>0</asrwt>
<pdfrwt beam="1">  1        1 0.28159339E+00 0.30929002E+04</pdfrwt>
<pdfrwt beam="2">  1       -1 0.20101231E+00 0.30929002E+04</pdfrwt>
<totfact> 0.48583768E-01</totfact>
</mgrwt>
</event>
<event>
 6    1  0.1773638E-005  0.5329528E+04  0.7818608E-02  0.7779592E-01
         -2   -1    0    0    0  501 -0.00000000000E+00  0.00000000000E+00  0.28375020925E+04  0.28375020925E+04  0.00000000000E+00 0.  1.
          2   -1    0    0  501    0  0.00000000000E+00 -0.00000000000E+00 -0.25025420105E+04  0.25025420105E+04  0.00000000000E+00 0. -1.
         23    2    1    2    0    0  0.22460213945E+04 -0.13248323619E+04  0.71355301898E+03  0.27050629829E+04  0.91732977168E+02 0.  0.
         11    1    3    3    0    0  0.11977102463E+04 -0.66973906594E+03  0.40970924264E+03  0.14321040165E+04  0.00000000000E+00 0. -1.
        -11    1    3    3    0    0  0.10483111482E+04 -0.65509329597E+03  0.30384377634E+03  0.12729589664E+04  0.00000000000E+00 0.  1.
         22    1    1    2    0    0 -0.22460213945E+04  0.13248323619E+04 -0.37859293697E+03  0.26349811201E+04  0.00000000000E+00 0. -1.
<mgrwt>
<rscale>  0 0.53295284E+04</rscale>
<asrwt>0</asrwt>
<pdfrwt beam="1">  1        2 0.38500647E+00 0.53295284E+04</pdfrwt>
<pdfrwt beam="2">  1       -2 0.43653878E+00 0.53295284E+04</pdfrwt>
<totfact> 0.10513993E-02</totfact>
</mgrwt>
</event>
<event>
 6    1  0.1773638E-005  0.4842481E+04  0.7818608E-02  0.7853276E-01
         -2   -1    0    0    0  501 -0.00000000000E+00  0.00000000000E+00  0.18753142609E+04  0.18753142609E+04  0.00000000000E+00 0.  1.
          2   -1    0    0  501    0  0.00000000000E+00 -0.00000000000E+00 -0.31260929517E+04  0.31260929517E+04  0.00000000000E+00 0. -1.
         23    2    1    2    0    0 -0.15635639486E+04  0.18265032601E+04 -0.33817051602E+03  0.24296957084E+04  0.90639708775E+02 0.  0.
         11    1    3    3    0    0 -0.75460241126E+03  0.81209326477E+03 -0.15780004737E+03  0.11197415437E+04  0.00000000000E+00 0. -1.
        -11    1    3    3    0    0 -0.80896153733E+03  0.10144099953E+04 -0.18037046866E+03  0.13099541647E+04  0.00000000000E+00 0.  1.
         22    1    1    2    0    0  0.15635639486E+04 -0.18265032601E+04 -0.91260817477E+03  0.25717115043E+04  0.00000000000E+00 0. -1.
<mgrwt>
<rscale>  0 0.48424815E+04</rscale>
<asrwt>0</asrwt>
<pdfrwt beam="1">  1        2 0.48093737E+00 0.48424815E+04</pdfrwt>
<pdfrwt beam="2">  1       -2 0.28850989E+00 0.48424815E+04</pdfrwt>
<totfact> 0.39852391E-02</totfact>
</mgrwt>
</event>
<event>
 6    1  0.1773638E-005  0.8779489E+03  0.7818608E-02  0.9453574E-01
          2   -1    0    0  501    0  0.00000000000E+00  0.00000000000E+00  0.25646905965E+04  0.25646905965E+04  0.00000000000E+00 0. -1.
         -2   -1    0    0    0  501 -0.00000000000E+00 -0.00000000000E+00 -0.75135214552E+02  0.75135214552E+02  0.00000000000E+00 0.  1.
         23    2    1    2    0    0  0.18215132051E+03  0.28206726263E+03  0.20874282309E+04  0.21159486405E+04  0.84504354155E+02 0.  0.
         13    1    3    3    0    0  0.73067552983E+02  0.53358152807E+02  0.66507772891E+03  0.67120365409E+03  0.00000000000E+00 0. -1.
        -13    1    3    3    0    0  0.10908376753E+03  0.22870910983E+03  0.14223505020E+04  0.14447449864E+04  0.00000000000E+00 0.  1.
         22    1    1    2    0    0 -0.18215132051E+03 -0.28206726263E+03  0.40212715104E+03  0.52387717055E+03  0.00000000000E+00 0.  1.
<mgrwt>
<rscale>  0 0.87794892E+03</rscale>
<asrwt>0</asrwt>
<pdfrwt beam="1">  1        2 0.39456772E+00 0.87794892E+03</pdfrwt>
<pdfrwt beam="2">  1       -2 0.11559266E-01 0.87794892E+03</pdfrwt>
<totfact> 0.17745619E+02</totfact>
</mgrwt>
</event>
<event>
 6    1  0.1773638E-005  0.1655766E+04  0.7818608E-02  0.8787003E-01
          2   -1    0    0  501    0  0.00000000000E+00  0.00000000000E+00  0.97736529651E+03  0.97736529651E+03  0.00000000000E+00 0. -1.
         -2   -1    0    0    0  501 -0.00000000000E+00 -0.00000000000E+00 -0.70126305304E+03  0.70126305304E+03  0.00000000000E+00 0.  1.
         23    2    1    2    0    0 -0.31618777714E+03  0.62237659168E+03 -0.30715601999E+03  0.76894844201E+03  0.98028330461E+02 0.  0.
         13    1    3    3    0    0 -0.19901573669E+03  0.39257696982E+03 -0.24453164520E+03  0.50350736458E+03  0.00000000000E+00 0. -1.
        -13    1    3    3    0    0 -0.11717204045E+03  0.22979962186E+03 -0.62624374793E+02  0.26544107743E+03  0.00000000000E+00 0.  1.
         22    1    1    2    0    0  0.31618777714E+03 -0.62237659168E+03  0.58325826346E+03  0.90967990753E+03  0.00000000000E+00 0. -1.
<mgrwt>
<rscale>  0 0.16557659E+04</rscale>
<asrwt>0</asrwt>
<pdfrwt beam="1">  1        2 0.15036389E+00 0.16557659E+04</pdfrwt>
<pdfrwt beam="2">  1       -2 0.10788662E+00 0.16557659E+04</pdfrwt>
<totfact> 0.17131592E+01</totfact>
</mgrwt>
</event>
<event>
 6    1  0.1773638E-005  0.1292854E+04  0.7818608E-02  0.9035251E-01
         -1   -1    0    0    0  501 -0.00000000000E+00  0.00000000000E+00  0.50018489179E+03  0.50018489179E+03  0.00000000000E+00 0.  1.
          1   -1    0    0  501    0  0.00000000000E+00 -0.00000000000E+00 -0.83542715303E+03  0.83542715303E+03  0.00000000000E+00 0. -1.
         23    2    1    2    0    0 -0.57598753391E+03 -0.40639330539E+02 -0.46129290219E+03  0.74459431372E+03  0.90644117315E+02 0.  0.
         13    1    3    3    0    0 -0.49309481654E+03 -0.22441093562E+01 -0.39224465424E+03  0.63008206045E+03  0.00000000000E+00 0. -1.
        -13    1    3    3    0    0 -0.82892717363E+02 -0.38395221183E+02 -0.69048247955E+02  0.11451225326E+03  0.00000000000E+00 0.  1.
         22    1    1    2    0    0  0.57598753391E+03  0.40639330539E+02  0.12605064095E+03  0.59101773111E+03  0.00000000000E+00 0.  1.
<mgrwt>
<rscale>  0 0.12928543E+04</rscale>
<asrwt>0</asrwt>
<pdfrwt beam="1">  1        1 0.12852725E+00 0.12928543E+04</pdfrwt>
<pdfrwt beam="2">  1       -1 0.76951522E-01 0.12928543E+04</pdfrwt>
<totfact> 0.34326202E+01</totfact>
</mgrwt>
</event>
<event>
 6    1  0.1773638E-005  0.1138821E+04  0.7818608E-02  0.9168159E-01
          2   -1    0    0  501    0  0.00000000000E+00  0.00000000000E+00  0.11618599346E+04  0.11618599346E+04  0.00000000000E+00 0. -1.
         -2   -1    0    0    0  501 -0.00000000000E+00 -0.00000000000E+00 -0.27905950476E+03  0.27905950476E+03  0.00000000000E+00 0.  1.
         23    2    1    2    0    0  0.52941213682E+03  0.92907507184E+02  0.22054963892E+03  0.58799205350E+03  0.90462678772E+02 0.  0.
         13    1    3    3    0    0  0.12825797418E+03 -0.33942257060E+01  0.22101424420E+02  0.13019255612E+03  0.00000000000E+00 0. -1.
        -13    1    3    3    0    0  0.40115416264E+03  0.96301732890E+02  0.19844821450E+03  0.45779949738E+03  0.00000000000E+00 0.  1.
         22    1    1    2    0    0 -0.52941213682E+03 -0.92907507184E+02  0.66225079095E+03  0.85292738590E+03  0.00000000000E+00 0.  1.
<mgrwt>
<rscale>  0 0.11388205E+04</rscale>
<asrwt>0</asrwt>
<pdfrwt beam="1">  1        2 0.17874768E+00 0.11388205E+04</pdfrwt>
<pdfrwt beam="2">  1       -2 0.42932232E-01 0.11388205E+04</pdfrwt>
<totfact> 0.10168431E+02</totfact>
</mgrwt>
</event>
<event>
 6    1  0.1902502E-005  0.2840621E+04  0.7818608E-02  0.8290767E-01
         -1   -1    0    0    0  501 -0.00000000000E+00  0.00000000000E+00  0.15884594656E+04  0.15884594656E+04  0.00000000000E+00 0.  1.
          1   -1    0    0  501    0  0.00000000000E+00 -0.00000000000E+00 -0.12699613953E+04  0.12699613953E+04  0.00000000000E+00 0. -1.
         23    2    1    2    0    0 -0.13076484249E+04  0.54926125029E+03  0.11941901353E+03  0.14261971370E+04  0.90249923762E+02 0.  0.
         13    1    3    3    0    0 -0.66199128285E+03  0.26653780457E+03  0.10408825972E+03  0.72118598548E+03  0.00000000000E+00 0. -1.
        -13    1    3    3    0    0 -0.64565714201E+03  0.28272344573E+03  0.15330753810E+02  0.70501115155E+03  0.00000000000E+00 0.  1.
         22    1    1    2    0    0  0.13076484249E+04 -0.54926125029E+03  0.19907905677E+03  0.14322237238E+04  0.00000000000E+00 0. -1.
<mgrwt>
<rscale>  0 0.28406212E+04</rscale>
<asrwt>0</asrwt>
<pdfrwt beam="1">  1        1 0.19537868E+00 0.28406212E+04</pdfrwt>
<pdfrwt beam="2">  1       -1 0.24437838E+00 0.28406212E+04</pdfrwt>
<totfact> 0.62231716E-01</totfact>
</mgrwt>
</event>
<event>
 6    1  0.1773638E-005  0.1229258E+04  0.7818608E-02  0.9087626E-01
         -1   -1    0    0    0  501 -0.00000000000E+00  0.00000000000E+00  0.11479344264E+03  0.11479344264E+03  0.00000000000E+00 0.  1.
          1   -1    0    0  501    0  0.00000000000E+00 -0.00000000000E+00 -0.32908562787E+04  0.32908562787E+04  0.00000000000E+00 0. -1.
         23    2    1    2    0    0  0.13585789953E+03  0.52952003358E+03 -0.23562476685E+04  0.24202839294E+04  0.83799696766E+02 0.  0.
         13    1    3    3    0    0  0.42575393210E+02  0.97327739965E+02 -0.59340560840E+03  0.60283958825E+03  0.00000000000E+00 0.  1.
        -13    1    3    3    0    0  0.93282506319E+02  0.43219229361E+03 -0.17628420600E+04  0.18174443412E+04  0.00000000000E+00 0. -1.
         22    1    1    2    0    0 -0.13585789953E+03 -0.52952003358E+03 -0.81981516763E+03  0.98536579193E+03  0.00000000000E+00 0.  1.
<mgrwt>
<rscale>  0 0.12292579E+04</rscale>
<asrwt>0</asrwt>
<pdfrwt beam="1">  1        1 0.50628560E+00 0.12292579E+04</pdfrwt>
<pdfrwt beam="2">  1       -1 0.17660529E-01 0.12292579E+04</pdfrwt>
<totfact> 0.91736666E+00</totfact>
</mgrwt>
</event>
<event>
 6    1  0.1773638E-005  0.3411123E+04  0.7818608E-02  0.8135182E-01
         -2   -1    0    0    0  501 -0.00000000000E+00  0.00000000000E+00  0.19764488884E+04  0.19764488884E+04  0.00000000000E+00 0.  1.
          2   -1    0    0  501    0  0.00000000000E+00 -0.00000000000E+00 -0.14718010566E+04  0.14718010566E+04  0.00000000000E+00 0. -1.
         23    2    1    2    0    0 -0.11735993276E+04 -0.66461819976E+03  0.13058975041E+04  0.18794753370E+04  0.89479147923E+02 0.  0.
         11    1    3    3    0    0 -0.49486336099E+03 -0.27764626972E+03  0.61120714976E+03  0.83399722844E+03  0.00000000000E+00 0. -1.
        -11    1    3    3    0    0 -0.67873596665E+03 -0.38697193004E+03  0.69469035432E+03  0.10454781085E+04  0.00000000000E+00 0.  1.
         22    1    1    2    0    0  0.11735993276E+04  0.66461819976E+03 -0.80124967234E+03  0.15687746080E+04  0.00000000000E+00 0. -1.
<mgrwt>
<rscale>  0 0.34111227E+04</rscale>
<asrwt>0</asrwt>
<pdfrwt beam="1">  1        2 0.22643093E+00 0.34111227E+04</pdfrwt>
<pdfrwt beam="2">  1       -2 0.30406906E+00 0.34111227E+04</pdfrwt>
<totfact> 0.32706543E-01</totfact>
</mgrwt>
</event>
<event>
 6    1  0.1773638E-005  0.1721286E+04  0.7818608E-02  0.8749316E-01
         -1   -1    0    0    0  501 -0.00000000000E+00  0.00000000000E+00  0.65802872465E+03  0.65802872465E+03  0.00000000000E+00 0.  1.
          1   -1    0    0  501    0  0.00000000000E+00 -0.00000000000E+00 -0.11256450665E+04  0.11256450665E+04  0.00000000000E+00 0. -1.
         23    2    1    2    0    0 -0.65894811174E+03  0.47151685012E+03 -0.52786076340E+03  0.97116524084E+03  0.89354270028E+02 0.  0.
         11    1    3    3    0    0 -0.34862259931E+03  0.19585462692E+03 -0.27061099835E+03  0.48283233535E+03  0.00000000000E+00 0.  1.
        -11    1    3    3    0    0 -0.31032551243E+03  0.27566222321E+03 -0.25724976504E+03  0.48833290549E+03  0.00000000000E+00 0. -1.
         22    1    1    2    0    0  0.65894811174E+03 -0.47151685012E+03  0.60244421599E+02  0.81250855026E+03  0.00000000000E+00 0.  1.
<mgrwt>
<rscale>  0 0.17212865E+04</rscale>
<asrwt>0</asrwt>
<pdfrwt beam="1">  1        1 0.17317616E+00 0.17212865E+04</pdfrwt>
<pdfrwt beam="2">  1       -1 0.10123519E+00 0.17212865E+04</pdfrwt>
<totfact> 0.10677121E+01</totfact>
</mgrwt>
</event>
<event>
 6    1  0.1773638E-005  0.3448635E+04  0.7818608E-02  0.8126072E-01
          2   -1    0    0  501    0  0.00000000000E+00  0.00000000000E+00  0.21656252016E+04  0.21656252016E+04  0.00000000000E+00 0.  1.
         -2   -1    0    0    0  501 -0.00000000000E+00 -0.00000000000E+00 -0.13729390734E+04  0.13729390734E+04  0.00000000000E+00 0. -1.
         23    2    1    2    0    0  0.36049611378E+03  0.30878451752E+03  0.20960357099E+04  0.21514718272E+04  0.10079682442E+03 0.  0.
         13    1    3    3    0    0  0.34059061125E+01  0.34372866028E+02  0.12938022209E+03  0.13391167232E+03  0.00000000000E+00 0. -1.
        -13    1    3    3    0    0  0.35709020766E+03  0.27441165149E+03  0.19666554878E+04  0.20175601549E+04  0.00000000000E+00 0.  1.
         22    1    1    2    0    0 -0.36049611378E+03 -0.30878451752E+03 -0.13033495818E+04  0.13870924478E+04  0.00000000000E+00 0. -1.
<mgrwt>
<rscale>  0 0.34486354E+04</rscale>
<asrwt>0</asrwt>
<pdfrwt beam="1">  1        2 0.33317311E+00 0.34486354E+04</pdfrwt>
<pdfrwt beam="2">  1       -2 0.21122140E+00 0.34486354E+04</pdfrwt>
<totfact> 0.50099045E-01</totfact>
</mgrwt>
</event>
<event>
 6    1  0.1773638E-005  0.3966452E+04  0.7818608E-02  0.8011349E-01
          2   -1    0    0  501    0  0.00000000000E+00  0.00000000000E+00  0.18584536854E+04  0.18584536854E+04  0.00000000000E+00 0.  1.
         -2   -1    0    0    0  501 -0.00000000000E+00 -0.00000000000E+00 -0.21163753426E+04  0.21163753426E+04  0.00000000000E+00 0. -1.
         23    2    1    2    0    0 -0.80757068392E+03 -0.83533297063E+03  0.14803245433E+04  0.18840274031E+04  0.90812557885E+02 0.  0.
         11    1    3    3    0    0 -0.56375011278E+03 -0.53030364269E+03  0.94775058720E+03  0.12236287503E+04  0.00000000000E+00 0.  1.
        -11    1    3    3    0    0 -0.24382057114E+03 -0.30502932794E+03  0.53257395614E+03  0.66039865276E+03  0.00000000000E+00 0. -1.
         22    1    1    2    0    0  0.80757068392E+03  0.83533297063E+03 -0.17382462004E+04  0.20908016249E+04  0.00000000000E+00 0. -1.
<mgrwt>
<rscale>  0 0.39664521E+04</rscale>
<asrwt>0</asrwt>
<pdfrwt beam="1">  1        2 0.28591595E+00 0.39664521E+04</pdfrwt>
<pdfrwt beam="2">  1       -2 0.32559621E+00 0.39664521E+04</pdfrwt>
<totfact> 0.14002005E-01</totfact>
</mgrwt>
</event>
<event>
 6    1  0.1773638E-005  0.4859581E+04  0.7818608E-02  0.7850541E-01
         -2   -1    0    0    0  501 -0.00000000000E+00  0.00000000000E+00  0.31974567297E+04  0.31974567297E+04  0.00000000000E+00 0. -1.
          2   -1    0    0  501    0  0.00000000000E+00 -0.00000000000E+00 -0.18464307815E+04  0.18464307815E+04  0.00000000000E+00 0.  1.
         23    2    1    2    0    0 -0.66917329087E+03 -0.32937026981E+03  0.30750300119E+04  0.31654659185E+04  0.89929080874E+02 0.  0.
         11    1    3    3    0    0 -0.35185814986E+03 -0.22283182181E+03  0.17203184361E+04  0.17700151694E+04  0.00000000000E+00 0.  1.
        -11    1    3    3    0    0 -0.31731514101E+03 -0.10653844800E+03  0.13547115758E+04  0.13954507491E+04  0.00000000000E+00 0. -1.
         22    1    1    2    0    0  0.66917329087E+03  0.32937026981E+03 -0.17240040637E+04  0.18784215926E+04  0.00000000000E+00 0.  1.
<mgrwt>
<rscale>  0 0.48595813E+04</rscale>
<asrwt>0</asrwt>
<pdfrwt beam="1">  1        2 0.28406627E+00 0.48595813E+04</pdfrwt>
<pdfrwt beam="2">  1       -2 0.49191642E+00 0.48595813E+04</pdfrwt>
<totfact> 0.11154385E-02</totfact>
</mgrwt>
</event>
<event>
 6    1  0.1773638E-005  0.1934091E+04  0.7818608E-02  0.8638071E-01
          2   -1    0    0  501    0  0.00000000000E+00  0.00000000000E+00  0.13057294404E+04  0.13057294404E+04  0.00000000000E+00 0.  1.
         -2   -1    0    0    0  501 -0.00000000000E+00 -0.00000000000E+00 -0.71621039158E+03  0.71621039158E+03  0.00000000000E+00 0. -1.
         23    2    1    2    0    0 -0.35262694773E+03  0.66625106699E+03  0.92469349181E+03  0.11969682229E+04  0.97152583111E+02 0.  0.
         11    1    3    3    0    0 -0.32435491363E+03  0.63387206102E+03  0.83405101186E+03  0.10966498941E+04  0.00000000000E+00 0. -1.
        -11    1    3    3    0    0 -0.28272034099E+02  0.32379005968E+02  0.90642479950E+02  0.10031832889E+03  0.00000000000E+00 0.  1.
         22    1    1    2    0    0  0.35262694773E+03 -0.66625106699E+03 -0.33517444297E+03  0.82497160906E+03  0.00000000000E+00 0. -1.
<mgrwt>
<rscale>  0 0.19340910E+04</rscale>
<asrwt>0</asrwt>
<pdfrwt beam="1">  1        2 0.20088145E+00 0.19340910E+04</pdfrwt>
<pdfrwt beam="2">  1       -2 0.11018621E+00 0.19340910E+04</pdfrwt>
<totfact> 0.10027454E+01</totfact>
</mgrwt>
</event>
<event>
 6    1  0.1773638E-005  0.1651984E+04  0.7818608E-02  0.8789234E-01
          3   -1    0    0  501    0  0.00000000000E+00  0.00000000000E+00  0.65030281109E+03  0.65030281109E+03  0.00000000000E+00 0. -1.
         -3   -1    0    0    0  501 -0.00000000000E+00 -0.00000000000E+00 -0.10491460174E+04  0.10491460174E+04  0.00000000000E+00 0.  1.
         23    2    1    2    0    0 -0.58075201491E+03  0.34386969743E+03  0.28528506203E+03  0.73843334517E+03  0.91525772389E+02 0.  0.
         11    1    3    3    0    0 -0.45242334613E+02  0.37278918817E+02  0.23108851874E-01  0.58622411784E+02  0.00000000000E+00 0. -1.
        -11    1    3    3    0    0 -0.53550968030E+03  0.30659077861E+03  0.28526195317E+03  0.67981093339E+03  0.00000000000E+00 0.  1.
         22    1    1    2    0    0  0.58075201491E+03 -0.34386969743E+03 -0.68412826832E+03  0.96101548330E+03  0.00000000000E+00 0.  1.
<mgrwt>
<rscale>  0 0.16519838E+04</rscale>
<asrwt>0</asrwt>
<pdfrwt beam="1">  1        3 0.10004659E+00 0.16519838E+04</pdfrwt>
<pdfrwt beam="2">  1       -3 0.16140708E+00 0.16519838E+04</pdfrwt>
<totfact> 0.58104509E-01</totfact>
</mgrwt>
</event>
<event>
 6    1  0.1773638E-005  0.7151182E+03  0.7818608E-02  0.9691722E-01
         -1   -1    0    0    0  501 -0.00000000000E+00  0.00000000000E+00  0.76681479532E+02  0.76681479532E+02  0.00000000000E+00 0.  1.
          1   -1    0    0  501    0  0.00000000000E+00 -0.00000000000E+00 -0.16672671715E+04  0.16672671715E+04  0.00000000000E+00 0. -1.
         23    2    1    2    0    0  0.30817984508E+01  0.24886862531E+03 -0.14144399306E+04  0.14390348610E+04  0.90751989426E+02 0.  0.
         11    1    3    3    0    0  0.24517464461E+02  0.13759339129E+03 -0.98624713982E+03  0.99610063156E+03  0.00000000000E+00 0.  1.
        -11    1    3    3    0    0 -0.21435666011E+02  0.11127523401E+03 -0.42819279082E+03  0.44293422942E+03  0.00000000000E+00 0. -1.
         22    1    1    2    0    0 -0.30817984508E+01 -0.24886862531E+03 -0.17614576138E+03  0.30491379010E+03  0.00000000000E+00 0.  1.
<mgrwt>
<rscale>  0 0.71511821E+03</rscale>
<asrwt>0</asrwt>
<pdfrwt beam="1">  1        1 0.25650266E+00 0.71511821E+03</pdfrwt>
<pdfrwt beam="2">  1       -1 0.11797150E-01 0.71511821E+03</pdfrwt>
<totfact> 0.24921709E+02</totfact>
</mgrwt>
</event>
<event>
 6    1  0.1773638E-005  0.2553358E+04  0.7818608E-02  0.8384219E-01
          1   -1    0    0  501    0  0.00000000000E+00  0.00000000000E+00  0.12784071899E+04  0.12784071899E+04  0.00000000000E+00 0. -1.
         -1   -1    0    0    0  501 -0.00000000000E+00 -0.00000000000E+00 -0.12749526845E+04  0.12749526845E+04  0.00000000000E+00 0.  1.
         23    2    1    2    0    0 -0.82553625419E+03  0.86320116312E+03  0.44782052253E+03  0.12789629535E+04  0.92610263678E+02 0.  0.
         11    1    3    3    0    0 -0.34267058795E+03  0.36202610674E+03  0.13843363073E+03  0.51734891894E+03  0.00000000000E+00 0. -1.
        -11    1    3    3    0    0 -0.48286566624E+03  0.50117505638E+03  0.30938689180E+03  0.76161403453E+03  0.00000000000E+00 0.  1.
         22    1    1    2    0    0  0.82553625419E+03 -0.86320116312E+03 -0.44436601718E+03  0.12743969210E+04  0.00000000000E+00 0.  1.
<mgrwt>
<rscale>  0 0.25533575E+04</rscale>
<asrwt>0</asrwt>
<pdfrwt beam="1">  1        1 0.19667803E+00 0.25533575E+04</pdfrwt>
<pdfrwt beam="2">  1       -1 0.19614657E+00 0.25533575E+04</pdfrwt>
<totfact> 0.13267835E+00</totfact>
</mgrwt>
</event>
<event>
 6    1  0.1773638E-005  0.3052036E+04  0.7818608E-02  0.8229026E-01
          2   -1    0    0  501    0  0.00000000000E+00  0.00000000000E+00  0.20292780701E+04  0.20292780701E+04  0.00000000000E+00 0. -1.
         -2   -1    0    0    0  501 -0.00000000000E+00 -0.00000000000E+00 -0.11475663439E+04  0.11475663439E+04  0.00000000000E+00 0.  1.
         23    2    1    2    0    0  0.73513593390E+03  0.91793184872E+03  0.14511294651E+04  0.18702227084E+04  0.94512085792E+02 0.  0.
         11    1    3    3    0    0  0.37168100914E+02  0.85227398679E+02  0.10335382603E+03  0.13902226644E+03  0.00000000000E+00 0.  1.
        -11    1    3    3    0    0  0.69796783299E+03  0.83270445004E+03  0.13477756390E+04  0.17312004419E+04  0.00000000000E+00 0. -1.
         22    1    1    2    0    0 -0.73513593390E+03 -0.91793184872E+03 -0.56941773891E+03  0.13066217056E+04  0.00000000000E+00 0.  1.
<mgrwt>
<rscale>  0 0.30520362E+04</rscale>
<asrwt>0</asrwt>
<pdfrwt beam="1">  1        2 0.31219662E+00 0.30520362E+04</pdfrwt>
<pdfrwt beam="2">  1       -2 0.17654867E+00 0.30520362E+04</pdfrwt>
<totfact> 0.10511636E+00</totfact>
</mgrwt>
</event>
<event>
 6    1  0.1773638E-005  0.1810073E+04  0.7818608E-02  0.8700961E-01
         -2   -1    0    0    0  501 -0.00000000000E+00  0.00000000000E+00  0.55898071869E+03  0.55898071869E+03  0.00000000000E+00 0. -1.
          2   -1    0    0  501    0  0.00000000000E+00 -0.00000000000E+00 -0.14653298149E+04  0.14653298149E+04  0.00000000000E+00 0.  1.
         23    2    1    2    0    0 -0.68863260884E+03  0.82796029165E+02  0.19185776311E+03  0.72541548076E+03  0.91368298963E+02 0.  0.
         11    1    3    3    0    0 -0.37723452822E+03  0.28504565244E+02  0.60519098066E+02  0.38312003439E+03  0.00000000000E+00 0.  1.
        -11    1    3    3    0    0 -0.31139808062E+03  0.54291463921E+02  0.13133866504E+03  0.34229544637E+03  0.00000000000E+00 0. -1.
         22    1    1    2    0    0  0.68863260884E+03 -0.82796029165E+02 -0.10982068594E+04  0.12988950529E+04  0.00000000000E+00 0.  1.
<mgrwt>
<rscale>  0 0.18100731E+04</rscale>
<asrwt>0</asrwt>
<pdfrwt beam="1">  1        2 0.22543535E+00 0.18100731E+04</pdfrwt>
<pdfrwt beam="2">  1       -2 0.85997035E-01 0.18100731E+04</pdfrwt>
<totfact> 0.14699302E+01</totfact>
</mgrwt>
</event>
<event>
 6    1  0.1773638E-005  0.7951871E+03  0.7818608E-02  0.9567010E-01
         -1   -1    0    0    0  501 -0.00000000000E+00  0.00000000000E+00  0.17131539597E+03  0.17131539597E+03  0.00000000000E+00 0.  1.
          1   -1    0    0  501    0  0.00000000000E+00 -0.00000000000E+00 -0.92274620856E+03  0.92274620856E+03  0.00000000000E+00 0. -1.
         23    2    1    2    0    0  0.15633764691E+03  0.32074426189E+03 -0.60452983328E+03  0.70818825860E+03  0.93573227638E+02 0.  0.
         11    1    3    3    0    0  0.46189932714E+02  0.61744337570E+02 -0.20877175580E+03  0.22255677731E+03  0.00000000000E+00 0. -1.
        -11    1    3    3    0    0  0.11014771419E+03  0.25899992432E+03 -0.39575807747E+03  0.48563148129E+03  0.00000000000E+00 0.  1.
         22    1    1    2    0    0 -0.15633764691E+03 -0.32074426189E+03 -0.14690097931E+03  0.38587334593E+03  0.00000000000E+00 0.  1.
<mgrwt>
<rscale>  0 0.79518710E+03</rscale>
<asrwt>0</asrwt>
<pdfrwt beam="1">  1        1 0.14196095E+00 0.79518710E+03</pdfrwt>
<pdfrwt beam="2">  1       -1 0.26356215E-01 0.79518710E+03</pdfrwt>
<totfact> 0.22513390E+02</totfact>
</mgrwt>
</event>
<event>
 6    1  0.1773638E-005  0.2960908E+04  0.7818608E-02  0.8254983E-01
          2   -1    0    0  501    0  0.00000000000E+00  0.00000000000E+00  0.31706528191E+04  0.31706528191E+04  0.00000000000E+00 0. -1.
         -2   -1    0    0    0  501 -0.00000000000E+00 -0.00000000000E+00 -0.69125958656E+03  0.69125958656E+03  0.00000000000E+00 0.  1.
         23    2    1    2    0    0  0.69464705977E+03  0.22484818837E+03 -0.43681760441E+03  0.85568937816E+03  0.91123251208E+02 0.  0.
         13    1    3    3    0    0  0.13310128747E+03  0.22713219462E+02 -0.11654355797E+03  0.17836547864E+03  0.00000000000E+00 0. -1.
        -13    1    3    3    0    0  0.56154577230E+03  0.20213496891E+03 -0.32027404644E+03  0.67732389953E+03  0.00000000000E+00 0.  1.
         22    1    1    2    0    0 -0.69464705977E+03 -0.22484818837E+03  0.29162108369E+04  0.30062230275E+04  0.00000000000E+00 0. -1.
<mgrwt>
<rscale>  0 0.29609081E+04</rscale>
<asrwt>0</asrwt>
<pdfrwt beam="1">  1        2 0.48779273E+00 0.29609081E+04</pdfrwt>
<pdfrwt beam="2">  1       -2 0.10634763E+00 0.29609081E+04</pdfrwt>
<totfact> 0.82903281E-01</totfact>
</mgrwt>
</event>
<event>
 6    1  0.1773638E-005  0.1353848E+04  0.7818608E-02  0.8987920E-01
         -1   -1    0    0    0  501 -0.00000000000E+00  0.00000000000E+00  0.61651464107E+03  0.61651464107E+03  0.00000000000E+00 0.  1.
          1   -1    0    0  501    0  0.00000000000E+00 -0.00000000000E+00 -0.74325274621E+03  0.74325274621E+03  0.00000000000E+00 0. -1.
         23    2    1    2    0    0  0.34517546069E+03 -0.48496623053E+03 -0.38051078229E+03  0.71266699702E+03  0.93634661289E+02 0.  0.
         13    1    3    3    0    0  0.81167048538E+02 -0.13323045985E+03 -0.14868869564E+03  0.21551513499E+03  0.00000000000E+00 0. -1.
        -13    1    3    3    0    0  0.26400841215E+03 -0.35173577068E+03 -0.23182208664E+03  0.49715186203E+03  0.00000000000E+00 0.  1.
         22    1    1    2    0    0 -0.34517546069E+03  0.48496623053E+03  0.25377267714E+03  0.64710039026E+03  0.00000000000E+00 0.  1.
<mgrwt>
<rscale>  0 0.13538481E+04</rscale>
<asrwt>0</asrwt>
<pdfrwt beam="1">  1        1 0.11434658E+00 0.13538481E+04</pdfrwt>
<pdfrwt beam="2">  1       -1 0.94848406E-01 0.13538481E+04</pdfrwt>
<totfact> 0.26133079E+01</totfact>
</mgrwt>
</event>
<event>
 6    1  0.1773638E-005  0.2471615E+04  0.7818608E-02  0.8413168E-01
          2   -1    0    0  501    0  0.00000000000E+00  0.00000000000E+00  0.23956157138E+04  0.23956157138E+04  0.00000000000E+00 0. -1.
         -2   -1    0    0    0  501 -0.00000000000E+00 -0.00000000000E+00 -0.63750654199E+03  0.63750654199E+03  0.00000000000E+00 0.  1.
         23    2    1    2    0    0  0.76554620826E+03  0.48808599179E+03  0.19064514800E+04  0.21131796637E+04  0.81744194281E+02 0.  0.
         13    1    3    3    0    0  0.29428095487E+03  0.21086989863E+03  0.84154515235E+03  0.91611442407E+03  0.00000000000E+00 0. -1.
        -13    1    3    3    0    0  0.47126525340E+03  0.27721609316E+03  0.10649063276E+04  0.11970652397E+04  0.00000000000E+00 0.  1.
         22    1    1    2    0    0 -0.76554620826E+03 -0.48808599179E+03 -0.14834230813E+03  0.91994259210E+03  0.00000000000E+00 0.  1.
<mgrwt>
<rscale>  0 0.24716154E+04</rscale>
<asrwt>0</asrwt>
<pdfrwt beam="1">  1        2 0.36855626E+00 0.24716154E+04</pdfrwt>
<pdfrwt beam="2">  1       -2 0.98077931E-01 0.24716154E+04</pdfrwt>
<totfact> 0.30907008E+00</totfact>
</mgrwt>
</event>
<event>
 6    1  0.1773638E-005  0.9463676E+03  0.7818608E-02  0.9369406E-01
          1   -1    0    0  501    0  0.00000000000E+00  0.00000000000E+00  0.94191268149E+03  0.94191268149E+03  0.00000000000E+00 0. -1.
         -1   -1    0    0    0  501 -0.00000000000E+00 -0.00000000000E+00 -0.23771091107E+03  0.23771091107E+03  0.00000000000E+00 0.  1.
         23    2    1    2    0    0 -0.41822256144E+03  0.12393852504E+03  0.56769759903E+03  0.72256313956E+03  0.97703929415E+02 0.  0.
         11    1    3    3    0    0 -0.22581057646E+03  0.25394811406E+02  0.24509192566E+03  0.33422352537E+03  0.00000000000E+00 0.  1.
        -11    1    3    3    0    0 -0.19241198498E+03  0.98543713630E+02  0.32260567337E+03  0.38833961419E+03  0.00000000000E+00 0. -1.
         22    1    1    2    0    0  0.41822256144E+03 -0.12393852504E+03  0.13650417139E+03  0.45706045300E+03  0.00000000000E+00 0.  1.
<mgrwt>
<rscale>  0 0.94636763E+03</rscale>
<asrwt>0</asrwt>
<pdfrwt beam="1">  1        1 0.14490964E+00 0.94636763E+03</pdfrwt>
<pdfrwt beam="2">  1       -1 0.36570910E-01 0.94636763E+03</pdfrwt>
<totfact> 0.12114594E+02</totfact>
</mgrwt>
</event>
<event>
 6    1  0.1773638E-005  0.2901132E+04  0.7818608E-02  0.8272541E-01
          2   -1    0    0  501    0  0.00000000000E+00  0.00000000000E+00  0.15808782635E+04  0.15808782635E+04  0.00000000000E+00 0. -1.
         -2   -1    0    0    0  501 -0.00000000000E+00 -0.00000000000E+00 -0.13309954746E+04  0.13309954746E+04  0.00000000000E+00 0.  1.
         23    2    1    2    0    0  0.99612018686E+03 -0.28235462345E+03  0.11431021947E+04  0.15444599503E+04  0.81819011147E+02 0.  0.
         11    1    3    3    0    0  0.55660089779E+03 -0.19453758571E+03  0.67872525824E+03  0.89906474064E+03  0.00000000000E+00 0.  1.
        -11    1    3    3    0    0  0.43951928906E+03 -0.87817037739E+02  0.46437693643E+03  0.64539520967E+03  0.00000000000E+00 0. -1.
         22    1    1    2    0    0 -0.99612018686E+03  0.28235462345E+03 -0.89321940581E+03  0.13674137878E+04  0.00000000000E+00 0.  1.
<mgrwt>
<rscale>  0 0.29011321E+04</rscale>
<asrwt>0</asrwt>
<pdfrwt beam="1">  1        2 0.24321204E+00 0.29011321E+04</pdfrwt>
<pdfrwt beam="2">  1       -2 0.20476853E+00 0.29011321E+04</pdfrwt>
<totfact> 0.12212143E+00</totfact>
</mgrwt>
</event>
<event>
 6    1  0.1773638E-005  0.8251148E+03  0.7818608E-02  0.9524359E-01
         -2   -1    0    0    0  501 -0.00000000000E+00  0.00000000000E+00  0.21824104288E+03  0.21824104288E+03  0.00000000000E+00 0.  1.
          2   -1    0    0  501    0  0.00000000000E+00 -0.00000000000E+00 -0.77988809440E+03  0.77988809440E+03  0.00000000000E+00 0. -1.
         23    2    1    2    0    0 -0.40131942813E+03 -0.44719578554E+02 -0.35136457863E+03  0.54285356962E+03  0.90420168274E+02 0.  0.
         13    1    3    3    0    0 -0.32068314616E+02 -0.61166852908E+01 -0.14474273266E+01  0.32678520272E+02  0.00000000000E+00 0.  1.
        -13    1    3    3    0    0 -0.36925111351E+03 -0.38602893263E+02 -0.34991715131E+03  0.51017504935E+03  0.00000000000E+00 0. -1.
         22    1    1    2    0    0  0.40131942813E+03  0.44719578554E+02 -0.21028247289E+03  0.45527556766E+03  0.00000000000E+00 0. -1.
<mgrwt>
<rscale>  0 0.82511476E+03</rscale>
<asrwt>0</asrwt>
<pdfrwt beam="1">  1        2 0.11998278E+00 0.82511476E+03</pdfrwt>
<pdfrwt beam="2">  1       -2 0.33575546E-01 0.82511476E+03</pdfrwt>
<totfact> 0.29670731E+02</totfact>
</mgrwt>
</event>
<event>
 6    1  0.1773638E-005  0.5298766E+04  0.7818608E-02  0.7784003E-01
          1   -1    0    0  501    0  0.00000000000E+00  0.00000000000E+00  0.26544219715E+04  0.26544219715E+04  0.00000000000E+00 0. -1.
         -1   -1    0    0    0  501 -0.00000000000E+00 -0.00000000000E+00 -0.26443534754E+04  0.26443534754E+04  0.00000000000E+00 0.  1.
         23    2    1    2    0    0 -0.16042265139E+04  0.60229025674E+03  0.20247074493E+04  0.26539566680E+04  0.88031126460E+02 0.  0.
         11    1    3    3    0    0 -0.10463152068E+04  0.42741454017E+03  0.13747888120E+04  0.17797480099E+04  0.00000000000E+00 0. -1.
        -11    1    3    3    0    0 -0.55791130708E+03  0.17487571657E+03  0.64991863733E+03  0.87420865814E+03  0.00000000000E+00 0.  1.
         22    1    1    2    0    0  0.16042265139E+04 -0.60229025674E+03 -0.20146389532E+04  0.26448187789E+04  0.00000000000E+00 0.  1.
<mgrwt>
<rscale>  0 0.52987659E+04</rscale>
<asrwt>0</asrwt>
<pdfrwt beam="1">  1        1 0.40837261E+00 0.52987659E+04</pdfrwt>
<pdfrwt beam="2">  1       -1 0.40682361E+00 0.52987659E+04</pdfrwt>
<totfact> 0.47910994E-03</totfact>
</mgrwt>
</event>
<event>
 6    1  0.1773638E-005  0.2551504E+04  0.7818608E-02  0.8384863E-01
          2   -1    0    0  501    0  0.00000000000E+00  0.00000000000E+00  0.23562545017E+04  0.23562545017E+04  0.00000000000E+00 0. -1.
         -2   -1    0    0    0  501 -0.00000000000E+00 -0.00000000000E+00 -0.69073342534E+03  0.69073342534E+03  0.00000000000E+00 0.  1.
         23    2    1    2    0    0  0.96772285561E+02  0.60924266478E+03 -0.49733148686E+03  0.79788305842E+03  0.93473350470E+02 0.  0.
         13    1    3    3    0    0  0.84359215715E+01  0.12464594842E+03 -0.14972209781E+03  0.19499867641E+03  0.00000000000E+00 0.  1.
        -13    1    3    3    0    0  0.88336363989E+02  0.48459671636E+03 -0.34760938905E+03  0.60288438200E+03  0.00000000000E+00 0. -1.
         22    1    1    2    0    0 -0.96772285561E+02 -0.60924266478E+03  0.21628525632E+04  0.22491048686E+04  0.00000000000E+00 0. -1.
<mgrwt>
<rscale>  0 0.25515045E+04</rscale>
<asrwt>0</asrwt>
<pdfrwt beam="1">  1        2 0.36250069E+00 0.25515045E+04</pdfrwt>
<pdfrwt beam="2">  1       -2 0.10626668E+00 0.25515045E+04</pdfrwt>
<totfact> 0.26706514E+00</totfact>
</mgrwt>
</event>
<event>
 6    1  0.1773638E-005  0.3584933E+04  0.7818608E-02  0.8093952E-01
         -2   -1    0    0    0  501 -0.00000000000E+00  0.00000000000E+00  0.13484472209E+04  0.13484472209E+04  0.00000000000E+00 0. -1.
          2   -1    0    0  501    0  0.00000000000E+00 -0.00000000000E+00 -0.23826927517E+04  0.23826927517E+04  0.00000000000E+00 0.  1.
         23    2    1    2    0    0  0.77273337684E+03 -0.47806492039E+03  0.10892262202E+04  0.14214224103E+04  0.91460210215E+02 0.  0.
         13    1    3    3    0    0  0.27446066643E+03 -0.19097447000E+03  0.33900134548E+03  0.47615314537E+03  0.00000000000E+00 0.  1.
        -13    1    3    3    0    0  0.49827271041E+03 -0.28709045039E+03  0.75022487473E+03  0.94526926498E+03  0.00000000000E+00 0. -1.
         22    1    1    2    0    0 -0.77273337684E+03  0.47806492039E+03 -0.21234717511E+04  0.23097175623E+04  0.00000000000E+00 0.  1.
<mgrwt>
<rscale>  0 0.35849326E+04</rscale>
<asrwt>0</asrwt>
<pdfrwt beam="1">  1        2 0.36656811E+00 0.35849326E+04</pdfrwt>
<pdfrwt beam="2">  1       -2 0.20745342E+00 0.35849326E+04</pdfrwt>
<totfact> 0.39470742E-01</totfact>
</mgrwt>
</event>
<event>
 6    1  0.1773638E-005  0.5683093E+03  0.7818608E-02  0.9973427E-01
          1   -1    0    0  501    0  0.00000000000E+00  0.00000000000E+00  0.16048248969E+04  0.16048248969E+04  0.00000000000E+00 0. -1.
         -1   -1    0    0    0  501 -0.00000000000E+00 -0.00000000000E+00 -0.50313185713E+02  0.50313185713E+02  0.00000000000E+00 0.  1.
         23    2    1    2    0    0  0.22240548970E+03  0.10226654757E+03  0.42349589125E+03  0.49793480162E+03  0.93100204932E+02 0.  0.
         11    1    3    3    0    0  0.13884788527E+03  0.94465997830E+02  0.34173832630E+03  0.38077243026E+03  0.00000000000E+00 0. -1.
        -11    1    3    3    0    0  0.83557604431E+02  0.78005497380E+01  0.81757564956E+02  0.11716237136E+03  0.00000000000E+00 0.  1.
         22    1    1    2    0    0 -0.22240548970E+03 -0.10226654757E+03  0.11310158199E+04  0.11572032810E+04  0.00000000000E+00 0. -1.
<mgrwt>
<rscale>  0 0.56830926E+03</rscale>
<asrwt>0</asrwt>
<pdfrwt beam="1">  1        1 0.24689610E+00 0.56830926E+03</pdfrwt>
<pdfrwt beam="2">  1       -1 0.77404913E-02 0.56830926E+03</pdfrwt>
<totfact> 0.53902014E+02</totfact>
</mgrwt>
</event>
<event>
 6    1  0.1773638E-005  0.1342637E+04  0.7818608E-02  0.8996421E-01
          2   -1    0    0  501    0  0.00000000000E+00  0.00000000000E+00  0.41250278973E+03  0.41250278973E+03  0.00000000000E+00 0. -1.
         -2   -1    0    0    0  501 -0.00000000000E+00 -0.00000000000E+00 -0.10925225043E+04  0.10925225043E+04  0.00000000000E+00 0.  1.
         23    2    1    2    0    0 -0.21614862928E+03 -0.35106496068E+03  0.24805248219E+03  0.48950334007E+03  0.90092449505E+02 0.  0.
         11    1    3    3    0    0 -0.21343821156E+03 -0.31156805193E+03  0.20036480363E+03  0.42752377206E+03  0.00000000000E+00 0.  1.
        -11    1    3    3    0    0 -0.27104177268E+01 -0.39496908749E+02  0.47687678554E+02  0.61979568011E+02  0.00000000000E+00 0. -1.
         22    1    1    2    0    0  0.21614862928E+03  0.35106496068E+03 -0.92807219672E+03  0.10155219539E+04  0.00000000000E+00 0.  1.
<mgrwt>
<rscale>  0 0.13426371E+04</rscale>
<asrwt>0</asrwt>
<pdfrwt beam="1">  1        2 0.63461967E-01 0.13426371E+04</pdfrwt>
<pdfrwt beam="2">  1       -2 0.16808039E+00 0.13426371E+04</pdfrwt>
<totfact> 0.16489902E+01</totfact>
</mgrwt>
</event>
<event>
 6    1  0.1773638E-005  0.2295406E+04  0.7818608E-02  0.8479735E-01
          3   -1    0    0  501    0  0.00000000000E+00  0.00000000000E+00  0.11546781057E+04  0.11546781057E+04  0.00000000000E+00 0. -1.
         -3   -1    0    0    0  501 -0.00000000000E+00 -0.00000000000E+00 -0.11407703038E+04  0.11407703038E+04  0.00000000000E+00 0.  1.
         23    2    1    2    0    0  0.25300446347E+02 -0.11337576506E+04  0.17113683347E+03  0.11505608642E+04  0.91956313602E+02 0.  0.
         13    1    3    3    0    0 -0.16240794515E+02 -0.90980630711E+03  0.14069605348E+03  0.92076417140E+03  0.00000000000E+00 0. -1.
        -13    1    3    3    0    0  0.41541240862E+02 -0.22395134351E+03  0.30440779991E+02  0.22979669284E+03  0.00000000000E+00 0.  1.
         22    1    1    2    0    0 -0.25300446347E+02  0.11337576506E+04 -0.15722903156E+03  0.11448875453E+04  0.00000000000E+00 0. -1.
<mgrwt>
<rscale>  0 0.22954063E+04</rscale>
<asrwt>0</asrwt>
<pdfrwt beam="1">  1        3 0.17764278E+00 0.22954063E+04</pdfrwt>
<pdfrwt beam="2">  1       -3 0.17550312E+00 0.22954063E+04</pdfrwt>
<totfact> 0.10328152E-01</totfact>
</mgrwt>
</event>
<event>
 6    1  0.1773638E-005  0.4126638E+04  0.7818608E-02  0.7979476E-01
          2   -1    0    0  501    0  0.00000000000E+00  0.00000000000E+00  0.12653815962E+04  0.12653815962E+04  0.00000000000E+00 0. -1.
         -2   -1    0    0    0  501 -0.00000000000E+00 -0.00000000000E+00 -0.33644277238E+04  0.33644277238E+04  0.00000000000E+00 0.  1.
         23    2    1    2    0    0 -0.13581713509E+04  0.12572487202E+04 -0.20707830195E+04  0.27788359096E+04  0.92102856396E+02 0.  0.
         11    1    3    3    0    0 -0.67632632666E+03  0.66864464080E+03 -0.11141744423E+04  0.14648848568E+04  0.00000000000E+00 0. -1.
        -11    1    3    3    0    0 -0.68184502420E+03  0.58860407937E+03 -0.95660857725E+03  0.13139510529E+04  0.00000000000E+00 0.  1.
         22    1    1    2    0    0  0.13581713509E+04 -0.12572487202E+04 -0.28263108036E+02  0.18509734104E+04  0.00000000000E+00 0. -1.
<mgrwt>
<rscale>  0 0.41266378E+04</rscale>
<asrwt>0</asrwt>
<pdfrwt beam="1">  1        2 0.19467409E+00 0.41266378E+04</pdfrwt>
<pdfrwt beam="2">  1       -2 0.51760426E+00 0.41266378E+04</pdfrwt>
<totfact> 0.17493693E-02</totfact>
</mgrwt>
</event>
<event>
 6    1  0.1773638E-005  0.3315461E+04  0.7818608E-02  0.8158972E-01
          1   -1    0    0  501    0  0.00000000000E+00  0.00000000000E+00  0.27820320335E+04  0.27820320335E+04  0.00000000000E+00 0. -1.
         -1   -1    0    0    0  501 -0.00000000000E+00 -0.00000000000E+00 -0.98779241134E+03  0.98779241134E+03  0.00000000000E+00 0.  1.
         23    2    1    2    0    0  0.14269764602E+04 -0.66683961680E+03  0.14812962631E+04  0.21639382601E+04  0.86332391264E+02 0.  0.
         13    1    3    3    0    0  0.69441086827E+03 -0.27725533941E+03  0.70913030161E+03  0.10305060708E+04  0.00000000000E+00 0. -1.
        -13    1    3    3    0    0  0.73256559193E+03 -0.38958427739E+03  0.77216596152E+03  0.11334321893E+04  0.00000000000E+00 0.  1.
         22    1    1    2    0    0 -0.14269764602E+04  0.66683961680E+03  0.31294335906E+03  0.16058861848E+04  0.00000000000E+00 0. -1.
<mgrwt>
<rscale>  0 0.33154608E+04</rscale>
<asrwt>0</asrwt>
<pdfrwt beam="1">  1        1 0.42800492E+00 0.33154608E+04</pdfrwt>
<pdfrwt beam="2">  1       -1 0.15196806E+00 0.33154608E+04</pdfrwt>
<totfact> 0.23938702E-01</totfact>
</mgrwt>
</event>
<event>
 6    1  0.1869251E-005  0.2218756E+04  0.7818608E-02  0.8510662E-01
         -1   -1    0    0    0  501 -0.00000000000E+00  0.00000000000E+00  0.62068961793E+03  0.62068961793E+03  0.00000000000E+00 0.  1.
          1   -1    0    0  501    0  0.00000000000E+00 -0.00000000000E+00 -0.19828258776E+04  0.19828258776E+04  0.00000000000E+00 0. -1.
         23    2    1    2    0    0  0.10910441369E+04  0.18770786322E+03 -0.64547464967E+03  0.12847223298E+04  0.90897693586E+02 0.  0.
         11    1    3    3    0    0  0.26072126629E+03  0.33007367172E+02 -0.11152332551E+03  0.28548645697E+03  0.00000000000E+00 0. -1.
        -11    1    3    3    0    0  0.83032287065E+03  0.15470049604E+03 -0.53395132416E+03  0.99923587285E+03  0.00000000000E+00 0.  1.
         22    1    1    2    0    0 -0.10910441369E+04 -0.18770786322E+03 -0.71666160998E+03  0.13187931657E+04  0.00000000000E+00 0. -1.
<mgrwt>
<rscale>  0 0.22187559E+04</rscale>
<asrwt>0</asrwt>
<pdfrwt beam="1">  1        1 0.30505013E+00 0.22187559E+04</pdfrwt>
<pdfrwt beam="2">  1       -1 0.95490711E-01 0.22187559E+04</pdfrwt>
<totfact> 0.29485233E+00</totfact>
</mgrwt>
</event>
<event>
 6    1  0.1773638E-005  0.2695655E+04  0.7818608E-02  0.8336416E-01
          1   -1    0    0  501    0  0.00000000000E+00  0.00000000000E+00  0.10538070641E+04  0.10538070641E+04  0.00000000000E+00 0. -1.
         -1   -1    0    0    0  501 -0.00000000000E+00 -0.00000000000E+00 -0.17238821723E+04  0.17238821723E+04  0.00000000000E+00 0.  1.
         23    2    1    2    0    0 -0.11294512295E+04 -0.42587328978E+03  0.27894790836E+03  0.12422177047E+04  0.90910677936E+02 0.  0.
         11    1    3    3    0    0 -0.27218874892E+03 -0.13591476534E+03  0.45495403373E+02  0.30761887167E+03  0.00000000000E+00 0.  1.
        -11    1    3    3    0    0 -0.85726248060E+03 -0.28995852444E+03  0.23345250498E+03  0.93459883299E+03  0.00000000000E+00 0. -1.
         22    1    1    2    0    0  0.11294512295E+04  0.42587328978E+03 -0.94902301657E+03  0.15354715317E+04  0.00000000000E+00 0.  1.
<mgrwt>
<rscale>  0 0.26956552E+04</rscale>
<asrwt>0</asrwt>
<pdfrwt beam="1">  1        1 0.16212417E+00 0.26956552E+04</pdfrwt>
<pdfrwt beam="2">  1       -1 0.26521264E+00 0.26956552E+04</pdfrwt>
<totfact> 0.66638745E-01</totfact>
</mgrwt>
</event>
<event>
 6    1  0.1773638E-005  0.3872198E+04  0.7818608E-02  0.8030836E-01
         -2   -1    0    0    0  501 -0.00000000000E+00  0.00000000000E+00  0.26021867524E+04  0.26021867524E+04  0.00000000000E+00 0. -1.
          2   -1    0    0  501    0  0.00000000000E+00 -0.00000000000E+00 -0.14405114246E+04  0.14405114246E+04  0.00000000000E+00 0.  1.
         23    2    1    2    0    0  0.16204782831E+04 -0.26343364822E+03  0.16503253693E+04  0.23297691020E+04  0.94356192165E+02 0.  0.
         11    1    3    3    0    0  0.11651415399E+04 -0.22930974562E+03  0.11701556071E+04  0.16671538358E+04  0.00000000000E+00 0. -1.
        -11    1    3    3    0    0  0.45533674324E+03 -0.34123902596E+02  0.48016976214E+03  0.66261526616E+03  0.00000000000E+00 0.  1.
         22    1    1    2    0    0 -0.16204782831E+04  0.26343364822E+03 -0.48865004141E+03  0.17129290750E+04  0.00000000000E+00 0.  1.
<mgrwt>
<rscale>  0 0.38721982E+04</rscale>
<asrwt>0</asrwt>
<pdfrwt beam="1">  1        2 0.22161714E+00 0.38721982E+04</pdfrwt>
<pdfrwt beam="2">  1       -2 0.40033642E+00 0.38721982E+04</pdfrwt>
<totfact> 0.80709840E-02</totfact>
</mgrwt>
</event>
<event>
 6    1  0.1773638E-005  0.1325618E+04  0.7818608E-02  0.9009493E-01
         -1   -1    0    0    0  501 -0.00000000000E+00  0.00000000000E+00  0.14013165887E+04  0.14013165887E+04  0.00000000000E+00 0. -1.
          1   -1    0    0  501    0  0.00000000000E+00 -0.00000000000E+00 -0.31350216975E+03  0.31350216975E+03  0.00000000000E+00 0.  1.
         23    2    1    2    0    0 -0.53217564828E+03 -0.35587603271E+03  0.34061924491E+03  0.73086789617E+03  0.91037027440E+02 0.  0.
         13    1    3    3    0    0 -0.15667497317E+03 -0.10723065774E+03  0.14941163792E+03  0.24159738972E+03  0.00000000000E+00 0.  1.
        -13    1    3    3    0    0 -0.37550067511E+03 -0.24864537497E+03  0.19120760700E+03  0.48927050644E+03  0.00000000000E+00 0. -1.
         22    1    1    2    0    0  0.53217564828E+03  0.35587603271E+03  0.74719517404E+03  0.98395086228E+03  0.00000000000E+00 0. -1.
<mgrwt>
<rscale>  0 0.13256180E+04</rscale>
<asrwt>0</asrwt>
<pdfrwt beam="1">  1        1 0.48231104E-01 0.13256180E+04</pdfrwt>
<pdfrwt beam="2">  1       -1 0.21558716E+00 0.13256180E+04</pdfrwt>
<totfact> 0.95665790E+00</totfact>
</mgrwt>
</event>
<event>
 6    1  0.1773638E-005  0.2546199E+04  0.7818608E-02  0.8386709E-01
         -1   -1    0    0    0  501 -0.00000000000E+00  0.00000000000E+00  0.99471807141E+03  0.99471807141E+03  0.00000000000E+00 0.  1.
          1   -1    0    0  501    0  0.00000000000E+00 -0.00000000000E+00 -0.16293888658E+04  0.16293888658E+04  0.00000000000E+00 0. -1.
         23    2    1    2    0    0  0.96513245275E+03 -0.24560640498E+03  0.49689380239E+03  0.11167113043E+04  0.91310069079E+02 0.  0.
         11    1    3    3    0    0  0.16075679155E+03 -0.48801384619E+02  0.12243529170E+03  0.20788150910E+03  0.00000000000E+00 0. -1.
        -11    1    3    3    0    0  0.80437566120E+03 -0.19680502036E+03  0.37445851069E+03  0.90882979517E+03  0.00000000000E+00 0.  1.
         22    1    1    2    0    0 -0.96513245275E+03  0.24560640498E+03 -0.11315645968E+04  0.15073956329E+04  0.00000000000E+00 0. -1.
<mgrwt>
<rscale>  0 0.25461992E+04</rscale>
<asrwt>0</asrwt>
<pdfrwt beam="1">  1        1 0.25067521E+00 0.25461992E+04</pdfrwt>
<pdfrwt beam="2">  1       -1 0.15303355E+00 0.25461992E+04</pdfrwt>
<totfact> 0.15576311E+00</totfact>
</mgrwt>
</event>
<event>
 6    1  0.1773638E-005  0.8120424E+03  0.7818608E-02  0.9542748E-01
         -1   -1    0    0    0  501 -0.00000000000E+00  0.00000000000E+00  0.29668792410E+03  0.29668792410E+03  0.00000000000E+00 0.  1.
          1   -1    0    0  501    0  0.00000000000E+00 -0.00000000000E+00 -0.55564521926E+03  0.55564521926E+03  0.00000000000E+00 0. -1.
         23    2    1    2    0    0  0.76667306828E+01  0.29364935256E+03 -0.41780559994E+03  0.51838478665E+03  0.88727372689E+02 0.  0.
         13    1    3    3    0    0  0.45882458894E+02  0.19856992539E+03 -0.29282960042E+03  0.35676937955E+03  0.00000000000E+00 0.  1.
        -13    1    3    3    0    0 -0.38215728211E+02  0.95079427166E+02 -0.12497599953E+03  0.16161540709E+03  0.00000000000E+00 0. -1.
         22    1    1    2    0    0 -0.76667306828E+01 -0.29364935256E+03  0.15884830479E+03  0.33394835672E+03  0.00000000000E+00 0.  1.
<mgrwt>
<rscale>  0 0.81204243E+03</rscale>
<asrwt>0</asrwt>
<pdfrwt beam="1">  1        1 0.85483879E-01 0.81204243E+03</pdfrwt>
<pdfrwt beam="2">  1       -1 0.45644296E-01 0.81204243E+03</pdfrwt>
<totfact> 0.18429059E+02</totfact>
</mgrwt>
</event>
<event>
 6    1  0.1773638E-005  0.2902331E+04  0.7818608E-02  0.8272184E-01
          1   -1    0    0  501    0  0.00000000000E+00  0.00000000000E+00  0.33905991712E+04  0.33905991712E+04  0.00000000000E+00 0. -1.
         -1   -1    0    0    0  501 -0.00000000000E+00 -0.00000000000E+00 -0.62109402561E+03  0.62109402561E+03  0.00000000000E+00 0.  1.
         23    2    1    2    0    0 -0.73511024521E+03 -0.72810603689E+03 -0.17464049432E+02  0.10388624301E+04  0.91677053151E+02 0.  0.
         11    1    3    3    0    0 -0.45243124310E+03 -0.40707849662E+03  0.24208316263E+02  0.60909192633E+03  0.00000000000E+00 0. -1.
        -11    1    3    3    0    0 -0.28267900212E+03 -0.32102754027E+03 -0.41672365695E+02  0.42977050377E+03  0.00000000000E+00 0.  1.
         22    1    1    2    0    0  0.73511024521E+03  0.72810603689E+03  0.27869691951E+04  0.29728307668E+04  0.00000000000E+00 0. -1.
<mgrwt>
<rscale>  0 0.29023307E+04</rscale>
<asrwt>0</asrwt>
<pdfrwt beam="1">  1        1 0.52163063E+00 0.29023307E+04</pdfrwt>
<pdfrwt beam="2">  1       -1 0.95552929E-01 0.29023307E+04</pdfrwt>
<totfact> 0.27577153E-01</totfact>
</mgrwt>
</event>
<event>
 6    1  0.1773638E-005  0.2202666E+04  0.7818608E-02  0.8517319E-01
          1   -1    0    0  501    0  0.00000000000E+00  0.00000000000E+00  0.10596218898E+04  0.10596218898E+04  0.00000000000E+00 0. -1.
         -1   -1    0    0    0  501 -0.00000000000E+00 -0.00000000000E+00 -0.11446862591E+04  0.11446862591E+04  0.00000000000E+00 0.  1.
         23    2    1    2    0    0 -0.97667603194E+03 -0.17368566152E+03 -0.51694749195E+03  0.11223720084E+04  0.91768379539E+02 0.  0.
         11    1    3    3    0    0 -0.18931661375E+03 -0.24521005829E+02 -0.14028452273E+03  0.23690041639E+03  0.00000000000E+00 0.  1.
        -11    1    3    3    0    0 -0.78735941819E+03 -0.14916465569E+03 -0.37666296921E+03  0.88547159203E+03  0.00000000000E+00 0. -1.
         22    1    1    2    0    0  0.97667603194E+03  0.17368566152E+03  0.43188312270E+03  0.10819361405E+04  0.00000000000E+00 0. -1.
<mgrwt>
<rscale>  0 0.22026662E+04</rscale>
<asrwt>0</asrwt>
<pdfrwt beam="1">  1        1 0.16301875E+00 0.22026662E+04</pdfrwt>
<pdfrwt beam="2">  1       -1 0.17610558E+00 0.22026662E+04</pdfrwt>
<totfact> 0.27538946E+00</totfact>
</mgrwt>
</event>
<event>
 6    1  0.1773638E-005  0.2365439E+04  0.7818608E-02  0.8452557E-01
         -1   -1    0    0    0  501 -0.00000000000E+00  0.00000000000E+00  0.93996743889E+03  0.93996743889E+03  0.00000000000E+00 0.  1.
          1   -1    0    0  501    0  0.00000000000E+00 -0.00000000000E+00 -0.14881637181E+04  0.14881637181E+04  0.00000000000E+00 0. -1.
         23    2    1    2    0    0  0.19307098378E+03 -0.73333549092E+03 -0.12038250581E+04  0.14256809374E+04  0.91181235167E+02 0.  0.
         11    1    3    3    0    0  0.16532162602E+03 -0.55154122848E+03 -0.97241267128E+03  0.11300952925E+04  0.00000000000E+00 0. -1.
        -11    1    3    3    0    0  0.27749357765E+02 -0.18179426244E+03 -0.23141238686E+03  0.29558564495E+03  0.00000000000E+00 0.  1.
         22    1    1    2    0    0 -0.19307098378E+03  0.73333549092E+03  0.65562877892E+03  0.10024502196E+04  0.00000000000E+00 0.  1.
<mgrwt>
<rscale>  0 0.23654390E+04</rscale>
<asrwt>0</asrwt>
<pdfrwt beam="1">  1        1 0.22894826E+00 0.23654390E+04</pdfrwt>
<pdfrwt beam="2">  1       -1 0.14461038E+00 0.23654390E+04</pdfrwt>
<totfact> 0.23059338E+00</totfact>
</mgrwt>
</event>
<event>
 6    1  0.1773638E-005  0.2193895E+04  0.7818608E-02  0.8520974E-01
          2   -1    0    0  501    0  0.00000000000E+00  0.00000000000E+00  0.14422530691E+04  0.14422530691E+04  0.00000000000E+00 0. -1.
         -2   -1    0    0    0  501 -0.00000000000E+00 -0.00000000000E+00 -0.83431496410E+03  0.83431496410E+03  0.00000000000E+00 0.  1.
         23    2    1    2    0    0 -0.23574036856E+03 -0.62046759472E+03  0.12081707472E+04  0.13816754239E+04  0.93791604733E+02 0.  0.
         11    1    3    3    0    0 -0.92828253800E+02 -0.26121734686E+03  0.60099913331E+03  0.66185462546E+03  0.00000000000E+00 0.  1.
        -11    1    3    3    0    0 -0.14291211476E+03 -0.35925024787E+03  0.60717161387E+03  0.71982079841E+03  0.00000000000E+00 0. -1.
         22    1    1    2    0    0  0.23574036856E+03  0.62046759472E+03 -0.60023264219E+03  0.89489260932E+03  0.00000000000E+00 0.  1.
<mgrwt>
<rscale>  0 0.21938945E+04</rscale>
<asrwt>0</asrwt>
<pdfrwt beam="1">  1        2 0.22188509E+00 0.21938945E+04</pdfrwt>
<pdfrwt beam="2">  1       -2 0.12835615E+00 0.21938945E+04</pdfrwt>
<totfact> 0.56155553E+00</totfact>
</mgrwt>
</event>
<event>
 6    1  0.1773638E-005  0.2297236E+04  0.7818608E-02  0.8479012E-01
          1   -1    0    0  501    0  0.00000000000E+00  0.00000000000E+00  0.73018407122E+03  0.73018407122E+03  0.00000000000E+00 0. -1.
         -1   -1    0    0    0  501 -0.00000000000E+00 -0.00000000000E+00 -0.18068361867E+04  0.18068361867E+04  0.00000000000E+00 0.  1.
         23    2    1    2    0    0  0.44738829420E+03  0.68372156077E+03 -0.14277715269E+04  0.16476855068E+04  0.93298111812E+02 0.  0.
         11    1    3    3    0    0  0.31362046000E+03  0.50326676577E+03 -0.95248351444E+03  0.11219893385E+04  0.00000000000E+00 0.  1.
        -11    1    3    3    0    0  0.13376783420E+03  0.18045479500E+03 -0.47528801249E+03  0.52569616826E+03  0.00000000000E+00 0. -1.
         22    1    1    2    0    0 -0.44738829420E+03 -0.68372156077E+03  0.35111941147E+03  0.88933475113E+03  0.00000000000E+00 0. -1.
<mgrwt>
<rscale>  0 0.22972357E+04</rscale>
<asrwt>0</asrwt>
<pdfrwt beam="1">  1        1 0.11233601E+00 0.22972357E+04</pdfrwt>
<pdfrwt beam="2">  1       -1 0.27797480E+00 0.22972357E+04</pdfrwt>
<totfact> 0.10590575E+00</totfact>
</mgrwt>
</event>
<event>
 6    1  0.1773638E-005  0.2217678E+04  0.7818608E-02  0.8511106E-01
         -2   -1    0    0    0  501 -0.00000000000E+00  0.00000000000E+00  0.42837627887E+03  0.42837627887E+03  0.00000000000E+00 0. -1.
          2   -1    0    0  501    0  0.00000000000E+00 -0.00000000000E+00 -0.28701948416E+04  0.28701948416E+04  0.00000000000E+00 0.  1.
         23    2    1    2    0    0  0.94381820631E+03 -0.57384171225E+03 -0.11159711828E+04  0.15728949074E+04  0.92301634939E+02 0.  0.
         13    1    3    3    0    0  0.41986761877E+03 -0.29426323981E+03 -0.47212534404E+03  0.69698063968E+03  0.00000000000E+00 0. -1.
        -13    1    3    3    0    0  0.52395058754E+03 -0.27957847244E+03 -0.64384583871E+03  0.87591426776E+03  0.00000000000E+00 0.  1.
         22    1    1    2    0    0 -0.94381820631E+03  0.57384171225E+03 -0.13258473800E+04  0.17256762131E+04  0.00000000000E+00 0. -1.
<mgrwt>
<rscale>  0 0.22176775E+04</rscale>
<asrwt>0</asrwt>
<pdfrwt beam="1">  1        2 0.44156843E+00 0.22176775E+04</pdfrwt>
<pdfrwt beam="2">  1       -2 0.65904045E-01 0.22176775E+04</pdfrwt>
<totfact> 0.40562512E+00</totfact>
</mgrwt>
</event>
<event>
 6    1  0.1773638E-005  0.1937746E+04  0.7818608E-02  0.8636293E-01
          1   -1    0    0  501    0  0.00000000000E+00  0.00000000000E+00  0.74249990071E+03  0.74249990071E+03  0.00000000000E+00 0. -1.
         -1   -1    0    0    0  501 -0.00000000000E+00 -0.00000000000E+00 -0.12642626324E+04  0.12642626324E+04  0.00000000000E+00 0.  1.
         23    2    1    2    0    0 -0.48240736770E+03  0.12108991828E+03  0.59703354383E+03  0.78239137091E+03  0.91145861614E+02 0.  0.
         13    1    3    3    0    0 -0.29469723932E+03  0.11893537889E+03  0.36638145313E+03  0.48500253238E+03  0.00000000000E+00 0. -1.
        -13    1    3    3    0    0 -0.18771012838E+03  0.21545393835E+01  0.23065209070E+03  0.29738883853E+03  0.00000000000E+00 0.  1.
         22    1    1    2    0    0  0.48240736770E+03 -0.12108991828E+03 -0.11187962755E+04  0.12243711622E+04  0.00000000000E+00 0.  1.
<mgrwt>
<rscale>  0 0.19377460E+04</rscale>
<asrwt>0</asrwt>
<pdfrwt beam="1">  1        1 0.11423075E+00 0.19377460E+04</pdfrwt>
<pdfrwt beam="2">  1       -1 0.19450194E+00 0.19377460E+04</pdfrwt>
<totfact> 0.38124285E+00</totfact>
</mgrwt>
</event>
<event>
 6    1  0.1773638E-005  0.1792861E+04  0.7818608E-02  0.8710105E-01
         -2   -1    0    0    0  501 -0.00000000000E+00  0.00000000000E+00  0.91883839924E+03  0.91883839924E+03  0.00000000000E+00 0.  1.
          2   -1    0    0  501    0  0.00000000000E+00 -0.00000000000E+00 -0.87456952893E+03  0.87456952893E+03  0.00000000000E+00 0. -1.
         23    2    1    2    0    0 -0.12218795760E+03 -0.17065128605E+03  0.89101510244E+03  0.92103705518E+03  0.10173291417E+03 0.  0.
         13    1    3    3    0    0 -0.64235643699E+02 -0.16182122691E+03  0.63901644630E+03  0.66230985652E+03  0.00000000000E+00 0. -1.
        -13    1    3    3    0    0 -0.57952313901E+02 -0.88300591389E+01  0.25199865614E+03  0.25872719866E+03  0.00000000000E+00 0.  1.
         22    1    1    2    0    0  0.12218795760E+03  0.17065128605E+03 -0.84674623213E+03  0.87237087299E+03  0.00000000000E+00 0. -1.
<mgrwt>
<rscale>  0 0.17928615E+04</rscale>
<asrwt>0</asrwt>
<pdfrwt beam="1">  1        2 0.13454916E+00 0.17928615E+04</pdfrwt>
<pdfrwt beam="2">  1       -2 0.14135975E+00 0.17928615E+04</pdfrwt>
<totfact> 0.10094047E+01</totfact>
</mgrwt>
</event>
<event>
 6    1  0.1773638E-005  0.1661645E+04  0.7818608E-02  0.8783547E-01
          2   -1    0    0  501    0  0.00000000000E+00  0.00000000000E+00  0.93452965835E+03  0.93452965835E+03  0.00000000000E+00 0. -1.
         -2   -1    0    0    0  501 -0.00000000000E+00 -0.00000000000E+00 -0.73862416806E+03  0.73862416806E+03  0.00000000000E+00 0.  1.
         23    2    1    2    0    0 -0.74880054460E+03  0.75121510201E+02 -0.25018202524E+03  0.79831694538E+03  0.91506298311E+02 0.  0.
         11    1    3    3    0    0 -0.52007199716E+03  0.91914919957E+02 -0.15944526752E+03  0.55167565478E+03  0.00000000000E+00 0.  1.
        -11    1    3    3    0    0 -0.22872854744E+03 -0.16793409756E+02 -0.90736757719E+02  0.24664129060E+03  0.00000000000E+00 0. -1.
         22    1    1    2    0    0  0.74880054460E+03 -0.75121510201E+02  0.44608751553E+03  0.87483688103E+03  0.00000000000E+00 0.  1.
<mgrwt>
<rscale>  0 0.16616452E+04</rscale>
<asrwt>0</asrwt>
<pdfrwt beam="1">  1        2 0.14377379E+00 0.16616452E+04</pdfrwt>
<pdfrwt beam="2">  1       -2 0.11363449E+00 0.16616452E+04</pdfrwt>
<totfact> 0.16107705E+01</totfact>
</mgrwt>
</event>
<event>
 6    1  0.1773638E-005  0.2296869E+04  0.7818608E-02  0.8479157E-01
         -2   -1    0    0    0  501 -0.00000000000E+00  0.00000000000E+00  0.73467060484E+03  0.73467060484E+03  0.00000000000E+00 0. -1.
          2   -1    0    0  501    0  0.00000000000E+00 -0.00000000000E+00 -0.17952281235E+04  0.17952281235E+04  0.00000000000E+00 0.  1.
         23    2    1    2    0    0 -0.94499480726E+03  0.54270312463E+02  0.18211469240E+03  0.96778647991E+03  0.86512755930E+02 0.  0.
         13    1    3    3    0    0 -0.22417823557E+03 -0.23486350837E+02  0.37422370719E+02  0.22849053331E+03  0.00000000000E+00 0.  1.
        -13    1    3    3    0    0 -0.72081657169E+03  0.77756663301E+02  0.14469232168E+03  0.73929594660E+03  0.00000000000E+00 0. -1.
         22    1    1    2    0    0  0.94499480726E+03 -0.54270312463E+02 -0.12426722110E+04  0.15621122484E+04  0.00000000000E+00 0.  1.
<mgrwt>
<rscale>  0 0.22968686E+04</rscale>
<asrwt>0</asrwt>
<pdfrwt beam="1">  1        2 0.27618894E+00 0.22968686E+04</pdfrwt>
<pdfrwt beam="2">  1       -2 0.11302625E+00 0.22968686E+04</pdfrwt>
<totfact> 0.48427818E+00</totfact>
</mgrwt>
</event>
<event>
 6    1  0.1773638E-005  0.1928809E+04  0.7818608E-02  0.8640648E-01
         -2   -1    0    0    0  501 -0.00000000000E+00  0.00000000000E+00  0.25565731877E+03  0.25565731877E+03  0.00000000000E+00 0.  1.
          2   -1    0    0  501    0  0.00000000000E+00 -0.00000000000E+00 -0.36379808866E+04  0.36379808866E+04  0.00000000000E+00 0. -1.
         23    2    1    2    0    0  0.34240796087E+03 -0.59748858281E+03 -0.33972739835E+03  0.77408258495E+03  0.97741111548E+02 0.  0.
         13    1    3    3    0    0  0.22613899703E+03 -0.31255862989E+03 -0.21817976920E+03  0.44320892905E+03  0.00000000000E+00 0. -1.
        -13    1    3    3    0    0  0.11626896383E+03 -0.28492995292E+03 -0.12154762914E+03  0.33087365590E+03  0.00000000000E+00 0.  1.
         22    1    1    2    0    0 -0.34240796087E+03  0.59748858281E+03 -0.30425961695E+04  0.31195556204E+04  0.00000000000E+00 0. -1.
<mgrwt>
<rscale>  0 0.19288094E+04</rscale>
<asrwt>0</asrwt>
<pdfrwt beam="1">  1        2 0.55968938E+00 0.19288094E+04</pdfrwt>
<pdfrwt beam="2">  1       -2 0.39331894E-01 0.19288094E+04</pdfrwt>
<totfact> 0.37306195E+00</totfact>
</mgrwt>
</event>
<event>
 6    1  0.1773638E-005  0.2093815E+04  0.7818608E-02  0.8563973E-01
         -1   -1    0    0    0  501 -0.00000000000E+00  0.00000000000E+00  0.90109563677E+03  0.90109563677E+03  0.00000000000E+00 0.  1.
          1   -1    0    0  501    0  0.00000000000E+00 -0.00000000000E+00 -0.12163135420E+04  0.12163135420E+04  0.00000000000E+00 0. -1.
         23    2    1    2    0    0 -0.71905955699E+01 -0.98265545485E+03 -0.51727415218E+03  0.11141693398E+04  0.90207104283E+02 0.  0.
         11    1    3    3    0    0  0.25123263415E+02 -0.80029822221E+03 -0.43863067101E+03  0.91296510798E+03  0.00000000000E+00 0. -1.
        -11    1    3    3    0    0 -0.32313858985E+02 -0.18235723264E+03 -0.78643481168E+02  0.20120423184E+03  0.00000000000E+00 0.  1.
         22    1    1    2    0    0  0.71905955699E+01  0.98265545485E+03  0.20205624691E+03  0.10032398390E+04  0.00000000000E+00 0. -1.
<mgrwt>
<rscale>  0 0.20938145E+04</rscale>
<asrwt>0</asrwt>
<pdfrwt beam="1">  1        1 0.18712516E+00 0.20938145E+04</pdfrwt>
<pdfrwt beam="2">  1       -1 0.13863010E+00 0.20938145E+04</pdfrwt>
<totfact> 0.41146039E+00</totfact>
</mgrwt>
</event>
<event>
 6    1  0.1773638E-005  0.1423407E+04  0.7818608E-02  0.8937047E-01
          2   -1    0    0  501    0  0.00000000000E+00  0.00000000000E+00  0.88239954094E+03  0.88239954094E+03  0.00000000000E+00 0. -1.
         -2   -1    0    0    0  501 -0.00000000000E+00 -0.00000000000E+00 -0.57402798477E+03  0.57402798477E+03  0.00000000000E+00 0.  1.
         23    2    1    2    0    0  0.65936420261E+03  0.25819277593E+03  0.12168901871E+03  0.72411950922E+03  0.90089872508E+02 0.  0.
         11    1    3    3    0    0  0.40580862699E+03  0.16744397163E+03  0.31551455439E+02  0.44012909437E+03  0.00000000000E+00 0.  1.
        -11    1    3    3    0    0  0.25355557562E+03  0.90748804295E+02  0.90137563272E+02  0.28399041485E+03  0.00000000000E+00 0. -1.
         22    1    1    2    0    0 -0.65936420261E+03 -0.25819277593E+03  0.18668253746E+03  0.73230801649E+03  0.00000000000E+00 0.  1.
<mgrwt>
<rscale>  0 0.14234072E+04</rscale>
<asrwt>0</asrwt>
<pdfrwt beam="1">  1        2 0.13575377E+00 0.14234072E+04</pdfrwt>
<pdfrwt beam="2">  1       -2 0.88311998E-01 0.14234072E+04</pdfrwt>
<totfact> 0.32342356E+01</totfact>
</mgrwt>
</event>
<event>
 6    1  0.1773638E-005  0.2678324E+04  0.7818608E-02  0.8342072E-01
          2   -1    0    0  501    0  0.00000000000E+00  0.00000000000E+00  0.36683897344E+04  0.36683897344E+04  0.00000000000E+00 0. -1.
         -2   -1    0    0    0  501 -0.00000000000E+00 -0.00000000000E+00 -0.48886722686E+03  0.48886722686E+03  0.00000000000E+00 0.  1.
         23    2    1    2    0    0  0.19218580082E+03 -0.12700548235E+04  0.10120400036E+04  0.16377421187E+04  0.89440717348E+02 0.  0.
         11    1    3    3    0    0  0.91136855398E+02 -0.72865723859E+03  0.52712222607E+03  0.90393868098E+03  0.00000000000E+00 0. -1.
        -11    1    3    3    0    0  0.10104894542E+03 -0.54139758490E+03  0.48491777752E+03  0.73380343776E+03  0.00000000000E+00 0.  1.
         22    1    1    2    0    0 -0.19218580082E+03  0.12700548235E+04  0.21674825040E+04  0.25195148426E+04  0.00000000000E+00 0. -1.
<mgrwt>
<rscale>  0 0.26783245E+04</rscale>
<asrwt>0</asrwt>
<pdfrwt beam="1">  1        2 0.56436763E+00 0.26783245E+04</pdfrwt>
<pdfrwt beam="2">  1       -2 0.75210345E-01 0.26783245E+04</pdfrwt>
<totfact> 0.85943068E-01</totfact>
</mgrwt>
</event>
<event>
 6    1  0.1773638E-005  0.2145550E+04  0.7818608E-02  0.8541439E-01
          2   -1    0    0  501    0  0.00000000000E+00  0.00000000000E+00  0.15053823942E+04  0.15053823942E+04  0.00000000000E+00 0.  1.
         -2   -1    0    0    0  501 -0.00000000000E+00 -0.00000000000E+00 -0.76448760868E+03  0.76448760868E+03  0.00000000000E+00 0. -1.
         23    2    1    2    0    0  0.75551808013E+03  0.75388547336E+03  0.46182341663E+03  0.11666784033E+04  0.93309979551E+02 0.  0.
         13    1    3    3    0    0  0.63205647846E+03  0.66811560322E+03  0.37625523355E+03  0.99370108786E+03  0.00000000000E+00 0. -1.
        -13    1    3    3    0    0  0.12346160166E+03  0.85769870135E+02  0.85568183078E+02  0.17297731546E+03  0.00000000000E+00 0.  1.
         22    1    1    2    0    0 -0.75551808013E+03 -0.75388547336E+03  0.27907136884E+03  0.11031915995E+04  0.00000000000E+00 0. -1.
<mgrwt>
<rscale>  0 0.21455500E+04</rscale>
<asrwt>0</asrwt>
<pdfrwt beam="1">  1        2 0.23159729E+00 0.21455500E+04</pdfrwt>
<pdfrwt beam="2">  1       -2 0.11761348E+00 0.21455500E+04</pdfrwt>
<totfact> 0.64597197E+00</totfact>
</mgrwt>
</event>
<event>
 6    1  0.1773638E-005  0.4801251E+04  0.7818608E-02  0.7859919E-01
          2   -1    0    0  501    0  0.00000000000E+00  0.00000000000E+00  0.28151606936E+04  0.28151606936E+04  0.00000000000E+00 0.  1.
         -2   -1    0    0    0  501 -0.00000000000E+00 -0.00000000000E+00 -0.20471307394E+04  0.20471307394E+04  0.00000000000E+00 0. -1.
         23    2    1    2    0    0 -0.14341538763E+04 -0.15877538036E+04 -0.71636840764E+03  0.22582180894E+04  0.92767247197E+02 0.  0.
         13    1    3    3    0    0 -0.10345706304E+04 -0.12058121304E+04 -0.53400676152E+03  0.16761510984E+04  0.00000000000E+00 0. -1.
        -13    1    3    3    0    0 -0.39958324587E+03 -0.38194167318E+03 -0.18236164612E+03  0.58206699105E+03  0.00000000000E+00 0.  1.
         22    1    1    2    0    0  0.14341538763E+04  0.15877538036E+04  0.14843983618E+04  0.26040733435E+04  0.00000000000E+00 0. -1.
<mgrwt>
<rscale>  0 0.48012507E+04</rscale>
<asrwt>0</asrwt>
<pdfrwt beam="1">  1        2 0.43310165E+00 0.48012507E+04</pdfrwt>
<pdfrwt beam="2">  1       -2 0.31494319E+00 0.48012507E+04</pdfrwt>
<totfact> 0.43069967E-02</totfact>
</mgrwt>
</event>
<event>
 6    1  0.1773638E-005  0.1534431E+04  0.7818608E-02  0.8861874E-01
         -1   -1    0    0    0  501 -0.00000000000E+00  0.00000000000E+00  0.74276997043E+03  0.74276997043E+03  0.00000000000E+00 0.  1.
          1   -1    0    0  501    0  0.00000000000E+00 -0.00000000000E+00 -0.79246583883E+03  0.79246583883E+03  0.00000000000E+00 0. -1.
         23    2    1    2    0    0 -0.52410225683E+03 -0.23294237077E+03  0.48067120139E+03  0.75406069930E+03  0.92830009524E+02 0.  0.
         11    1    3    3    0    0 -0.66539732886E+02 -0.48463712758E+02  0.10788597492E+03  0.13570427809E+03  0.00000000000E+00 0. -1.
        -11    1    3    3    0    0 -0.45756252395E+03 -0.18447865801E+03  0.37278522647E+03  0.61835642121E+03  0.00000000000E+00 0.  1.
         22    1    1    2    0    0  0.52410225683E+03  0.23294237077E+03 -0.53036706978E+03  0.78117510997E+03  0.00000000000E+00 0. -1.
<mgrwt>
<rscale>  0 0.15344313E+04</rscale>
<asrwt>0</asrwt>
<pdfrwt beam="1">  1        1 0.12191782E+00 0.15344313E+04</pdfrwt>
<pdfrwt beam="2">  1       -1 0.11427230E+00 0.15344313E+04</pdfrwt>
<totfact> 0.15096806E+01</totfact>
</mgrwt>
</event>
<event>
 6    1  0.1773638E-005  0.3304831E+04  0.7818608E-02  0.8161667E-01
          2   -1    0    0  501    0  0.00000000000E+00  0.00000000000E+00  0.40040321175E+04  0.40040321175E+04  0.00000000000E+00 0. -1.
         -2   -1    0    0    0  501 -0.00000000000E+00 -0.00000000000E+00 -0.68193170165E+03  0.68193170165E+03  0.00000000000E+00 0.  1.
         23    2    1    2    0    0  0.35292444981E+03 -0.39058199279E+03  0.38813219508E+04  0.39179542583E+04  0.92712049427E+02 0.  0.
         13    1    3    3    0    0  0.12649468617E+03 -0.78306852120E+02  0.10672494705E+04  0.10775686990E+04  0.00000000000E+00 0.  1.
        -13    1    3    3    0    0  0.22642976364E+03 -0.31227514067E+03  0.28140724803E+04  0.28403855593E+04  0.00000000000E+00 0. -1.
         22    1    1    2    0    0 -0.35292444981E+03  0.39058199279E+03 -0.55922153496E+03  0.76800956083E+03  0.00000000000E+00 0.  1.
<mgrwt>
<rscale>  0 0.33048307E+04</rscale>
<asrwt>0</asrwt>
<pdfrwt beam="1">  1        2 0.61600493E+00 0.33048307E+04</pdfrwt>
<pdfrwt beam="2">  1       -2 0.10491257E+00 0.33048307E+04</pdfrwt>
<totfact> 0.20836548E-01</totfact>
</mgrwt>
</event>
<event>
 6    1  0.1773638E-005  0.1178106E+04  0.7818608E-02  0.9132239E-01
         -2   -1    0    0    0  501 -0.00000000000E+00  0.00000000000E+00  0.33171015509E+03  0.33171015509E+03  0.00000000000E+00 0.  1.
          2   -1    0    0  501    0  0.00000000000E+00 -0.00000000000E+00 -0.10460438274E+04  0.10460438274E+04  0.00000000000E+00 0. -1.
         23    2    1    2    0    0  0.30012976846E+03 -0.37717048382E+03  0.29463831091E+02  0.49143001359E+03  0.91103727346E+02 0.  0.
         13    1    3    3    0    0  0.16728516425E+03 -0.22468980050E+03 -0.27109428622E+02  0.28143339131E+03  0.00000000000E+00 0.  1.
        -13    1    3    3    0    0  0.13284460421E+03 -0.15248068332E+03  0.56573259713E+02  0.20999662228E+03  0.00000000000E+00 0. -1.
         22    1    1    2    0    0 -0.30012976846E+03  0.37717048382E+03 -0.74379750335E+03  0.88632396886E+03  0.00000000000E+00 0. -1.
<mgrwt>
<rscale>  0 0.11781059E+04</rscale>
<asrwt>0</asrwt>
<pdfrwt beam="1">  1        2 0.16092982E+00 0.11781059E+04</pdfrwt>
<pdfrwt beam="2">  1       -2 0.51032333E-01 0.11781059E+04</pdfrwt>
<totfact> 0.84413620E+01</totfact>
</mgrwt>
</event>
<event>
 6    1  0.1773638E-005  0.1177756E+04  0.7818608E-02  0.9132552E-01
          1   -1    0    0  501    0  0.00000000000E+00  0.00000000000E+00  0.65818372421E+03  0.65818372421E+03  0.00000000000E+00 0. -1.
         -1   -1    0    0    0  501 -0.00000000000E+00 -0.00000000000E+00 -0.52687024067E+03  0.52687024067E+03  0.00000000000E+00 0.  1.
         23    2    1    2    0    0  0.42572306372E+03 -0.38419799119E+03 -0.56379808022E+02  0.58166603401E+03  0.79425870819E+02 0.  0.
         11    1    3    3    0    0  0.11166520263E+03 -0.13431272536E+03 -0.44040421662E+02  0.18013490615E+03  0.00000000000E+00 0. -1.
        -11    1    3    3    0    0  0.31405786109E+03 -0.24988526582E+03 -0.12339386360E+02  0.40153112786E+03  0.00000000000E+00 0.  1.
         22    1    1    2    0    0 -0.42572306372E+03  0.38419799119E+03  0.18769329157E+03  0.60338793087E+03  0.00000000000E+00 0. -1.
<mgrwt>
<rscale>  0 0.11777562E+04</rscale>
<asrwt>0</asrwt>
<pdfrwt beam="1">  1        1 0.10125903E+00 0.11777562E+04</pdfrwt>
<pdfrwt beam="2">  1       -1 0.81056960E-01 0.11777562E+04</pdfrwt>
<totfact> 0.44970132E+01</totfact>
</mgrwt>
</event>
<event>
 6    1  0.1773638E-005  0.1592897E+04  0.7818608E-02  0.8824924E-01
          2   -1    0    0  501    0  0.00000000000E+00  0.00000000000E+00  0.20500574560E+04  0.20500574560E+04  0.00000000000E+00 0. -1.
         -2   -1    0    0    0  501 -0.00000000000E+00 -0.00000000000E+00 -0.30942066059E+03  0.30942066059E+03  0.00000000000E+00 0.  1.
         23    2    1    2    0    0  0.26016697120E+03  0.50296438004E+03  0.49231680766E+02  0.57579897439E+03  0.91981954877E+02 0.  0.
         13    1    3    3    0    0  0.19677411865E+03  0.34791628497E+03 -0.49794588350E+01  0.39973815195E+03  0.00000000000E+00 0. -1.
        -13    1    3    3    0    0  0.63392852553E+02  0.15504809507E+03  0.54211139601E+02  0.17606082243E+03  0.00000000000E+00 0.  1.
         22    1    1    2    0    0 -0.26016697120E+03 -0.50296438004E+03  0.16914051146E+04  0.17836791422E+04  0.00000000000E+00 0. -1.
<mgrwt>
<rscale>  0 0.15928969E+04</rscale>
<asrwt>0</asrwt>
<pdfrwt beam="1">  1        2 0.31539345E+00 0.15928969E+04</pdfrwt>
<pdfrwt beam="2">  1       -2 0.47603180E-01 0.15928969E+04</pdfrwt>
<totfact> 0.25148015E+01</totfact>
</mgrwt>
</event>
<event>
 6    1  0.1773638E-005  0.1272365E+04  0.7818608E-02  0.9051772E-01
         -2   -1    0    0    0  501 -0.00000000000E+00  0.00000000000E+00  0.21564732406E+03  0.21564732406E+03  0.00000000000E+00 0.  1.
          2   -1    0    0  501    0  0.00000000000E+00 -0.00000000000E+00 -0.18768049471E+04  0.18768049471E+04  0.00000000000E+00 0. -1.
         23    2    1    2    0    0 -0.43478404973E+03 -0.22950822397E+03 -0.14903591116E+04  0.15719877419E+04  0.90906458744E+02 0.  0.
         13    1    3    3    0    0 -0.81434598365E+02 -0.55835430770E+01 -0.23796260592E+03  0.25157299454E+03  0.00000000000E+00 0.  1.
        -13    1    3    3    0    0 -0.35334945136E+03 -0.22392468089E+03 -0.12523965057E+04  0.13204147473E+04  0.00000000000E+00 0. -1.
         22    1    1    2    0    0  0.43478404973E+03  0.22950822397E+03 -0.17079851147E+03  0.52046452933E+03  0.00000000000E+00 0.  1.
<mgrwt>
<rscale>  0 0.12723647E+04</rscale>
<asrwt>0</asrwt>
<pdfrwt beam="1">  1        2 0.28873923E+00 0.12723647E+04</pdfrwt>
<pdfrwt beam="2">  1       -2 0.33176511E-01 0.12723647E+04</pdfrwt>
<totfact> 0.65193063E+01</totfact>
</mgrwt>
</event>
<event>
 6    1  0.1773638E-005  0.5382572E+03  0.7818608E-02  0.1004249E+00
         -2   -1    0    0    0  501 -0.00000000000E+00  0.00000000000E+00  0.32388329010E+02  0.32388329010E+02  0.00000000000E+00 0.  1.
          2   -1    0    0  501    0  0.00000000000E+00 -0.00000000000E+00 -0.22363059887E+04  0.22363059887E+04  0.00000000000E+00 0. -1.
         23    2    1    2    0    0 -0.25792770405E+03 -0.28367578287E+02 -0.10583054753E+04  0.10940630151E+04  0.98142661360E+02 0.  0.
         11    1    3    3    0    0 -0.15471527897E+03 -0.63839855351E+02 -0.68328144505E+03  0.70348125621E+03  0.00000000000E+00 0. -1.
        -11    1    3    3    0    0 -0.10321242507E+03  0.35472277063E+02 -0.37502403023E+03  0.39058175889E+03  0.00000000000E+00 0.  1.
         22    1    1    2    0    0  0.25792770405E+03  0.28367578287E+02 -0.11456121844E+04  0.11746313026E+04  0.00000000000E+00 0.  1.
<mgrwt>
<rscale>  0 0.53825724E+03</rscale>
<asrwt>0</asrwt>
<pdfrwt beam="1">  1        2 0.34404706E+00 0.53825724E+03</pdfrwt>
<pdfrwt beam="2">  1       -2 0.49828201E-02 0.53825724E+03</pdfrwt>
<totfact> 0.10682368E+03</totfact>
</mgrwt>
</event>
<event>
 6    1  0.1773638E-005  0.1830269E+04  0.7818608E-02  0.8690366E-01
         -1   -1    0    0    0  501 -0.00000000000E+00  0.00000000000E+00  0.22806128741E+04  0.22806128741E+04  0.00000000000E+00 0.  1.
          1   -1    0    0  501    0  0.00000000000E+00 -0.00000000000E+00 -0.36721321660E+03  0.36721321660E+03  0.00000000000E+00 0. -1.
         23    2    1    2    0    0  0.60845225983E+03 -0.60079773673E+03  0.14213333819E+04  0.16612657567E+04  0.91887208123E+02 0.  0.
         11    1    3    3    0    0  0.45734124736E+02 -0.38727728227E+02  0.61178552184E+02  0.85640307953E+02  0.00000000000E+00 0.  1.
        -11    1    3    3    0    0  0.56271813510E+03 -0.56207000850E+03  0.13601548297E+04  0.15756254488E+04  0.00000000000E+00 0. -1.
         22    1    1    2    0    0 -0.60845225983E+03  0.60079773673E+03  0.49206627556E+03  0.98656033394E+03  0.00000000000E+00 0.  1.
<mgrwt>
<rscale>  0 0.18302690E+04</rscale>
<asrwt>0</asrwt>
<pdfrwt beam="1">  1        1 0.56494342E-01 0.18302690E+04</pdfrwt>
<pdfrwt beam="2">  1       -1 0.35086351E+00 0.18302690E+04</pdfrwt>
<totfact> 0.97235571E-01</totfact>
</mgrwt>
</event>
<event>
 6    1  0.1773638E-005  0.2113778E+04  0.7818608E-02  0.8555198E-01
         -1   -1    0    0    0  501 -0.00000000000E+00  0.00000000000E+00  0.74860510480E+03  0.74860510480E+03  0.00000000000E+00 0.  1.
          1   -1    0    0  501    0  0.00000000000E+00 -0.00000000000E+00 -0.14921279163E+04  0.14921279163E+04  0.00000000000E+00 0. -1.
         23    2    1    2    0    0  0.27357543583E+03  0.79574436251E+02  0.70409350673E+03  0.76534540600E+03  0.93969751922E+02 0.  0.
         11    1    3    3    0    0  0.17128618472E+03  0.74957204204E+02  0.35082628695E+03  0.39753820339E+03  0.00000000000E+00 0.  1.
        -11    1    3    3    0    0  0.10228925111E+03  0.46172320476E+01  0.35326721978E+03  0.36780720261E+03  0.00000000000E+00 0. -1.
         22    1    1    2    0    0 -0.27357543583E+03 -0.79574436251E+02 -0.14476163182E+04  0.14753876151E+04  0.00000000000E+00 0. -1.
<mgrwt>
<rscale>  0 0.21137782E+04</rscale>
<asrwt>0</asrwt>
<pdfrwt beam="1">  1        1 0.22955814E+00 0.21137782E+04</pdfrwt>
<pdfrwt beam="2">  1       -1 0.11517002E+00 0.21137782E+04</pdfrwt>
<totfact> 0.41620155E+00</totfact>
</mgrwt>
</event>
<event>
 6    1  0.1773638E-005  0.1361897E+04  0.7818608E-02  0.8981871E-01
          1   -1    0    0  501    0  0.00000000000E+00  0.00000000000E+00  0.17740463004E+04  0.17740463004E+04  0.00000000000E+00 0. -1.
         -1   -1    0    0    0  501 -0.00000000000E+00 -0.00000000000E+00 -0.26137473080E+03  0.26137473080E+03  0.00000000000E+00 0.  1.
         23    2    1    2    0    0  0.11991095860E+03 -0.42265140929E+03  0.15310840863E+04  0.15957030847E+04  0.95063155033E+02 0.  0.
         13    1    3    3    0    0  0.50874227524E+02 -0.31814666463E+03  0.11680280099E+04  0.12116496685E+04  0.00000000000E+00 0.  1.
        -13    1    3    3    0    0  0.69036731075E+02 -0.10450474466E+03  0.36305607637E+03  0.38405341618E+03  0.00000000000E+00 0. -1.
         22    1    1    2    0    0 -0.11991095860E+03  0.42265140929E+03 -0.18412516626E+02  0.43971794657E+03  0.00000000000E+00 0.  1.
<mgrwt>
<rscale>  0 0.13618970E+04</rscale>
<asrwt>0</asrwt>
<pdfrwt beam="1">  1        1 0.27293019E+00 0.13618970E+04</pdfrwt>
<pdfrwt beam="2">  1       -1 0.40211498E-01 0.13618970E+04</pdfrwt>
<totfact> 0.25038825E+01</totfact>
</mgrwt>
</event>
<event>
 6    1  0.1773638E-005  0.2472891E+04  0.7818608E-02  0.8412707E-01
          2   -1    0    0  501    0  0.00000000000E+00  0.00000000000E+00  0.17988393445E+04  0.17988393445E+04  0.00000000000E+00 0. -1.
         -2   -1    0    0    0  501 -0.00000000000E+00 -0.00000000000E+00 -0.84988021781E+03  0.84988021781E+03  0.00000000000E+00 0.  1.
         23    2    1    2    0    0  0.12265045075E+04 -0.11308416421E+03  0.56650916903E+03  0.13590028084E+04  0.94099201156E+02 0.  0.
         11    1    3    3    0    0  0.96248872767E+03 -0.62601879306E+02  0.41079451890E+03  0.10483585660E+04  0.00000000000E+00 0. -1.
        -11    1    3    3    0    0  0.26401577981E+03 -0.50482284906E+02  0.15571465013E+03  0.31064424241E+03  0.00000000000E+00 0.  1.
         22    1    1    2    0    0 -0.12265045075E+04  0.11308416421E+03  0.38244995764E+03  0.12897167539E+04  0.00000000000E+00 0. -1.
<mgrwt>
<rscale>  0 0.24728914E+04</rscale>
<asrwt>0</asrwt>
<pdfrwt beam="1">  1        2 0.27674451E+00 0.24728914E+04</pdfrwt>
<pdfrwt beam="2">  1       -2 0.13075080E+00 0.24728914E+04</pdfrwt>
<totfact> 0.33064614E+00</totfact>
</mgrwt>
</event>
<event>
 6    1  0.1773638E-005  0.3522896E+04  0.7818608E-02  0.8108385E-01
          2   -1    0    0  501    0  0.00000000000E+00  0.00000000000E+00  0.16795306737E+04  0.16795306737E+04  0.00000000000E+00 0. -1.
         -2   -1    0    0    0  501 -0.00000000000E+00 -0.00000000000E+00 -0.18473605284E+04  0.18473605284E+04  0.00000000000E+00 0.  1.
         23    2    1    2    0    0 -0.14889795510E+04 -0.12909970332E+03  0.84704957205E+03  0.17203179022E+04  0.90960818535E+02 0.  0.
         13    1    3    3    0    0 -0.72189337597E+03 -0.21492896020E+02  0.38603807268E+03  0.81891231790E+03  0.00000000000E+00 0. -1.
        -13    1    3    3    0    0 -0.76708617502E+03 -0.10760680730E+03  0.46101149937E+03  0.90140558432E+03  0.00000000000E+00 0.  1.
         22    1    1    2    0    0  0.14889795510E+04  0.12909970332E+03 -0.10148794268E+04  0.18065732998E+04  0.00000000000E+00 0.  1.
<mgrwt>
<rscale>  0 0.35228958E+04</rscale>
<asrwt>0</asrwt>
<pdfrwt beam="1">  1        2 0.25838934E+00 0.35228958E+04</pdfrwt>
<pdfrwt beam="2">  1       -2 0.28420931E+00 0.35228958E+04</pdfrwt>
<totfact> 0.32776420E-01</totfact>
</mgrwt>
</event>
<event>
 6    1  0.1773638E-005  0.2639624E+04  0.7818608E-02  0.8354865E-01
          2   -1    0    0  501    0  0.00000000000E+00  0.00000000000E+00  0.17941959244E+04  0.17941959244E+04  0.00000000000E+00 0. -1.
         -2   -1    0    0    0  501 -0.00000000000E+00 -0.00000000000E+00 -0.97085444472E+03  0.97085444472E+03  0.00000000000E+00 0.  1.
         23    2    1    2    0    0 -0.11302618804E+04 -0.11922931482E+03 -0.28619891613E+03  0.11767218648E+04  0.10515217396E+03 0.  0.
         13    1    3    3    0    0 -0.31979641286E+03 -0.84298584846E+01 -0.39561423087E+02  0.32234440338E+03  0.00000000000E+00 0. -1.
        -13    1    3    3    0    0 -0.81046546752E+03 -0.11079945634E+03 -0.24663749304E+03  0.85437746140E+03  0.00000000000E+00 0.  1.
         22    1    1    2    0    0  0.11302618804E+04  0.11922931482E+03  0.11095403958E+04  0.15883285044E+04  0.00000000000E+00 0. -1.
<mgrwt>
<rscale>  0 0.26396235E+04</rscale>
<asrwt>0</asrwt>
<pdfrwt beam="1">  1        2 0.27603014E+00 0.26396235E+04</pdfrwt>
<pdfrwt beam="2">  1       -2 0.14936222E+00 0.26396235E+04</pdfrwt>
<totfact> 0.23228247E+00</totfact>
</mgrwt>
</event>
<event>
 6    1  0.1773638E-005  0.1773303E+04  0.7818608E-02  0.8720627E-01
         -1   -1    0    0    0  501 -0.00000000000E+00  0.00000000000E+00  0.37227961160E+03  0.37227961160E+03  0.00000000000E+00 0.  1.
          1   -1    0    0  501    0  0.00000000000E+00 -0.00000000000E+00 -0.21117209864E+04  0.21117209864E+04  0.00000000000E+00 0. -1.
         23    2    1    2    0    0 -0.20493020612E+03  0.68500111011E+03 -0.16007874513E+04  0.17556821095E+04  0.93146631828E+02 0.  0.
         11    1    3    3    0    0 -0.91468061873E+02  0.16609922100E+03 -0.40065495844E+03  0.44326036737E+03  0.00000000000E+00 0. -1.
        -11    1    3    3    0    0 -0.11346214424E+03  0.51890188912E+03 -0.12001324929E+04  0.13124217421E+04  0.00000000000E+00 0.  1.
         22    1    1    2    0    0  0.20493020612E+03 -0.68500111011E+03 -0.13865392350E+03  0.72831848853E+03  0.00000000000E+00 0.  1.
<mgrwt>
<rscale>  0 0.17733028E+04</rscale>
<asrwt>0</asrwt>
<pdfrwt beam="1">  1        1 0.32488015E+00 0.17733028E+04</pdfrwt>
<pdfrwt beam="2">  1       -1 0.57273786E-01 0.17733028E+04</pdfrwt>
<totfact> 0.73073739E+00</totfact>
</mgrwt>
</event>
<event>
 6    1  0.1773638E-005  0.1773213E+04  0.7818608E-02  0.8720676E-01
         -1   -1    0    0    0  501 -0.00000000000E+00  0.00000000000E+00  0.42732518253E+03  0.42732518253E+03  0.00000000000E+00 0.  1.
          1   -1    0    0  501    0  0.00000000000E+00 -0.00000000000E+00 -0.18395144610E+04  0.18395144610E+04  0.00000000000E+00 0. -1.
         23    2    1    2    0    0  0.19544472415E+03 -0.49321753828E+03 -0.16123413993E+04  0.16998096163E+04  0.90806187899E+02 0.  0.
         11    1    3    3    0    0  0.11488670125E+03 -0.38441111758E+03 -0.11452637689E+04  0.12135072978E+04  0.00000000000E+00 0. -1.
        -11    1    3    3    0    0  0.80558022896E+02 -0.10880642070E+03 -0.46707763034E+03  0.48630231852E+03  0.00000000000E+00 0.  1.
         22    1    1    2    0    0 -0.19544472415E+03  0.49321753828E+03  0.20015212079E+03  0.56703002718E+03  0.00000000000E+00 0.  1.
<mgrwt>
<rscale>  0 0.17732127E+04</rscale>
<asrwt>0</asrwt>
<pdfrwt beam="1">  1        1 0.28300223E+00 0.17732127E+04</pdfrwt>
<pdfrwt beam="2">  1       -1 0.65742335E-01 0.17732127E+04</pdfrwt>
<totfact> 0.84942703E+00</totfact>
</mgrwt>
</event>
<event>
 6    1  0.1773638E-005  0.2501129E+04  0.7818608E-02  0.8402583E-01
         -2   -1    0    0    0  501 -0.00000000000E+00  0.00000000000E+00  0.99381451802E+03  0.99381451802E+03  0.00000000000E+00 0.  1.
          2   -1    0    0  501    0  0.00000000000E+00 -0.00000000000E+00 -0.15736451330E+04  0.15736451330E+04  0.00000000000E+00 0. -1.
         23    2    1    2    0    0  0.47361886209E+03 -0.94862816477E+03  0.38684037256E+03  0.11326554764E+04  0.95145849825E+02 0.  0.
         11    1    3    3    0    0  0.11360066810E+03 -0.32259635904E+03  0.11052657754E+03  0.35942961342E+03  0.00000000000E+00 0. -1.
        -11    1    3    3    0    0  0.36001819399E+03 -0.62603180573E+03  0.27631379502E+03  0.77322586293E+03  0.00000000000E+00 0.  1.
         22    1    1    2    0    0 -0.47361886209E+03  0.94862816477E+03 -0.96667098757E+03  0.14348041747E+04  0.00000000000E+00 0. -1.
<mgrwt>
<rscale>  0 0.25011288E+04</rscale>
<asrwt>0</asrwt>
<pdfrwt beam="1">  1        2 0.24209925E+00 0.25011288E+04</pdfrwt>
<pdfrwt beam="2">  1       -2 0.15289454E+00 0.25011288E+04</pdfrwt>
<totfact> 0.29304580E+00</totfact>
</mgrwt>
</event>
<event>
 6    1  0.1773638E-005  0.8730810E+03  0.7818608E-02  0.9459871E-01
         -3   -1    0    0    0  501 -0.00000000000E+00  0.00000000000E+00  0.36946657201E+04  0.36946657201E+04  0.00000000000E+00 0.  1.
          3   -1    0    0  501    0  0.00000000000E+00 -0.00000000000E+00 -0.51579125192E+02  0.51579125192E+02  0.00000000000E+00 0. -1.
         23    2    1    2    0    0  0.10561563996E+03  0.26526759446E+03  0.32311285628E+04  0.32450153766E+04  0.91713929804E+02 0.  0.
         13    1    3    3    0    0  0.50598684770E+02  0.56480021906E+02  0.54933965240E+03  0.55454871154E+03  0.00000000000E+00 0. -1.
        -13    1    3    3    0    0  0.55016955192E+02  0.20878757255E+03  0.26817889104E+04  0.26904666650E+04  0.00000000000E+00 0.  1.
         22    1    1    2    0    0 -0.10561563996E+03 -0.26526759446E+03  0.41195803212E+03  0.50122946871E+03  0.00000000000E+00 0. -1.
<mgrwt>
<rscale>  0 0.87308104E+03</rscale>
<asrwt>0</asrwt>
<pdfrwt beam="1">  1        3 0.79352529E-02 0.87308104E+03</pdfrwt>
<pdfrwt beam="2">  1       -3 0.56840990E+00 0.87308104E+03</pdfrwt>
<totfact> 0.42153700E-01</totfact>
</mgrwt>
</event>
<event>
 6    1  0.1773638E-005  0.1762198E+04  0.7818608E-02  0.8726665E-01
         -2   -1    0    0    0  501 -0.00000000000E+00  0.00000000000E+00  0.20663958221E+03  0.20663958221E+03  0.00000000000E+00 0.  1.
          2   -1    0    0  501    0  0.00000000000E+00 -0.00000000000E+00 -0.37569521883E+04  0.37569521883E+04  0.00000000000E+00 0. -1.
         23    2    1    2    0    0 -0.61796115763E+02  0.78072077591E+03 -0.88355693023E+03  0.11842160268E+04  0.91384130822E+02 0.  0.
         11    1    3    3    0    0 -0.38428123042E+02  0.42340986557E+03 -0.41113105106E+03  0.59142317849E+03  0.00000000000E+00 0.  1.
        -11    1    3    3    0    0 -0.23367992720E+02  0.35731091034E+03 -0.47242587917E+03  0.59279284834E+03  0.00000000000E+00 0. -1.
         22    1    1    2    0    0  0.61796115763E+02 -0.78072077591E+03 -0.26667556759E+04  0.27793757437E+04  0.00000000000E+00 0. -1.
<mgrwt>
<rscale>  0 0.17621975E+04</rscale>
<asrwt>0</asrwt>
<pdfrwt beam="1">  1        2 0.57799259E+00 0.17621975E+04</pdfrwt>
<pdfrwt beam="2">  1       -2 0.31790708E-01 0.17621975E+04</pdfrwt>
<totfact> 0.46659819E+00</totfact>
</mgrwt>
</event>
<event>
 6    1  0.1773638E-005  0.1900694E+04  0.7818608E-02  0.8654511E-01
          1   -1    0    0  501    0  0.00000000000E+00  0.00000000000E+00  0.25368810277E+04  0.25368810277E+04  0.00000000000E+00 0.  1.
         -1   -1    0    0    0  501 -0.00000000000E+00 -0.00000000000E+00 -0.35601172971E+03  0.35601172971E+03  0.00000000000E+00 0. -1.
         23    2    1    2    0    0  0.72984095611E+03 -0.57858118821E+03  0.82334194976E+03  0.12465925072E+04  0.93149880739E+02 0.  0.
         11    1    3    3    0    0  0.28265128473E+03 -0.28283915672E+03  0.34985651930E+03  0.53130906394E+03  0.00000000000E+00 0.  1.
        -11    1    3    3    0    0  0.44718967139E+03 -0.29574203149E+03  0.47348543046E+03  0.71528344329E+03  0.00000000000E+00 0. -1.
         22    1    1    2    0    0 -0.72984095611E+03  0.57858118821E+03  0.13575273483E+04  0.16463002502E+04  0.00000000000E+00 0. -1.
<mgrwt>
<rscale>  0 0.19006940E+04</rscale>
<asrwt>0</asrwt>
<pdfrwt beam="1">  1        1 0.39028938E+00 0.19006940E+04</pdfrwt>
<pdfrwt beam="2">  1       -1 0.54771037E-01 0.19006940E+04</pdfrwt>
<totfact> 0.40277056E+00</totfact>
</mgrwt>
</event>
<event>
 6    1  0.1773638E-005  0.2538175E+04  0.7818608E-02  0.8389511E-01
          2   -1    0    0  501    0  0.00000000000E+00  0.00000000000E+00  0.37738101877E+04  0.37738101877E+04  0.00000000000E+00 0. -1.
         -2   -1    0    0    0  501 -0.00000000000E+00 -0.00000000000E+00 -0.42677887588E+03  0.42677887588E+03  0.00000000000E+00 0.  1.
         23    2    1    2    0    0  0.11077841655E+04  0.62168105831E+02  0.26894743490E+04  0.29108480857E+04  0.93347059058E+02 0.  0.
         11    1    3    3    0    0  0.31242989802E+03  0.57341742590E+02  0.80452580577E+03  0.86496374998E+03  0.00000000000E+00 0.  1.
        -11    1    3    3    0    0  0.79535426748E+03  0.48263632412E+01  0.18849485432E+04  0.20458843357E+04  0.00000000000E+00 0. -1.
         22    1    1    2    0    0 -0.11077841655E+04 -0.62168105831E+02  0.65755696291E+03  0.12897409779E+04  0.00000000000E+00 0.  1.
<mgrwt>
<rscale>  0 0.25381745E+04</rscale>
<asrwt>0</asrwt>
<pdfrwt beam="1">  1        2 0.58058616E+00 0.25381745E+04</pdfrwt>
<pdfrwt beam="2">  1       -2 0.65658291E-01 0.25381745E+04</pdfrwt>
<totfact> 0.97841070E-01</totfact>
</mgrwt>
</event>
<event>
 6    1  0.1773638E-005  0.2574502E+04  0.7818608E-02  0.8376914E-01
          1   -1    0    0  501    0  0.00000000000E+00  0.00000000000E+00  0.52235847785E+04  0.52235847785E+04  0.00000000000E+00 0. -1.
         -1   -1    0    0    0  501 -0.00000000000E+00 -0.00000000000E+00 -0.31721792777E+03  0.31721792777E+03  0.00000000000E+00 0.  1.
         23    2    1    2    0    0  0.80066956819E+03 -0.31340522564E+03  0.39862525939E+03  0.95179095567E+03  0.87802807376E+02 0.  0.
         11    1    3    3    0    0  0.32729308547E+03 -0.16667157465E+03  0.14290411818E+03  0.39410882328E+03  0.00000000000E+00 0.  1.
        -11    1    3    3    0    0  0.47337648273E+03 -0.14673365099E+03  0.25572114121E+03  0.55768213240E+03  0.00000000000E+00 0. -1.
         22    1    1    2    0    0 -0.80066956819E+03  0.31340522564E+03  0.45077415913E+04  0.45890117506E+04  0.00000000000E+00 0. -1.
<mgrwt>
<rscale>  0 0.25745017E+04</rscale>
<asrwt>0</asrwt>
<pdfrwt beam="1">  1        1 0.80362837E+00 0.25745017E+04</pdfrwt>
<pdfrwt beam="2">  1       -1 0.48802762E-01 0.25745017E+04</pdfrwt>
<totfact> 0.15994876E-02</totfact>
</mgrwt>
</event>
<event>
 6    1  0.1773638E-005  0.2452959E+04  0.7818608E-02  0.8419938E-01
         -1   -1    0    0    0  501 -0.00000000000E+00  0.00000000000E+00  0.71106092310E+03  0.71106092310E+03  0.00000000000E+00 0.  1.
          1   -1    0    0  501    0  0.00000000000E+00 -0.00000000000E+00 -0.21155032444E+04  0.21155032444E+04  0.00000000000E+00 0. -1.
         23    2    1    2    0    0  0.64268051836E+03  0.15954808713E+03 -0.18904709879E+04  0.20051521482E+04  0.90888615920E+02 0.  0.
         13    1    3    3    0    0  0.49871873860E+02 -0.36347238686E+01 -0.20570317265E+03  0.21169367081E+03  0.00000000000E+00 0. -1.
        -13    1    3    3    0    0  0.59280864450E+03  0.16318281100E+03 -0.16847678152E+04  0.17934584774E+04  0.00000000000E+00 0.  1.
         22    1    1    2    0    0 -0.64268051836E+03 -0.15954808713E+03  0.48602866657E+03  0.82141201934E+03  0.00000000000E+00 0.  1.
<mgrwt>
<rscale>  0 0.24529588E+04</rscale>
<asrwt>0</asrwt>
<pdfrwt beam="1">  1        1 0.32546203E+00 0.24529588E+04</pdfrwt>
<pdfrwt beam="2">  1       -1 0.10939399E+00 0.24529588E+04</pdfrwt>
<totfact> 0.17151837E+00</totfact>
</mgrwt>
</event>
<event>
 6    1  0.1773638E-005  0.4339445E+04  0.7818608E-02  0.7939364E-01
          1   -1    0    0  501    0  0.00000000000E+00  0.00000000000E+00  0.17628820175E+04  0.17628820175E+04  0.00000000000E+00 0. -1.
         -1   -1    0    0    0  501 -0.00000000000E+00 -0.00000000000E+00 -0.26704542281E+04  0.26704542281E+04  0.00000000000E+00 0.  1.
         23    2    1    2    0    0  0.43746416704E+03 -0.15554515069E+04 -0.19322248252E+04  0.25200361468E+04  0.79278739519E+02 0.  0.
         13    1    3    3    0    0  0.39271424433E+03 -0.13029590360E+04 -0.16035435470E+04  0.21031592032E+04  0.00000000000E+00 0. -1.
        -13    1    3    3    0    0  0.44749922707E+02 -0.25249247091E+03 -0.32868127820E+03  0.41687694358E+03  0.00000000000E+00 0.  1.
         22    1    1    2    0    0 -0.43746416704E+03  0.15554515069E+04  0.10246526145E+04  0.19133000988E+04  0.00000000000E+00 0. -1.
<mgrwt>
<rscale>  0 0.43394450E+04</rscale>
<asrwt>0</asrwt>
<pdfrwt beam="1">  1        1 0.27121262E+00 0.43394450E+04</pdfrwt>
<pdfrwt beam="2">  1       -1 0.41083911E+00 0.43394450E+04</pdfrwt>
<totfact> 0.19812829E-02</totfact>
</mgrwt>
</event>
<event>
 6    1  0.1773638E-005  0.1660147E+04  0.7818608E-02  0.8784426E-01
         -1   -1    0    0    0  501 -0.00000000000E+00  0.00000000000E+00  0.34549110523E+03  0.34549110523E+03  0.00000000000E+00 0.  1.
          1   -1    0    0  501    0  0.00000000000E+00 -0.00000000000E+00 -0.19943256240E+04  0.19943256240E+04  0.00000000000E+00 0. -1.
         23    2    1    2    0    0 -0.16066471094E+03  0.69531318657E+03 -0.14177903120E+04  0.15897134015E+04  0.88236915710E+02 0.  0.
         13    1    3    3    0    0 -0.49980696029E+02  0.39603357841E+03 -0.82505790366E+03  0.91654853096E+03  0.00000000000E+00 0.  1.
        -13    1    3    3    0    0 -0.11068401491E+03  0.29927960815E+03 -0.59273240835E+03  0.67316487054E+03  0.00000000000E+00 0. -1.
         22    1    1    2    0    0  0.16066471094E+03 -0.69531318657E+03 -0.23104420671E+03  0.75010332769E+03  0.00000000000E+00 0.  1.
<mgrwt>
<rscale>  0 0.16601467E+04</rscale>
<asrwt>0</asrwt>
<pdfrwt beam="1">  1        1 0.30681933E+00 0.16601467E+04</pdfrwt>
<pdfrwt beam="2">  1       -1 0.53152478E-01 0.16601467E+04</pdfrwt>
<totfact> 0.10250316E+01</totfact>
</mgrwt>
</event>
<event>
 6    1  0.1773638E-005  0.1768297E+04  0.7818608E-02  0.8723343E-01
          2   -1    0    0  501    0  0.00000000000E+00  0.00000000000E+00  0.18969546849E+04  0.18969546849E+04  0.00000000000E+00 0. -1.
         -2   -1    0    0    0  501 -0.00000000000E+00 -0.00000000000E+00 -0.41209132524E+03  0.41209132524E+03  0.00000000000E+00 0.  1.
         23    2    1    2    0    0  0.62932789632E+03 -0.58433529442E+03  0.10058425781E+04  0.13257036249E+04  0.90936636807E+02 0.  0.
         11    1    3    3    0    0  0.35377156099E+03 -0.38776624898E+03  0.59752222785E+03  0.79532999063E+03  0.00000000000E+00 0. -1.
        -11    1    3    3    0    0  0.27555633533E+03 -0.19656904543E+03  0.40832035022E+03  0.53037363430E+03  0.00000000000E+00 0.  1.
         22    1    1    2    0    0 -0.62932789632E+03  0.58433529442E+03  0.47902078161E+03  0.98334238524E+03  0.00000000000E+00 0. -1.
<mgrwt>
<rscale>  0 0.17682970E+04</rscale>
<asrwt>0</asrwt>
<pdfrwt beam="1">  1        2 0.29183918E+00 0.17682970E+04</pdfrwt>
<pdfrwt beam="2">  1       -2 0.63398667E-01 0.17682970E+04</pdfrwt>
<totfact> 0.16616594E+01</totfact>
</mgrwt>
</event>
<event>
 6    1  0.1773638E-005  0.2276061E+04  0.7818608E-02  0.8487420E-01
         -4   -1    0    0    0  501 -0.00000000000E+00  0.00000000000E+00  0.84844669835E+03  0.84844669835E+03  0.00000000000E+00 0.  1.
          4   -1    0    0  501    0  0.00000000000E+00 -0.00000000000E+00 -0.15264521536E+04  0.15264521536E+04  0.00000000000E+00 0. -1.
         23    2    1    2    0    0 -0.71106945896E+03  0.34693908411E+03  0.51136862952E+03  0.94640411373E+03  0.90533793066E+02 0.  0.
         13    1    3    3    0    0 -0.17808490579E+03  0.52051354483E+02  0.14611697992E+03  0.23616466500E+03  0.00000000000E+00 0. -1.
        -13    1    3    3    0    0 -0.53298455316E+03  0.29488772963E+03  0.36525164960E+03  0.71023944873E+03  0.00000000000E+00 0.  1.
         22    1    1    2    0    0  0.71106945896E+03 -0.34693908411E+03 -0.11893740847E+04  0.14284947382E+04  0.00000000000E+00 0. -1.
<mgrwt>
<rscale>  0 0.22760609E+04</rscale>
<asrwt>0</asrwt>
<pdfrwt beam="1">  1        4 0.23483879E+00 0.22760609E+04</pdfrwt>
<pdfrwt beam="2">  1       -4 0.13053026E+00 0.22760609E+04</pdfrwt>
<totfact> 0.61034709E-02</totfact>
</mgrwt>
</event>
<event>
 6    1  0.1773638E-005  0.1430942E+04  0.7818608E-02  0.8931721E-01
         -2   -1    0    0    0  501 -0.00000000000E+00  0.00000000000E+00  0.18218794300E+03  0.18218794300E+03  0.00000000000E+00 0.  1.
          2   -1    0    0  501    0  0.00000000000E+00 -0.00000000000E+00 -0.28097287299E+04  0.28097287299E+04  0.00000000000E+00 0. -1.
         23    2    1    2    0    0 -0.44691534454E+03  0.51805250542E+03 -0.90224766956E+03  0.11359134228E+04  0.90203788102E+02 0.  0.
         13    1    3    3    0    0 -0.36236701573E+03  0.46196893220E+03 -0.74117944917E+03  0.94555387169E+03  0.00000000000E+00 0.  1.
        -13    1    3    3    0    0 -0.84548328805E+02  0.56083573222E+02 -0.16106822039E+03  0.19035955114E+03  0.00000000000E+00 0. -1.
         22    1    1    2    0    0  0.44691534454E+03 -0.51805250542E+03 -0.17252931173E+04  0.18560032501E+04  0.00000000000E+00 0. -1.
<mgrwt>
<rscale>  0 0.14309419E+04</rscale>
<asrwt>0</asrwt>
<pdfrwt beam="1">  1        2 0.43226591E+00 0.14309419E+04</pdfrwt>
<pdfrwt beam="2">  1       -2 0.28028918E-01 0.14309419E+04</pdfrwt>
<totfact> 0.25938541E+01</totfact>
</mgrwt>
</event>
<event>
 6    1  0.1773638E-005  0.1114539E+04  0.7818608E-02  0.9191136E-01
         -3   -1    0    0    0  501 -0.00000000000E+00  0.00000000000E+00  0.43366513774E+03  0.43366513774E+03  0.00000000000E+00 0.  1.
          3   -1    0    0  501    0  0.00000000000E+00 -0.00000000000E+00 -0.71610342545E+03  0.71610342545E+03  0.00000000000E+00 0. -1.
         23    2    1    2    0    0 -0.38722504112E+03  0.16032434591E+03 -0.51515019920E+03  0.67039192409E+03  0.91643198305E+02 0.  0.
         11    1    3    3    0    0 -0.24922696600E+03  0.11010053567E+03 -0.26355682948E+03  0.37907573241E+03  0.00000000000E+00 0.  1.
        -11    1    3    3    0    0 -0.13799807512E+03  0.50223810238E+02 -0.25159336971E+03  0.29131619168E+03  0.00000000000E+00 0. -1.
         22    1    1    2    0    0  0.38722504112E+03 -0.16032434591E+03  0.23271191149E+03  0.47937663909E+03  0.00000000000E+00 0.  1.
<mgrwt>
<rscale>  0 0.11145386E+04</rscale>
<asrwt>0</asrwt>
<pdfrwt beam="1">  1        3 0.11016976E+00 0.11145386E+04</pdfrwt>
<pdfrwt beam="2">  1       -3 0.66717714E-01 0.11145386E+04</pdfrwt>
<totfact> 0.39174113E+00</totfact>
</mgrwt>
</event>
<event>
 6    1  0.3388654E-005  0.3083769E+04  0.7818608E-02  0.8220206E-01
         -1   -1    0    0    0  501 -0.00000000000E+00  0.00000000000E+00  0.13344934877E+04  0.13344934877E+04  0.00000000000E+00 0.  1.
          1   -1    0    0  501    0  0.00000000000E+00 -0.00000000000E+00 -0.17815059474E+04  0.17815059474E+04  0.00000000000E+00 0. -1.
         23    2    1    2    0    0 -0.23699938264E+03 -0.13824087730E+04 -0.86650073749E+03  0.16520345659E+04  0.10569747399E+03 0.  0.
         13    1    3    3    0    0 -0.63761457818E+02 -0.59502559515E+03 -0.32681443678E+03  0.68185677270E+03  0.00000000000E+00 0. -1.
        -13    1    3    3    0    0 -0.17323792482E+03 -0.78738317783E+03 -0.53968630071E+03  0.97017779324E+03  0.00000000000E+00 0.  1.
         22    1    1    2    0    0  0.23699938264E+03  0.13824087730E+04  0.41948827770E+03  0.14639648692E+04  0.00000000000E+00 0.  1.
<mgrwt>
<rscale>  0 0.30837692E+04</rscale>
<asrwt>0</asrwt>
<pdfrwt beam="1">  1        1 0.27407784E+00 0.30837692E+04</pdfrwt>
<pdfrwt beam="2">  1       -1 0.20530669E+00 0.30837692E+04</pdfrwt>
<totfact> 0.49041733E-01</totfact>
</mgrwt>
</event>
<event>
 6    1  0.1773638E-005  0.3188591E+04  0.7818608E-02  0.8191837E-01
         -1   -1    0    0    0  501 -0.00000000000E+00  0.00000000000E+00  0.67265625459E+03  0.67265625459E+03  0.00000000000E+00 0.  1.
          1   -1    0    0  501    0  0.00000000000E+00 -0.00000000000E+00 -0.37787178055E+04  0.37787178055E+04  0.00000000000E+00 0. -1.
         23    2    1    2    0    0 -0.32769681053E+03 -0.13747688828E+04 -0.25803321333E+04  0.29434728361E+04  0.92432343504E+02 0.  0.
         11    1    3    3    0    0 -0.13034304058E+03 -0.42065595390E+03 -0.73941997867E+03  0.86062921437E+03  0.00000000000E+00 0. -1.
        -11    1    3    3    0    0 -0.19735376994E+03 -0.95411292893E+03 -0.18409121546E+04  0.20828436217E+04  0.00000000000E+00 0.  1.
         22    1    1    2    0    0  0.32769681053E+03  0.13747688828E+04 -0.52572941771E+03  0.15079012240E+04  0.00000000000E+00 0.  1.
<mgrwt>
<rscale>  0 0.31885910E+04</rscale>
<asrwt>0</asrwt>
<pdfrwt beam="1">  1        1 0.58134121E+00 0.31885910E+04</pdfrwt>
<pdfrwt beam="2">  1       -1 0.10348558E+00 0.31885910E+04</pdfrwt>
<totfact> 0.10935515E-01</totfact>
</mgrwt>
</event>
<event>
 6    1  0.1773638E-005  0.1794745E+04  0.7818608E-02  0.8709099E-01
         -2   -1    0    0    0  501 -0.00000000000E+00  0.00000000000E+00  0.12075486878E+04  0.12075486878E+04  0.00000000000E+00 0.  1.
          2   -1    0    0  501    0  0.00000000000E+00 -0.00000000000E+00 -0.66686929915E+03  0.66686929915E+03  0.00000000000E+00 0. -1.
         23    2    1    2    0    0 -0.62132777839E+03  0.15046997166E+03  0.92631133143E+03  0.11278247806E+04  0.72433641214E+02 0.  0.
         11    1    3    3    0    0 -0.47225122344E+03  0.84299825920E+02  0.71136335604E+03  0.85800087588E+03  0.00000000000E+00 0. -1.
        -11    1    3    3    0    0 -0.14907655495E+03  0.66170145744E+02  0.21494797539E+03  0.26982390470E+03  0.00000000000E+00 0.  1.
         22    1    1    2    0    0  0.62132777839E+03 -0.15046997166E+03 -0.38563194275E+03  0.74659320640E+03  0.00000000000E+00 0. -1.
<mgrwt>
<rscale>  0 0.17947447E+04</rscale>
<asrwt>0</asrwt>
<pdfrwt beam="1">  1        2 0.10259528E+00 0.17947447E+04</pdfrwt>
<pdfrwt beam="2">  1       -2 0.18577672E+00 0.17947447E+04</pdfrwt>
<totfact> 0.68032087E+00</totfact>
</mgrwt>
</event>
<event>
 6    1  0.1773638E-005  0.3221545E+04  0.7818608E-02  0.8183150E-01
          2   -1    0    0  501    0  0.00000000000E+00  0.00000000000E+00  0.22357624778E+04  0.22357624778E+04  0.00000000000E+00 0. -1.
         -2   -1    0    0    0  501 -0.00000000000E+00 -0.00000000000E+00 -0.11604934210E+04  0.11604934210E+04  0.00000000000E+00 0.  1.
         23    2    1    2    0    0  0.55737143790E+03  0.98892108788E+03 -0.66476659123E+03  0.13186727130E+04  0.91407140744E+02 0.  0.
         11    1    3    3    0    0  0.27332127865E+03  0.43329119788E+03 -0.34356317453E+03  0.61683177481E+03  0.00000000000E+00 0.  1.
        -11    1    3    3    0    0  0.28405015925E+03  0.55562989000E+03 -0.32120341670E+03  0.70184093819E+03  0.00000000000E+00 0. -1.
         22    1    1    2    0    0 -0.55737143790E+03 -0.98892108788E+03  0.17400356480E+04  0.20775831858E+04  0.00000000000E+00 0. -1.
<mgrwt>
<rscale>  0 0.32215448E+04</rscale>
<asrwt>0</asrwt>
<pdfrwt beam="1">  1        2 0.34396346E+00 0.32215448E+04</pdfrwt>
<pdfrwt beam="2">  1       -2 0.17853745E+00 0.32215448E+04</pdfrwt>
<totfact> 0.76909261E-01</totfact>
</mgrwt>
</event>
<event>
 6    1  0.1773638E-005  0.1369348E+04  0.7818608E-02  0.8976310E-01
         -2   -1    0    0    0  501 -0.00000000000E+00  0.00000000000E+00  0.26702746238E+03  0.26702746238E+03  0.00000000000E+00 0.  1.
          2   -1    0    0  501    0  0.00000000000E+00 -0.00000000000E+00 -0.17555429249E+04  0.17555429249E+04  0.00000000000E+00 0. -1.
         23    2    1    2    0    0  0.60264616527E+03 -0.19467654102E+03 -0.11203986995E+04  0.12900464577E+04  0.88573478676E+02 0.  0.
         11    1    3    3    0    0  0.26512056966E+03 -0.12478845965E+03 -0.56283824104E+03  0.63454547646E+03  0.00000000000E+00 0. -1.
        -11    1    3    3    0    0  0.33752559561E+03 -0.69888081375E+02 -0.55756045843E+03  0.65550098124E+03  0.00000000000E+00 0.  1.
         22    1    1    2    0    0 -0.60264616527E+03  0.19467654102E+03 -0.36811676303E+03  0.73252392955E+03  0.00000000000E+00 0.  1.
<mgrwt>
<rscale>  0 0.13693475E+04</rscale>
<asrwt>0</asrwt>
<pdfrwt beam="1">  1        2 0.27008354E+00 0.13693475E+04</pdfrwt>
<pdfrwt beam="2">  1       -2 0.41081146E-01 0.13693475E+04</pdfrwt>
<totfact> 0.49999296E+01</totfact>
</mgrwt>
</event>
<event>
 6    1  0.1773638E-005  0.1080480E+04  0.7818608E-02  0.9224429E-01
          2   -1    0    0  501    0  0.00000000000E+00  0.00000000000E+00  0.10656809149E+04  0.10656809149E+04  0.00000000000E+00 0. -1.
         -2   -1    0    0    0  501 -0.00000000000E+00 -0.00000000000E+00 -0.27387104386E+03  0.27387104386E+03  0.00000000000E+00 0.  1.
         23    2    1    2    0    0 -0.15373660096E+01 -0.21241524034E+03 -0.21230249189E+03  0.31321661629E+03  0.88936510132E+02 0.  0.
         11    1    3    3    0    0  0.77351660824E+01 -0.19606465412E+03 -0.14675431333E+03  0.24502654931E+03  0.00000000000E+00 0. -1.
        -11    1    3    3    0    0 -0.92725320920E+01 -0.16350586222E+02 -0.65548178564E+02  0.68190066977E+02  0.00000000000E+00 0.  1.
         22    1    1    2    0    0  0.15373660096E+01  0.21241524034E+03  0.10041123629E+04  0.10263353424E+04  0.00000000000E+00 0. -1.
<mgrwt>
<rscale>  0 0.10804798E+04</rscale>
<asrwt>0</asrwt>
<pdfrwt beam="1">  1        2 0.16395091E+00 0.10804798E+04</pdfrwt>
<pdfrwt beam="2">  1       -2 0.42134007E-01 0.10804798E+04</pdfrwt>
<totfact> 0.12135433E+02</totfact>
</mgrwt>
</event>
<event>
 6    1  0.1773638E-005  0.2732823E+04  0.7818608E-02  0.8324433E-01
         -1   -1    0    0    0  501 -0.00000000000E+00  0.00000000000E+00  0.18529030713E+04  0.18529030713E+04  0.00000000000E+00 0.  1.
          1   -1    0    0  501    0  0.00000000000E+00 -0.00000000000E+00 -0.10076510435E+04  0.10076510435E+04  0.00000000000E+00 0. -1.
         23    2    1    2    0    0 -0.10532721403E+04 -0.83342404661E+03  0.16900238404E+03  0.13567950172E+04  0.91395130805E+02 0.  0.
         13    1    3    3    0    0 -0.97960285950E+03 -0.76129925334E+03  0.13373248758E+03  0.12478311960E+04  0.00000000000E+00 0. -1.
        -13    1    3    3    0    0 -0.73669280793E+02 -0.72124793275E+02  0.35269896459E+02  0.10896382121E+03  0.00000000000E+00 0.  1.
         22    1    1    2    0    0  0.10532721403E+04  0.83342404661E+03  0.67624964370E+03  0.15037590976E+04  0.00000000000E+00 0.  1.
<mgrwt>
<rscale>  0 0.27328225E+04</rscale>
<asrwt>0</asrwt>
<pdfrwt beam="1">  1        1 0.15502324E+00 0.27328225E+04</pdfrwt>
<pdfrwt beam="2">  1       -1 0.28506201E+00 0.27328225E+04</pdfrwt>
<totfact> 0.53627660E-01</totfact>
</mgrwt>
</event>
<event>
 6    1  0.1773638E-005  0.1253996E+04  0.7818608E-02  0.9066864E-01
         -2   -1    0    0    0  501 -0.00000000000E+00  0.00000000000E+00  0.26644068854E+03  0.26644068854E+03  0.00000000000E+00 0.  1.
          2   -1    0    0  501    0  0.00000000000E+00 -0.00000000000E+00 -0.14754750050E+04  0.14754750050E+04  0.00000000000E+00 0. -1.
         23    2    1    2    0    0  0.43699241631E+03  0.38944173241E+03 -0.31192537506E+03  0.67073331522E+03  0.99792312767E+02 0.  0.
         13    1    3    3    0    0  0.22165031498E+03  0.13226112639E+03 -0.12609254058E+03  0.28726502828E+03  0.00000000000E+00 0. -1.
        -13    1    3    3    0    0  0.21534210134E+03  0.25718060602E+03 -0.18583283448E+03  0.38346828694E+03  0.00000000000E+00 0.  1.
         22    1    1    2    0    0 -0.43699241631E+03 -0.38944173241E+03 -0.89710894136E+03  0.10711823783E+04  0.00000000000E+00 0.  1.
<mgrwt>
<rscale>  0 0.12539961E+04</rscale>
<asrwt>0</asrwt>
<pdfrwt beam="1">  1        2 0.22699615E+00 0.12539961E+04</pdfrwt>
<pdfrwt beam="2">  1       -2 0.40990876E-01 0.12539961E+04</pdfrwt>
<totfact> 0.72601913E+01</totfact>
</mgrwt>
</event>
<event>
 6    1  0.1773638E-005  0.2354340E+04  0.7818608E-02  0.8456799E-01
         -1   -1    0    0    0  501 -0.00000000000E+00  0.00000000000E+00  0.45154546793E+03  0.45154546793E+03  0.00000000000E+00 0.  1.
          1   -1    0    0  501    0  0.00000000000E+00 -0.00000000000E+00 -0.30688579117E+04  0.30688579117E+04  0.00000000000E+00 0. -1.
         23    2    1    2    0    0 -0.66824736360E+03 -0.13459937011E+03 -0.27424297233E+04  0.28273479251E+04  0.91126137880E+02 0.  0.
         13    1    3    3    0    0 -0.37465759716E+03 -0.43548040922E+02 -0.13749093971E+04  0.14257070517E+04  0.00000000000E+00 0. -1.
        -13    1    3    3    0    0 -0.29358976644E+03 -0.91051329192E+02 -0.13675203261E+04  0.14016408734E+04  0.00000000000E+00 0.  1.
         22    1    1    2    0    0  0.66824736360E+03  0.13459937011E+03  0.12511727954E+03  0.69305545451E+03  0.00000000000E+00 0.  1.
<mgrwt>
<rscale>  0 0.23543397E+04</rscale>
<asrwt>0</asrwt>
<pdfrwt beam="1">  1        1 0.47213198E+00 0.23543397E+04</pdfrwt>
<pdfrwt beam="2">  1       -1 0.69468534E-01 0.23543397E+04</pdfrwt>
<totfact> 0.10038178E+00</totfact>
</mgrwt>
</event>
<event>
 6    1  0.1773638E-005  0.1047507E+04  0.7818608E-02  0.9257922E-01
          1   -1    0    0  501    0  0.00000000000E+00  0.00000000000E+00  0.61489439529E+03  0.61489439529E+03  0.00000000000E+00 0. -1.
         -1   -1    0    0    0  501 -0.00000000000E+00 -0.00000000000E+00 -0.44612153804E+03  0.44612153804E+03  0.00000000000E+00 0.  1.
         23    2    1    2    0    0 -0.17414650160E+02  0.13750499592E+03 -0.42237321543E+03  0.45383838667E+03  0.91428956904E+02 0.  0.
         11    1    3    3    0    0  0.12568525037E+02  0.11028314700E+03 -0.20889864016E+03  0.23655650951E+03  0.00000000000E+00 0. -1.
        -11    1    3    3    0    0 -0.29983175197E+02  0.27221848919E+02 -0.21347457527E+03  0.21728187715E+03  0.00000000000E+00 0.  1.
         22    1    1    2    0    0  0.17414650160E+02 -0.13750499592E+03  0.59114607267E+03  0.60717754666E+03  0.00000000000E+00 0. -1.
<mgrwt>
<rscale>  0 0.10475068E+04</rscale>
<asrwt>0</asrwt>
<pdfrwt beam="1">  1        1 0.94599138E-01 0.10475068E+04</pdfrwt>
<pdfrwt beam="2">  1       -1 0.68634082E-01 0.10475068E+04</pdfrwt>
<totfact> 0.71015499E+01</totfact>
</mgrwt>
</event>
<event>
 6    1  0.1773638E-005  0.7720797E+03  0.7818608E-02  0.9601334E-01
          2   -1    0    0  501    0  0.00000000000E+00  0.00000000000E+00  0.10969252680E+04  0.10969252680E+04  0.00000000000E+00 0. -1.
         -2   -1    0    0    0  501 -0.00000000000E+00 -0.00000000000E+00 -0.13585862516E+03  0.13585862516E+03  0.00000000000E+00 0.  1.
         23    2    1    2    0    0  0.98156783924E+02 -0.36643543009E+03  0.44202053321E+03  0.58988534549E+03  0.93128354367E+02 0.  0.
         13    1    3    3    0    0  0.35997392025E+02 -0.25702054173E+02  0.52402917926E+02  0.68574584421E+02  0.00000000000E+00 0. -1.
        -13    1    3    3    0    0  0.62159391899E+02 -0.34073337592E+03  0.38961761529E+03  0.52131076107E+03  0.00000000000E+00 0.  1.
         22    1    1    2    0    0 -0.98156783924E+02  0.36643543009E+03  0.51904610958E+03  0.64289854762E+03  0.00000000000E+00 0.  1.
<mgrwt>
<rscale>  0 0.77207968E+03</rscale>
<asrwt>0</asrwt>
<pdfrwt beam="1">  1        2 0.16875773E+00 0.77207968E+03</pdfrwt>
<pdfrwt beam="2">  1       -2 0.20901328E-01 0.77207968E+03</pdfrwt>
<totfact> 0.43469700E+02</totfact>
</mgrwt>
</event>
<event>
 6    1  0.1773638E-005  0.2741944E+04  0.7818608E-02  0.8321522E-01
         -2   -1    0    0    0  501 -0.00000000000E+00  0.00000000000E+00  0.44942765846E+03  0.44942765846E+03  0.00000000000E+00 0.  1.
          2   -1    0    0  501    0  0.00000000000E+00 -0.00000000000E+00 -0.41821290708E+04  0.41821290708E+04  0.00000000000E+00 0. -1.
         23    2    1    2    0    0  0.27497704837E+02  0.83633938524E+03 -0.36995430678E+04  0.37941087207E+04  0.91773542208E+02 0.  0.
         13    1    3    3    0    0  0.37267048633E+02  0.60527212853E+03 -0.25023246029E+04  0.25747566100E+04  0.00000000000E+00 0.  1.
        -13    1    3    3    0    0 -0.97693437960E+01  0.23106725671E+03 -0.11972184649E+04  0.12193521107E+04  0.00000000000E+00 0. -1.
         22    1    1    2    0    0 -0.27497704837E+02 -0.83633938524E+03 -0.33158344475E+02  0.83744800847E+03  0.00000000000E+00 0.  1.
<mgrwt>
<rscale>  0 0.27419442E+04</rscale>
<asrwt>0</asrwt>
<pdfrwt beam="1">  1        2 0.64340448E+00 0.27419442E+04</pdfrwt>
<pdfrwt beam="2">  1       -2 0.69142716E-01 0.27419442E+04</pdfrwt>
<totfact> 0.40293106E-01</totfact>
</mgrwt>
</event>
<event>
 6    1  0.1773638E-005  0.3408460E+04  0.7818608E-02  0.8135833E-01
         -2   -1    0    0    0  501 -0.00000000000E+00  0.00000000000E+00  0.95880154938E+03  0.95880154938E+03  0.00000000000E+00 0.  1.
          2   -1    0    0  501    0  0.00000000000E+00 -0.00000000000E+00 -0.30291982787E+04  0.30291982787E+04  0.00000000000E+00 0. -1.
         23    2    1    2    0    0  0.18544179807E+03 -0.42489883523E+03 -0.29532504776E+04  0.29908246071E+04  0.91737486039E+02 0.  0.
         13    1    3    3    0    0  0.47689207989E+02 -0.15618972073E+03 -0.79941348244E+03  0.81592365166E+03  0.00000000000E+00 0. -1.
        -13    1    3    3    0    0  0.13775259008E+03 -0.26870911451E+03 -0.21538369951E+04  0.21749009554E+04  0.00000000000E+00 0.  1.
         22    1    1    2    0    0 -0.18544179807E+03  0.42489883523E+03  0.88285374823E+03  0.99717522102E+03  0.00000000000E+00 0.  1.
<mgrwt>
<rscale>  0 0.34084601E+04</rscale>
<asrwt>0</asrwt>
<pdfrwt beam="1">  1        2 0.46603051E+00 0.34084601E+04</pdfrwt>
<pdfrwt beam="2">  1       -2 0.14750793E+00 0.34084601E+04</pdfrwt>
<totfact> 0.43243829E-01</totfact>
</mgrwt>
</event>
<event>
 6    1  0.1773638E-005  0.3571273E+04  0.7818608E-02  0.8097104E-01
         -1   -1    0    0    0  501 -0.00000000000E+00  0.00000000000E+00  0.27865486266E+04  0.27865486266E+04  0.00000000000E+00 0.  1.
          1   -1    0    0  501    0  0.00000000000E+00 -0.00000000000E+00 -0.11442465288E+04  0.11442465288E+04  0.00000000000E+00 0. -1.
         23    2    1    2    0    0  0.12393009433E+04  0.12513259493E+04  0.50510610319E+03  0.18343939081E+04  0.90473064161E+02 0.  0.
         11    1    3    3    0    0  0.55147757919E+03  0.51554082858E+03  0.18101639665E+03  0.77632261473E+03  0.00000000000E+00 0.  1.
        -11    1    3    3    0    0  0.68782336410E+03  0.73578512069E+03  0.32408970653E+03  0.10580712934E+04  0.00000000000E+00 0. -1.
         22    1    1    2    0    0 -0.12393009433E+04 -0.12513259493E+04  0.11371959946E+04  0.20964012472E+04  0.00000000000E+00 0. -1.
<mgrwt>
<rscale>  0 0.35712735E+04</rscale>
<asrwt>0</asrwt>
<pdfrwt beam="1">  1        1 0.17603793E+00 0.35712735E+04</pdfrwt>
<pdfrwt beam="2">  1       -1 0.42869979E+00 0.35712735E+04</pdfrwt>
<totfact> 0.43221395E-02</totfact>
</mgrwt>
</event>
<event>
 6    1  0.1773638E-005  0.8844044E+03  0.7818608E-02  0.9445289E-01
         -2   -1    0    0    0  501 -0.00000000000E+00  0.00000000000E+00  0.31827055915E+03  0.31827055915E+03  0.00000000000E+00 0.  1.
          2   -1    0    0  501    0  0.00000000000E+00 -0.00000000000E+00 -0.61439166841E+03  0.61439166841E+03  0.00000000000E+00 0. -1.
         23    2    1    2    0    0 -0.23484773808E+03 -0.27035036009E+02  0.23435849169E+03  0.35189294439E+03  0.11410691668E+03 0.  0.
         11    1    3    3    0    0 -0.19213737211E+03  0.25438660861E+02  0.15965609708E+03  0.25110548494E+03  0.00000000000E+00 0. -1.
        -11    1    3    3    0    0 -0.42710365966E+02 -0.52473696870E+02  0.74702394603E+02  0.10078745946E+03  0.00000000000E+00 0.  1.
         22    1    1    2    0    0  0.23484773808E+03  0.27035036009E+02 -0.53047960094E+03  0.58076928317E+03  0.00000000000E+00 0. -1.
<mgrwt>
<rscale>  0 0.88440439E+03</rscale>
<asrwt>0</asrwt>
<pdfrwt beam="1">  1        2 0.94521795E-01 0.88440439E+03</pdfrwt>
<pdfrwt beam="2">  1       -2 0.48964702E-01 0.88440439E+03</pdfrwt>
<totfact> 0.19104489E+02</totfact>
</mgrwt>
</event>
<event>
 6    1  0.1773638E-005  0.5173299E+03  0.7818608E-02  0.1009352E+00
         -2   -1    0    0    0  501 -0.00000000000E+00  0.00000000000E+00  0.96196604335E+02  0.96196604335E+02  0.00000000000E+00 0.  1.
          2   -1    0    0  501    0  0.00000000000E+00 -0.00000000000E+00 -0.69552935547E+03  0.69552935547E+03  0.00000000000E+00 0. -1.
         23    2    1    2    0    0  0.14134642352E+03  0.17847070183E+02 -0.62453624970E+03  0.64704511900E+03  0.91238859411E+02 0.  0.
         13    1    3    3    0    0  0.26021105635E+02 -0.16247958636E+02 -0.28871687576E+03  0.29034208866E+03  0.00000000000E+00 0. -1.
        -13    1    3    3    0    0  0.11532531789E+03  0.34095028818E+02 -0.33581937395E+03  0.35670303034E+03  0.00000000000E+00 0.  1.
         22    1    1    2    0    0 -0.14134642352E+03 -0.17847070183E+02  0.25203498567E+02  0.14468084081E+03  0.00000000000E+00 0.  1.
<mgrwt>
<rscale>  0 0.51732992E+03</rscale>
<asrwt>0</asrwt>
<pdfrwt beam="1">  1        2 0.10700452E+00 0.51732992E+03</pdfrwt>
<pdfrwt beam="2">  1       -2 0.14799477E-01 0.51732992E+03</pdfrwt>
<totfact> 0.14831608E+03</totfact>
</mgrwt>
</event>
<event>
 6    1  0.1773638E-005  0.5203914E+04  0.7818608E-02  0.7797799E-01
          2   -1    0    0  501    0  0.00000000000E+00  0.00000000000E+00  0.37189212885E+04  0.37189212885E+04  0.00000000000E+00 0. -1.
         -2   -1    0    0    0  501 -0.00000000000E+00 -0.00000000000E+00 -0.18204687676E+04  0.18204687676E+04  0.00000000000E+00 0.  1.
         23    2    1    2    0    0  0.14095340714E+04  0.21423436359E+04  0.48612020377E+03  0.26117450765E+04  0.92070297321E+02 0.  0.
         11    1    3    3    0    0  0.92501327343E+03  0.14829018775E+04  0.32385216449E+03  0.17775060503E+04  0.00000000000E+00 0.  1.
        -11    1    3    3    0    0  0.48452079800E+03  0.65944175839E+03  0.16226803928E+03  0.83423902628E+03  0.00000000000E+00 0. -1.
         22    1    1    2    0    0 -0.14095340714E+04 -0.21423436359E+04  0.14123323171E+04  0.29276449796E+04  0.00000000000E+00 0. -1.
<mgrwt>
<rscale>  0 0.52039139E+04</rscale>
<asrwt>0</asrwt>
<pdfrwt beam="1">  1        2 0.57214173E+00 0.52039139E+04</pdfrwt>
<pdfrwt beam="2">  1       -2 0.28007212E+00 0.52039139E+04</pdfrwt>
<totfact> 0.16979975E-02</totfact>
</mgrwt>
</event>
<event>
 6    1  0.1773638E-005  0.5201216E+04  0.7818608E-02  0.7798196E-01
          2   -1    0    0  501    0  0.00000000000E+00  0.00000000000E+00  0.29839521825E+04  0.29839521825E+04  0.00000000000E+00 0. -1.
         -2   -1    0    0    0  501 -0.00000000000E+00 -0.00000000000E+00 -0.22665116626E+04  0.22665116626E+04  0.00000000000E+00 0.  1.
         23    2    1    2    0    0  0.21974145563E+04 -0.42189805980E+03  0.16951293764E+04  0.28086398946E+04  0.91464475314E+02 0.  0.
         13    1    3    3    0    0  0.88631933167E+03 -0.18088110173E+03  0.63079550693E+03  0.11028068291E+04  0.00000000000E+00 0. -1.
        -13    1    3    3    0    0  0.13110952246E+04 -0.24101695807E+03  0.10643338694E+04  0.17058330656E+04  0.00000000000E+00 0.  1.
         22    1    1    2    0    0 -0.21974145563E+04  0.42189805980E+03 -0.97768885639E+03  0.24418239504E+04  0.00000000000E+00 0. -1.
<mgrwt>
<rscale>  0 0.52012162E+04</rscale>
<asrwt>0</asrwt>
<pdfrwt beam="1">  1        2 0.45906957E+00 0.52012162E+04</pdfrwt>
<pdfrwt beam="2">  1       -2 0.34869410E+00 0.52012162E+04</pdfrwt>
<totfact> 0.20237455E-02</totfact>
</mgrwt>
</event>
<event>
 6    1  0.1773638E-005  0.4514033E+04  0.7818608E-02  0.7908185E-01
          2   -1    0    0  501    0  0.00000000000E+00  0.00000000000E+00  0.32534461352E+04  0.32534461352E+04  0.00000000000E+00 0. -1.
         -2   -1    0    0    0  501 -0.00000000000E+00 -0.00000000000E+00 -0.15657623857E+04  0.15657623857E+04  0.00000000000E+00 0.  1.
         23    2    1    2    0    0  0.19711664595E+04 -0.50174380553E+03 -0.19782344482E+03  0.20456942453E+04  0.92123680941E+02 0.  0.
         13    1    3    3    0    0  0.86811147110E+03 -0.19754012994E+03 -0.12643469255E+03  0.89923598719E+03  0.00000000000E+00 0. -1.
        -13    1    3    3    0    0  0.11030549884E+04 -0.30420367559E+03 -0.71388752270E+02  0.11464582581E+04  0.00000000000E+00 0.  1.
         22    1    1    2    0    0 -0.19711664595E+04  0.50174380553E+03  0.18855071942E+04  0.27735142756E+04  0.00000000000E+00 0. -1.
<mgrwt>
<rscale>  0 0.45140330E+04</rscale>
<asrwt>0</asrwt>
<pdfrwt beam="1">  1        2 0.50053017E+00 0.45140330E+04</pdfrwt>
<pdfrwt beam="2">  1       -2 0.24088652E+00 0.45140330E+04</pdfrwt>
<totfact> 0.66138913E-02</totfact>
</mgrwt>
</event>
<event>
 6    1  0.1773638E-005  0.1297170E+04  0.7818608E-02  0.9031813E-01
         -2   -1    0    0    0  501 -0.00000000000E+00  0.00000000000E+00  0.55085820817E+03  0.55085820817E+03  0.00000000000E+00 0. -1.
          2   -1    0    0  501    0  0.00000000000E+00 -0.00000000000E+00 -0.76364898546E+03  0.76364898546E+03  0.00000000000E+00 0.  1.
         23    2    1    2    0    0 -0.52466105931E+03 -0.21908281493E+03  0.20226222863E+03  0.61056436593E+03  0.92802633876E+02 0.  0.
         11    1    3    3    0    0 -0.30592517294E+03 -0.14520186336E+03  0.16502169608E+03  0.37670406520E+03  0.00000000000E+00 0. -1.
        -11    1    3    3    0    0 -0.21873588637E+03 -0.73880951561E+02  0.37240532554E+02  0.23386030072E+03  0.00000000000E+00 0.  1.
         22    1    1    2    0    0  0.52466105931E+03  0.21908281493E+03 -0.41505300593E+03  0.70394282771E+03  0.00000000000E+00 0.  1.
<mgrwt>
<rscale>  0 0.12971697E+04</rscale>
<asrwt>0</asrwt>
<pdfrwt beam="1">  1        2 0.11748446E+00 0.12971697E+04</pdfrwt>
<pdfrwt beam="2">  1       -2 0.84747416E-01 0.12971697E+04</pdfrwt>
<totfact> 0.43579678E+01</totfact>
</mgrwt>
</event>
<event>
 6    1  0.1773638E-005  0.1360280E+04  0.7818608E-02  0.8983083E-01
          2   -1    0    0  501    0  0.00000000000E+00  0.00000000000E+00  0.11057462653E+04  0.11057462653E+04  0.00000000000E+00 0. -1.
         -2   -1    0    0    0  501 -0.00000000000E+00 -0.00000000000E+00 -0.41835109689E+03  0.41835109689E+03  0.00000000000E+00 0.  1.
         23    2    1    2    0    0 -0.34084201585E+03  0.27967172090E+03  0.92105422048E+03  0.10251122884E+04  0.90137536729E+02 0.  0.
         11    1    3    3    0    0 -0.23731042647E+03  0.16886144116E+03  0.68740794717E+03  0.74656554344E+03  0.00000000000E+00 0. -1.
        -11    1    3    3    0    0 -0.10353158938E+03  0.11081027974E+03  0.23364627330E+03  0.27854674495E+03  0.00000000000E+00 0.  1.
         22    1    1    2    0    0  0.34084201585E+03 -0.27967172090E+03 -0.23365905208E+03  0.49898507378E+03  0.00000000000E+00 0.  1.
<mgrwt>
<rscale>  0 0.13602796E+04</rscale>
<asrwt>0</asrwt>
<pdfrwt beam="1">  1        2 0.17011481E+00 0.13602796E+04</pdfrwt>
<pdfrwt beam="2">  1       -2 0.64361708E-01 0.13602796E+04</pdfrwt>
<totfact> 0.47039022E+01</totfact>
</mgrwt>
</event>
<event>
 6    1  0.1773638E-005  0.1816514E+04  0.7818608E-02  0.8697566E-01
          1   -1    0    0  501    0  0.00000000000E+00  0.00000000000E+00  0.33142308871E+04  0.33142308871E+04  0.00000000000E+00 0. -1.
         -1   -1    0    0    0  501 -0.00000000000E+00 -0.00000000000E+00 -0.24890577717E+03  0.24890577717E+03  0.00000000000E+00 0.  1.
         23    2    1    2    0    0  0.74001625729E+03  0.18266211529E+03  0.24968762096E+04  0.26122824895E+04  0.92948853897E+02 0.  0.
         11    1    3    3    0    0  0.40206648023E+03  0.13099567727E+03  0.12624509686E+04  0.13313901645E+04  0.00000000000E+00 0.  1.
        -11    1    3    3    0    0  0.33794977705E+03  0.51666438015E+02  0.12344252410E+04  0.12808923250E+04  0.00000000000E+00 0. -1.
         22    1    1    2    0    0 -0.74001625729E+03 -0.18266211529E+03  0.56844890035E+03  0.95085417479E+03  0.00000000000E+00 0. -1.
<mgrwt>
<rscale>  0 0.18165145E+04</rscale>
<asrwt>0</asrwt>
<pdfrwt beam="1">  1        1 0.50988164E+00 0.18165145E+04</pdfrwt>
<pdfrwt beam="2">  1       -1 0.38293199E-01 0.18165145E+04</pdfrwt>
<totfact> 0.21754782E+00</totfact>
</mgrwt>
</event>
<event>
 6    1  0.1773638E-005  0.1659387E+04  0.7818608E-02  0.8784873E-01
          1   -1    0    0  501    0  0.00000000000E+00  0.00000000000E+00  0.95414423136E+03  0.95414423136E+03  0.00000000000E+00 0. -1.
         -1   -1    0    0    0  501 -0.00000000000E+00 -0.00000000000E+00 -0.72147494211E+03  0.72147494211E+03  0.00000000000E+00 0.  1.
         23    2    1    2    0    0  0.10499581290E+03  0.27087585043E+03 -0.66554955035E+03  0.73158796060E+03  0.88695507577E+02 0.  0.
         13    1    3    3    0    0 -0.19942643245E+01  0.11177417189E+03 -0.25898402517E+03  0.28208184608E+03  0.00000000000E+00 0.  1.
        -13    1    3    3    0    0  0.10699007722E+03  0.15910167854E+03 -0.40656552518E+03  0.44950611453E+03  0.00000000000E+00 0. -1.
         22    1    1    2    0    0 -0.10499581290E+03 -0.27087585043E+03  0.89821883959E+03  0.94403121286E+03  0.00000000000E+00 0. -1.
<mgrwt>
<rscale>  0 0.16593868E+04</rscale>
<asrwt>0</asrwt>
<pdfrwt beam="1">  1        1 0.14679142E+00 0.16593868E+04</pdfrwt>
<pdfrwt beam="2">  1       -1 0.11099614E+00 0.16593868E+04</pdfrwt>
<totfact> 0.11735646E+01</totfact>
</mgrwt>
</event>
<event>
 6    1  0.1773638E-005  0.3136286E+04  0.7818608E-02  0.8205850E-01
         -1   -1    0    0    0  501 -0.00000000000E+00  0.00000000000E+00  0.98662173271E+03  0.98662173271E+03  0.00000000000E+00 0.  1.
          1   -1    0    0  501    0  0.00000000000E+00 -0.00000000000E+00 -0.24924167809E+04  0.24924167809E+04  0.00000000000E+00 0. -1.
         23    2    1    2    0    0  0.15106226550E+04 -0.34782670096E+03 -0.50085585731E+03  0.16316438624E+04  0.91874284725E+02 0.  0.
         13    1    3    3    0    0  0.12370342233E+04 -0.31855799998E+03 -0.42481873949E+03  0.13461812026E+04  0.00000000000E+00 0. -1.
        -13    1    3    3    0    0  0.27358843177E+03 -0.29268700976E+02 -0.76037117825E+02  0.28546265980E+03  0.00000000000E+00 0.  1.
         22    1    1    2    0    0 -0.15106226550E+04  0.34782670096E+03 -0.10049391908E+04  0.18473946511E+04  0.00000000000E+00 0. -1.
<mgrwt>
<rscale>  0 0.31362861E+04</rscale>
<asrwt>0</asrwt>
<pdfrwt beam="1">  1        1 0.38344873E+00 0.31362861E+04</pdfrwt>
<pdfrwt beam="2">  1       -1 0.15178796E+00 0.31362861E+04</pdfrwt>
<totfact> 0.38962567E-01</totfact>
</mgrwt>
</event>
<event>
 6    1  0.1773638E-005  0.1868559E+04  0.7818608E-02  0.8670667E-01
         -2   -1    0    0    0  501 -0.00000000000E+00  0.00000000000E+00  0.69194392563E+03  0.69194392563E+03  0.00000000000E+00 0.  1.
          2   -1    0    0  501    0  0.00000000000E+00 -0.00000000000E+00 -0.12614865163E+04  0.12614865163E+04  0.00000000000E+00 0. -1.
         23    2    1    2    0    0  0.66321006051E+03  0.28864687151E+02  0.39695626083E+03  0.78091145083E+03  0.10755308691E+03 0.  0.
         11    1    3    3    0    0  0.58306454806E+03  0.60403582974E+02  0.35208625504E+03  0.68379645439E+03  0.00000000000E+00 0.  1.
        -11    1    3    3    0    0  0.80145512448E+02 -0.31538895823E+02  0.44870005785E+02  0.97114996445E+02  0.00000000000E+00 0. -1.
         22    1    1    2    0    0 -0.66321006051E+03 -0.28864687151E+02 -0.96649885147E+03  0.11725189911E+04  0.00000000000E+00 0. -1.
<mgrwt>
<rscale>  0 0.18685587E+04</rscale>
<asrwt>0</asrwt>
<pdfrwt beam="1">  1        2 0.19407485E+00 0.18685587E+04</pdfrwt>
<pdfrwt beam="2">  1       -2 0.10645291E+00 0.18685587E+04</pdfrwt>
<totfact> 0.11629944E+01</totfact>
</mgrwt>
</event>
<event>
 6    1  0.1773638E-005  0.1664232E+04  0.7818608E-02  0.8782031E-01
          1   -1    0    0  501    0  0.00000000000E+00  0.00000000000E+00  0.96634323026E+03  0.96634323026E+03  0.00000000000E+00 0. -1.
         -1   -1    0    0    0  501 -0.00000000000E+00 -0.00000000000E+00 -0.71653328190E+03  0.71653328190E+03  0.00000000000E+00 0.  1.
         23    2    1    2    0    0  0.10405645423E+02 -0.44877335060E+03  0.83091936907E+03  0.94857823728E+03  0.88701052330E+02 0.  0.
         11    1    3    3    0    0 -0.37348434424E+01 -0.35058034760E+03  0.71255116267E+03  0.79413455321E+03  0.00000000000E+00 0. -1.
        -11    1    3    3    0    0  0.14140488865E+02 -0.98193002998E+02  0.11836820639E+03  0.15444368407E+03  0.00000000000E+00 0.  1.
         22    1    1    2    0    0 -0.10405645423E+02  0.44877335060E+03 -0.58110942071E+03  0.73429827489E+03  0.00000000000E+00 0.  1.
<mgrwt>
<rscale>  0 0.16642321E+04</rscale>
<asrwt>0</asrwt>
<pdfrwt beam="1">  1        1 0.14866819E+00 0.16642321E+04</pdfrwt>
<pdfrwt beam="2">  1       -1 0.11023589E+00 0.16642321E+04</pdfrwt>
<totfact> 0.11659772E+01</totfact>
</mgrwt>
</event>
<event>
 6    1  0.1773638E-005  0.2275537E+04  0.7818608E-02  0.8487629E-01
         -2   -1    0    0    0  501 -0.00000000000E+00  0.00000000000E+00  0.12401199526E+04  0.12401199526E+04  0.00000000000E+00 0.  1.
          2   -1    0    0  501    0  0.00000000000E+00 -0.00000000000E+00 -0.10438645289E+04  0.10438645289E+04  0.00000000000E+00 0. -1.
         23    2    1    2    0    0  0.23944860398E+03  0.77598164514E+03  0.89529837595E+03  0.12124695742E+04  0.95079644296E+02 0.  0.
         11    1    3    3    0    0  0.45195746700E+02  0.60000848478E+02  0.68909544524E+02  0.10193764106E+03  0.00000000000E+00 0. -1.
        -11    1    3    3    0    0  0.19425285728E+03  0.71598079666E+03  0.82638883142E+03  0.11105319331E+04  0.00000000000E+00 0.  1.
         22    1    1    2    0    0 -0.23944860398E+03 -0.77598164514E+03 -0.69904295219E+03  0.10715149073E+04  0.00000000000E+00 0. -1.
<mgrwt>
<rscale>  0 0.22755371E+04</rscale>
<asrwt>0</asrwt>
<pdfrwt beam="1">  1        2 0.16059454E+00 0.22755371E+04</pdfrwt>
<pdfrwt beam="2">  1       -2 0.19078769E+00 0.22755371E+04</pdfrwt>
<totfact> 0.32847623E+00</totfact>
</mgrwt>
</event>
<event>
 6    1  0.1773638E-005  0.2079904E+04  0.7818608E-02  0.8570148E-01
          1   -1    0    0  501    0  0.00000000000E+00  0.00000000000E+00  0.10069344635E+04  0.10069344635E+04  0.00000000000E+00 0. -1.
         -1   -1    0    0    0  501 -0.00000000000E+00 -0.00000000000E+00 -0.10740517234E+04  0.10740517234E+04  0.00000000000E+00 0.  1.
         23    2    1    2    0    0 -0.83957703420E+03  0.27742609701E+03  0.51032306429E+03  0.10249122483E+04  0.90336322094E+02 0.  0.
         11    1    3    3    0    0 -0.59489256194E+03  0.20111710280E+03  0.31426157798E+03  0.70221477390E+03  0.00000000000E+00 0.  1.
        -11    1    3    3    0    0 -0.24468447226E+03  0.76308994208E+02  0.19606148631E+03  0.32269747439E+03  0.00000000000E+00 0. -1.
         22    1    1    2    0    0  0.83957703420E+03 -0.27742609701E+03 -0.57744032424E+03  0.10560739386E+04  0.00000000000E+00 0.  1.
<mgrwt>
<rscale>  0 0.20799036E+04</rscale>
<asrwt>0</asrwt>
<pdfrwt beam="1">  1        1 0.15491299E+00 0.20799036E+04</pdfrwt>
<pdfrwt beam="2">  1       -1 0.16523873E+00 0.20799036E+04</pdfrwt>
<totfact> 0.36744101E+00</totfact>
</mgrwt>
</event>
<event>
 6    1  0.1773638E-005  0.1750504E+04  0.7818608E-02  0.8733073E-01
          2   -1    0    0  501    0  0.00000000000E+00  0.00000000000E+00  0.72326095906E+03  0.72326095906E+03  0.00000000000E+00 0. -1.
         -2   -1    0    0    0  501 -0.00000000000E+00 -0.00000000000E+00 -0.10591832429E+04  0.10591832429E+04  0.00000000000E+00 0.  1.
         23    2    1    2    0    0 -0.45958843631E+03 -0.74217209422E+03 -0.17077591844E+03  0.89401059713E+03  0.89719480761E+02 0.  0.
         13    1    3    3    0    0 -0.20943738171E+03 -0.34283789371E+03 -0.12415428756E+03  0.42049509550E+03  0.00000000000E+00 0.  1.
        -13    1    3    3    0    0 -0.25015105461E+03 -0.39933420051E+03 -0.46621630881E+02  0.47351550163E+03  0.00000000000E+00 0. -1.
         22    1    1    2    0    0  0.45958843631E+03  0.74217209422E+03 -0.16514636545E+03  0.88843360487E+03  0.00000000000E+00 0.  1.
<mgrwt>
<rscale>  0 0.17505038E+04</rscale>
<asrwt>0</asrwt>
<pdfrwt beam="1">  1        2 0.11127092E+00 0.17505038E+04</pdfrwt>
<pdfrwt beam="2">  1       -2 0.16295127E+00 0.17505038E+04</pdfrwt>
<totfact> 0.89193813E+00</totfact>
</mgrwt>
</event>
<event>
 6    1  0.1773638E-005  0.3917990E+04  0.7818608E-02  0.8021298E-01
         -2   -1    0    0    0  501 -0.00000000000E+00  0.00000000000E+00  0.16131861179E+04  0.16131861179E+04  0.00000000000E+00 0.  1.
          2   -1    0    0  501    0  0.00000000000E+00 -0.00000000000E+00 -0.23789324888E+04  0.23789324888E+04  0.00000000000E+00 0. -1.
         23    2    1    2    0    0 -0.11458359997E+04 -0.21644316061E+03 -0.19856958305E+04  0.23044976588E+04  0.89071589828E+02 0.  0.
         13    1    3    3    0    0 -0.68373492020E+03 -0.87501552196E+02 -0.11398914659E+04  0.13321045442E+04  0.00000000000E+00 0. -1.
        -13    1    3    3    0    0 -0.46210107948E+03 -0.12894160841E+03 -0.84580436463E+03  0.97239311457E+03  0.00000000000E+00 0.  1.
         22    1    1    2    0    0  0.11458359997E+04  0.21644316061E+03  0.12199494596E+04  0.16876209480E+04  0.00000000000E+00 0.  1.
<mgrwt>
<rscale>  0 0.39179897E+04</rscale>
<asrwt>0</asrwt>
<pdfrwt beam="1">  1        2 0.36598961E+00 0.39179897E+04</pdfrwt>
<pdfrwt beam="2">  1       -2 0.24818248E+00 0.39179897E+04</pdfrwt>
<totfact> 0.21404784E-01</totfact>
</mgrwt>
</event>
<event>
 6    1  0.1773638E-005  0.9231991E+03  0.7818608E-02  0.9397037E-01
         -2   -1    0    0    0  501 -0.00000000000E+00  0.00000000000E+00  0.57745250700E+02  0.57745250700E+02  0.00000000000E+00 0.  1.
          2   -1    0    0  501    0  0.00000000000E+00 -0.00000000000E+00 -0.36898993049E+04  0.36898993049E+04  0.00000000000E+00 0. -1.
         23    2    1    2    0    0 -0.20403577424E+03  0.39331766943E+03 -0.22902016573E+04  0.23344334525E+04  0.90700203999E+02 0.  0.
         13    1    3    3    0    0 -0.87486293348E+02  0.93708156765E+02 -0.77151822773E+03  0.78209682641E+03  0.00000000000E+00 0.  1.
        -13    1    3    3    0    0 -0.11654948089E+03  0.29960951266E+03 -0.15186834296E+04  0.15523366261E+04  0.00000000000E+00 0. -1.
         22    1    1    2    0    0  0.20403577424E+03 -0.39331766943E+03 -0.13419523969E+04  0.14132111031E+04  0.00000000000E+00 0.  1.
<mgrwt>
<rscale>  0 0.92319913E+03</rscale>
<asrwt>0</asrwt>
<pdfrwt beam="1">  1        2 0.56767700E+00 0.92319913E+03</pdfrwt>
<pdfrwt beam="2">  1       -2 0.88838818E-02 0.92319913E+03</pdfrwt>
<totfact> 0.52280529E+01</totfact>
</mgrwt>
</event>
<event>
 6    1  0.1773638E-005  0.2425616E+04  0.7818608E-02  0.8429975E-01
          2   -1    0    0  501    0  0.00000000000E+00  0.00000000000E+00  0.26987450983E+04  0.26987450983E+04  0.00000000000E+00 0.  1.
         -2   -1    0    0    0  501 -0.00000000000E+00 -0.00000000000E+00 -0.54503222119E+03  0.54503222119E+03  0.00000000000E+00 0. -1.
         23    2    1    2    0    0 -0.21854885865E+03  0.27097253085E+03  0.26296926774E+04  0.26540769834E+04  0.87471937374E+02 0.  0.
         13    1    3    3    0    0 -0.15132452201E+03  0.16833423543E+03  0.13877855897E+04  0.14061238810E+04  0.00000000000E+00 0. -1.
        -13    1    3    3    0    0 -0.67224336641E+02  0.10263829542E+03  0.12419070877E+04  0.12479531024E+04  0.00000000000E+00 0.  1.
         22    1    1    2    0    0  0.21854885865E+03 -0.27097253085E+03 -0.47597980032E+03  0.58970033611E+03  0.00000000000E+00 0. -1.
<mgrwt>
<rscale>  0 0.24256158E+04</rscale>
<asrwt>0</asrwt>
<pdfrwt beam="1">  1        2 0.41519155E+00 0.24256158E+04</pdfrwt>
<pdfrwt beam="2">  1       -2 0.83851112E-01 0.24256158E+04</pdfrwt>
<totfact> 0.29665760E+00</totfact>
</mgrwt>
</event>
<event>
 6    1  0.1773638E-005  0.1593835E+04  0.7818608E-02  0.8824344E-01
         -2   -1    0    0    0  501 -0.00000000000E+00  0.00000000000E+00  0.15608164143E+04  0.15608164143E+04  0.00000000000E+00 0.  1.
          2   -1    0    0  501    0  0.00000000000E+00 -0.00000000000E+00 -0.40688813101E+03  0.40688813101E+03  0.00000000000E+00 0. -1.
         23    2    1    2    0    0 -0.17596636149E+03  0.39757410378E+03 -0.24206174645E+03  0.50557681780E+03  0.89357155427E+02 0.  0.
         13    1    3    3    0    0 -0.12461144075E+03  0.27841171239E+03 -0.21457763106E+03  0.37294054822E+03  0.00000000000E+00 0.  1.
        -13    1    3    3    0    0 -0.51354920747E+02  0.11916239140E+03 -0.27484115394E+02  0.13263626958E+03  0.00000000000E+00 0. -1.
         22    1    1    2    0    0  0.17596636149E+03 -0.39757410378E+03  0.13959900297E+04  0.14621277275E+04  0.00000000000E+00 0.  1.
<mgrwt>
<rscale>  0 0.15938352E+04</rscale>
<asrwt>0</asrwt>
<pdfrwt beam="1">  1        2 0.62598175E-01 0.15938352E+04</pdfrwt>
<pdfrwt beam="2">  1       -2 0.24012560E+00 0.15938352E+04</pdfrwt>
<totfact> 0.55327150E+00</totfact>
</mgrwt>
</event>
<event>
 6    1  0.1773638E-005  0.2768455E+04  0.7818608E-02  0.8313129E-01
          1   -1    0    0  501    0  0.00000000000E+00  0.00000000000E+00  0.21566620121E+04  0.21566620121E+04  0.00000000000E+00 0. -1.
         -1   -1    0    0    0  501 -0.00000000000E+00 -0.00000000000E+00 -0.88844985111E+03  0.88844985111E+03  0.00000000000E+00 0.  1.
         23    2    1    2    0    0  0.46291434224E+03 -0.12895910353E+04  0.83931315488E+03  0.16093928503E+04  0.91455169391E+02 0.  0.
         11    1    3    3    0    0  0.15939885727E+03 -0.48893972851E+03  0.26658477723E+03  0.57925598595E+03  0.00000000000E+00 0. -1.
        -11    1    3    3    0    0  0.30351548497E+03 -0.80065130679E+03  0.57272837765E+03  0.10301368643E+04  0.00000000000E+00 0.  1.
         22    1    1    2    0    0 -0.46291434224E+03  0.12895910353E+04  0.42889900608E+03  0.14357190129E+04  0.00000000000E+00 0.  1.
<mgrwt>
<rscale>  0 0.27684552E+04</rscale>
<asrwt>0</asrwt>
<pdfrwt beam="1">  1        1 0.33179415E+00 0.27684552E+04</pdfrwt>
<pdfrwt beam="2">  1       -1 0.13668459E+00 0.27684552E+04</pdfrwt>
<totfact> 0.90296694E-01</totfact>
</mgrwt>
</event>
<event>
 6    1  0.1773638E-005  0.1028845E+04  0.7818608E-02  0.9277461E-01
         -2   -1    0    0    0  501 -0.00000000000E+00  0.00000000000E+00  0.43785188593E+03  0.43785188593E+03  0.00000000000E+00 0.  1.
          2   -1    0    0  501    0  0.00000000000E+00 -0.00000000000E+00 -0.60438419059E+03  0.60438419059E+03  0.00000000000E+00 0. -1.
         23    2    1    2    0    0  0.43837599262E+03  0.71401980022E+02 -0.33832016629E+03  0.56601887496E+03  0.92978912868E+02 0.  0.
         13    1    3    3    0    0  0.25426817341E+03  0.87066696159E+02 -0.20960439706E+03  0.34083268161E+03  0.00000000000E+00 0.  1.
        -13    1    3    3    0    0  0.18410781921E+03 -0.15664716137E+02 -0.12871576922E+03  0.22518619335E+03  0.00000000000E+00 0. -1.
         22    1    1    2    0    0 -0.43837599262E+03 -0.71401980022E+02  0.17178786162E+03  0.47621720156E+03  0.00000000000E+00 0.  1.
<mgrwt>
<rscale>  0 0.10288455E+04</rscale>
<asrwt>0</asrwt>
<pdfrwt beam="1">  1        2 0.92982182E-01 0.10288455E+04</pdfrwt>
<pdfrwt beam="2">  1       -2 0.67361829E-01 0.10288455E+04</pdfrwt>
<totfact> 0.99117600E+01</totfact>
</mgrwt>
</event>
<event>
 6    1  0.1773638E-005  0.5557770E+04  0.7818608E-02  0.7747790E-01
          2   -1    0    0  501    0  0.00000000000E+00  0.00000000000E+00  0.37453317488E+04  0.37453317488E+04  0.00000000000E+00 0.  1.
         -2   -1    0    0    0  501 -0.00000000000E+00 -0.00000000000E+00 -0.20618202974E+04  0.20618202974E+04  0.00000000000E+00 0. -1.
         23    2    1    2    0    0 -0.24900249287E+04  0.12068991426E+04  0.11041413102E+04  0.29800511554E+04  0.68899709999E+02 0.  0.
         11    1    3    3    0    0 -0.17971671341E+04  0.86347592181E+03  0.82790127656E+03  0.21588934432E+04  0.00000000000E+00 0. -1.
        -11    1    3    3    0    0 -0.69285779460E+03  0.34342322080E+03  0.27624003365E+03  0.82115771221E+03  0.00000000000E+00 0.  1.
         22    1    1    2    0    0  0.24900249287E+04 -0.12068991426E+04  0.57937014110E+03  0.28271008907E+04  0.00000000000E+00 0.  1.
<mgrwt>
<rscale>  0 0.55577697E+04</rscale>
<asrwt>0</asrwt>
<pdfrwt beam="1">  1        2 0.57620488E+00 0.55577697E+04</pdfrwt>
<pdfrwt beam="2">  1       -2 0.31720312E+00 0.55577697E+04</pdfrwt>
<totfact> 0.93425509E-03</totfact>
</mgrwt>
</event>
<event>
 6    1  0.1773638E-005  0.6769363E+03  0.7818608E-02  0.9757508E-01
          2   -1    0    0  501    0  0.00000000000E+00  0.00000000000E+00  0.94636718784E+03  0.94636718784E+03  0.00000000000E+00 0. -1.
         -2   -1    0    0    0  501 -0.00000000000E+00 -0.00000000000E+00 -0.12105310675E+03  0.12105310675E+03  0.00000000000E+00 0.  1.
         23    2    1    2    0    0 -0.24458272750E+03  0.13310905951E+03  0.13374236920E+03  0.32189352445E+03  0.90496891922E+02 0.  0.
         11    1    3    3    0    0 -0.19597875358E+03  0.75074772434E+02  0.12834892069E+03  0.24600272103E+03  0.00000000000E+00 0. -1.
        -11    1    3    3    0    0 -0.48603973918E+02  0.58034287080E+02  0.53934485184E+01  0.75890803425E+02  0.00000000000E+00 0.  1.
         22    1    1    2    0    0  0.24458272750E+03 -0.13310905951E+03  0.69157171189E+03  0.74552677014E+03  0.00000000000E+00 0. -1.
<mgrwt>
<rscale>  0 0.67693630E+03</rscale>
<asrwt>0</asrwt>
<pdfrwt beam="1">  1        2 0.14559495E+00 0.67693630E+03</pdfrwt>
<pdfrwt beam="2">  1       -2 0.18623556E-01 0.67693630E+03</pdfrwt>
<totfact> 0.66440819E+02</totfact>
</mgrwt>
</event>
<event>
 6    1  0.1773638E-005  0.3777140E+04  0.7818608E-02  0.8051078E-01
         -1   -1    0    0    0  501 -0.00000000000E+00  0.00000000000E+00  0.90246523630E+03  0.90246523630E+03  0.00000000000E+00 0.  1.
          1   -1    0    0  501    0  0.00000000000E+00 -0.00000000000E+00 -0.39521711452E+04  0.39521711452E+04  0.00000000000E+00 0. -1.
         23    2    1    2    0    0 -0.14309846764E+04  0.12241636952E+04 -0.13605428768E+04  0.23249001016E+04  0.88259084594E+02 0.  0.
         11    1    3    3    0    0 -0.30296911553E+03  0.21311005588E+03 -0.26531808000E+03  0.45563128125E+03  0.00000000000E+00 0.  1.
        -11    1    3    3    0    0 -0.11280155609E+04  0.10110536393E+04 -0.10952247968E+04  0.18692688203E+04  0.00000000000E+00 0. -1.
         22    1    1    2    0    0  0.14309846764E+04 -0.12241636952E+04 -0.16891630321E+04  0.25297362799E+04  0.00000000000E+00 0. -1.
<mgrwt>
<rscale>  0 0.37771402E+04</rscale>
<asrwt>0</asrwt>
<pdfrwt beam="1">  1        1 0.60802632E+00 0.37771402E+04</pdfrwt>
<pdfrwt beam="2">  1       -1 0.13884081E+00 0.37771402E+04</pdfrwt>
<totfact> 0.35979261E-02</totfact>
</mgrwt>
</event>
<event>
 6    1  0.1773638E-005  0.2052537E+04  0.7818608E-02  0.8582444E-01
         -1   -1    0    0    0  501 -0.00000000000E+00  0.00000000000E+00  0.52693717915E+03  0.52693717915E+03  0.00000000000E+00 0.  1.
          1   -1    0    0  501    0  0.00000000000E+00 -0.00000000000E+00 -0.19987718274E+04  0.19987718274E+04  0.00000000000E+00 0. -1.
         23    2    1    2    0    0  0.79618739037E+03  0.46294755601E+03 -0.12886804547E+04  0.15866774529E+04  0.92807461184E+02 0.  0.
         13    1    3    3    0    0  0.76029725723E+02  0.17785027420E+02 -0.89977983731E+02  0.11913380692E+03  0.00000000000E+00 0.  1.
        -13    1    3    3    0    0  0.72015766464E+03  0.44516252859E+03 -0.11987024710E+04  0.14675436460E+04  0.00000000000E+00 0. -1.
         22    1    1    2    0    0 -0.79618739037E+03 -0.46294755601E+03 -0.18315419351E+03  0.93903155367E+03  0.00000000000E+00 0. -1.
<mgrwt>
<rscale>  0 0.20525372E+04</rscale>
<asrwt>0</asrwt>
<pdfrwt beam="1">  1        1 0.30750336E+00 0.20525372E+04</pdfrwt>
<pdfrwt beam="2">  1       -1 0.81067257E-01 0.20525372E+04</pdfrwt>
<totfact> 0.41804177E+00</totfact>
</mgrwt>
</event>
<event>
 6    1  0.1773638E-005  0.1172427E+04  0.7818608E-02  0.9137340E-01
          2   -1    0    0  501    0  0.00000000000E+00  0.00000000000E+00  0.15669161681E+04  0.15669161681E+04  0.00000000000E+00 0. -1.
         -2   -1    0    0    0  501 -0.00000000000E+00 -0.00000000000E+00 -0.21931358177E+03  0.21931358177E+03  0.00000000000E+00 0.  1.
         23    2    1    2    0    0 -0.40177026926E+02 -0.27637791108E+03  0.14571735741E+04  0.14862218423E+04  0.86611755339E+02 0.  0.
         13    1    3    3    0    0 -0.37610613689E+02 -0.22454844868E+03  0.97335054450E+03  0.99962385253E+03  0.00000000000E+00 0. -1.
        -13    1    3    3    0    0 -0.25664132372E+01 -0.51829462402E+02  0.48382302963E+03  0.48659798977E+03  0.00000000000E+00 0.  1.
         22    1    1    2    0    0  0.40177026926E+02  0.27637791108E+03 -0.10957098781E+03  0.30000790755E+03  0.00000000000E+00 0.  1.
<mgrwt>
<rscale>  0 0.11724265E+04</rscale>
<asrwt>0</asrwt>
<pdfrwt beam="1">  1        2 0.24106402E+00 0.11724265E+04</pdfrwt>
<pdfrwt beam="2">  1       -2 0.33740552E-01 0.11724265E+04</pdfrwt>
<totfact> 0.94475142E+01</totfact>
</mgrwt>
</event>
<event>
 6    1  0.1773638E-005  0.3019529E+04  0.7818608E-02  0.8238176E-01
          2   -1    0    0  501    0  0.00000000000E+00  0.00000000000E+00  0.17633376488E+04  0.17633376488E+04  0.00000000000E+00 0. -1.
         -2   -1    0    0    0  501 -0.00000000000E+00 -0.00000000000E+00 -0.12926554996E+04  0.12926554996E+04  0.00000000000E+00 0.  1.
         23    2    1    2    0    0 -0.27487462463E+03 -0.14818346578E+04  0.17359884318E+03  0.15198784055E+04  0.92216033435E+02 0.  0.
         13    1    3    3    0    0 -0.64070202880E+02 -0.23389916210E+03  0.55346015394E+02  0.24875085999E+03  0.00000000000E+00 0.  1.
        -13    1    3    3    0    0 -0.21080442175E+03 -0.12479354957E+04  0.11825282779E+03  0.12711275455E+04  0.00000000000E+00 0. -1.
         22    1    1    2    0    0  0.27487462463E+03  0.14818346578E+04  0.29708330602E+03  0.15361147428E+04  0.00000000000E+00 0. -1.
<mgrwt>
<rscale>  0 0.30195285E+04</rscale>
<asrwt>0</asrwt>
<pdfrwt beam="1">  1        2 0.27128271E+00 0.30195285E+04</pdfrwt>
<pdfrwt beam="2">  1       -2 0.19887008E+00 0.30195285E+04</pdfrwt>
<totfact> 0.10457659E+00</totfact>
</mgrwt>
</event>
<event>
 6    1  0.1773638E-005  0.1398095E+04  0.7818608E-02  0.8955199E-01
         -2   -1    0    0    0  501 -0.00000000000E+00  0.00000000000E+00  0.15636053881E+04  0.15636053881E+04  0.00000000000E+00 0.  1.
          2   -1    0    0  501    0  0.00000000000E+00 -0.00000000000E+00 -0.31252594688E+03  0.31252594688E+03  0.00000000000E+00 0. -1.
         23    2    1    2    0    0  0.31981525402E+03 -0.44074175256E+03  0.46945901328E+02  0.55458955695E+03  0.93971111904E+02 0.  0.
         13    1    3    3    0    0  0.17057271716E+03 -0.18917127004E+03 -0.16603421355E+02  0.25525770282E+03  0.00000000000E+00 0.  1.
        -13    1    3    3    0    0  0.14924253686E+03 -0.25157048252E+03  0.63549322683E+02  0.29933185413E+03  0.00000000000E+00 0. -1.
         22    1    1    2    0    0 -0.31981525402E+03  0.44074175256E+03  0.12041335399E+04  0.13215417780E+04  0.00000000000E+00 0.  1.
<mgrwt>
<rscale>  0 0.13980948E+04</rscale>
<asrwt>0</asrwt>
<pdfrwt beam="1">  1        2 0.48080916E-01 0.13980948E+04</pdfrwt>
<pdfrwt beam="2">  1       -2 0.24055467E+00 0.13980948E+04</pdfrwt>
<totfact> 0.75081424E+00</totfact>
</mgrwt>
</event>
<event>
 6    1  0.1773638E-005  0.2544379E+04  0.7818608E-02  0.8387344E-01
          2   -1    0    0  501    0  0.00000000000E+00  0.00000000000E+00  0.13017369422E+04  0.13017369422E+04  0.00000000000E+00 0. -1.
         -2   -1    0    0    0  501 -0.00000000000E+00 -0.00000000000E+00 -0.12433129247E+04  0.12433129247E+04  0.00000000000E+00 0.  1.
         23    2    1    2    0    0  0.33081461931E+03 -0.95034903460E+03  0.80509609126E+03  0.12920052605E+04  0.92175251345E+02 0.  0.
         11    1    3    3    0    0  0.39075379349E+02 -0.81324838813E+02  0.43211419114E+02  0.10003919942E+03  0.00000000000E+00 0.  1.
        -11    1    3    3    0    0  0.29173923996E+03 -0.86902419578E+03  0.76188467215E+03  0.11919660610E+04  0.00000000000E+00 0. -1.
         22    1    1    2    0    0 -0.33081461931E+03  0.95034903460E+03 -0.74667207377E+03  0.12530446064E+04  0.00000000000E+00 0.  1.
<mgrwt>
<rscale>  0 0.25443792E+04</rscale>
<asrwt>0</asrwt>
<pdfrwt beam="1">  1        2 0.20026722E+00 0.25443792E+04</pdfrwt>
<pdfrwt beam="2">  1       -2 0.19127891E+00 0.25443792E+04</pdfrwt>
<totfact> 0.22273867E+00</totfact>
</mgrwt>
</event>
<event>
 6    1  0.2072686E-005  0.4390852E+04  0.7818608E-02  0.7930029E-01
          2   -1    0    0  501    0  0.00000000000E+00  0.00000000000E+00  0.24904216247E+04  0.24904216247E+04  0.00000000000E+00 0. -1.
         -2   -1    0    0    0  501 -0.00000000000E+00 -0.00000000000E+00 -0.19353729684E+04  0.19353729684E+04  0.00000000000E+00 0.  1.
         23    2    1    2    0    0  0.29601873549E+03  0.20607299487E+04  0.97728813980E+03  0.23015250257E+04  0.87694485840E+02 0.  0.
         13    1    3    3    0    0  0.85828781086E+02  0.51089980503E+03  0.28317220238E+03  0.59039959912E+03  0.00000000000E+00 0. -1.
        -13    1    3    3    0    0  0.21018995440E+03  0.15498301436E+04  0.69411593742E+03  0.17111254266E+04  0.00000000000E+00 0.  1.
         22    1    1    2    0    0 -0.29601873549E+03 -0.20607299487E+04 -0.42223948353E+03  0.21242695673E+04  0.00000000000E+00 0.  1.
<mgrwt>
<rscale>  0 0.43908517E+04</rscale>
<asrwt>0</asrwt>
<pdfrwt beam="1">  1        2 0.38314179E+00 0.43908517E+04</pdfrwt>
<pdfrwt beam="2">  1       -2 0.29774969E+00 0.43908517E+04</pdfrwt>
<totfact> 0.88426123E-02</totfact>
</mgrwt>
</event>
<event>
 6    1  0.1773638E-005  0.3271249E+04  0.7818608E-02  0.8170250E-01
          2   -1    0    0  501    0  0.00000000000E+00  0.00000000000E+00  0.28231226007E+04  0.28231226007E+04  0.00000000000E+00 0. -1.
         -2   -1    0    0    0  501 -0.00000000000E+00 -0.00000000000E+00 -0.94762729515E+03  0.94762729515E+03  0.00000000000E+00 0.  1.
         23    2    1    2    0    0  0.71786536237E+03 -0.14191503729E+04  0.50434734084E+03  0.16709010440E+04  0.90695088517E+02 0.  0.
         11    1    3    3    0    0  0.55483640479E+03 -0.11741707542E+04  0.41567234074E+03  0.13635629398E+04  0.00000000000E+00 0. -1.
        -11    1    3    3    0    0  0.16302895758E+03 -0.24497961876E+03  0.88675000100E+02  0.30733810414E+03  0.00000000000E+00 0.  1.
         22    1    1    2    0    0 -0.71786536237E+03  0.14191503729E+04  0.13711479647E+04  0.20998488518E+04  0.00000000000E+00 0.  1.
<mgrwt>
<rscale>  0 0.32712493E+04</rscale>
<asrwt>0</asrwt>
<pdfrwt beam="1">  1        2 0.43432655E+00 0.32712493E+04</pdfrwt>
<pdfrwt beam="2">  1       -2 0.14578882E+00 0.32712493E+04</pdfrwt>
<totfact> 0.60516625E-01</totfact>
</mgrwt>
</event>
<event>
 6    1  0.1773638E-005  0.3337515E+04  0.7818608E-02  0.8153415E-01
         -2   -1    0    0    0  501 -0.00000000000E+00  0.00000000000E+00  0.24716734445E+04  0.24716734445E+04  0.00000000000E+00 0.  1.
          2   -1    0    0  501    0  0.00000000000E+00 -0.00000000000E+00 -0.11266663330E+04  0.11266663330E+04  0.00000000000E+00 0. -1.
         23    2    1    2    0    0  0.51317134334E+03 -0.80225257502E+03  0.21487782917E+04  0.23521447158E+04  0.91556513626E+02 0.  0.
         13    1    3    3    0    0  0.32165500628E+03 -0.49582405040E+03  0.14399807977E+04  0.15565500730E+04  0.00000000000E+00 0.  1.
        -13    1    3    3    0    0  0.19151633707E+03 -0.30642852463E+03  0.70879749398E+03  0.79559464273E+03  0.00000000000E+00 0. -1.
         22    1    1    2    0    0 -0.51317134334E+03  0.80225257502E+03 -0.80377118021E+03  0.12461950617E+04  0.00000000000E+00 0. -1.
<mgrwt>
<rscale>  0 0.33375148E+04</rscale>
<asrwt>0</asrwt>
<pdfrwt beam="1">  1        2 0.17333328E+00 0.33375148E+04</pdfrwt>
<pdfrwt beam="2">  1       -2 0.38025745E+00 0.33375148E+04</pdfrwt>
<totfact> 0.17410371E-01</totfact>
</mgrwt>
</event>
<event>
 6    1  0.1773638E-005  0.3299940E+04  0.7818608E-02  0.8162911E-01
         -1   -1    0    0    0  501 -0.00000000000E+00  0.00000000000E+00  0.15314964063E+04  0.15314964063E+04  0.00000000000E+00 0.  1.
          1   -1    0    0  501    0  0.00000000000E+00 -0.00000000000E+00 -0.17776086934E+04  0.17776086934E+04  0.00000000000E+00 0. -1.
         23    2    1    2    0    0 -0.13215000134E+03 -0.11440379151E+04  0.10600271849E+04  0.15677588692E+04  0.89016095650E+02 0.  0.
         13    1    3    3    0    0 -0.52702541768E+02 -0.79001737431E+03  0.74776300254E+03  0.10890613011E+04  0.00000000000E+00 0. -1.
        -13    1    3    3    0    0 -0.79447459576E+02 -0.35402054075E+03  0.31226418233E+03  0.47869756807E+03  0.00000000000E+00 0.  1.
         22    1    1    2    0    0  0.13215000134E+03  0.11440379151E+04 -0.13061394720E+04  0.17413462304E+04  0.00000000000E+00 0. -1.
<mgrwt>
<rscale>  0 0.32999402E+04</rscale>
<asrwt>0</asrwt>
<pdfrwt beam="1">  1        1 0.27347826E+00 0.32999402E+04</pdfrwt>
<pdfrwt beam="2">  1       -1 0.23561483E+00 0.32999402E+04</pdfrwt>
<totfact> 0.30334289E-01</totfact>
</mgrwt>
</event>
<event>
 6    1  0.1773638E-005  0.2738782E+04  0.7818608E-02  0.8322530E-01
         -2   -1    0    0    0  501 -0.00000000000E+00  0.00000000000E+00  0.12369939745E+04  0.12369939745E+04  0.00000000000E+00 0.  1.
          2   -1    0    0  501    0  0.00000000000E+00 -0.00000000000E+00 -0.15159583774E+04  0.15159583774E+04  0.00000000000E+00 0. -1.
         23    2    1    2    0    0 -0.42322157166E+03  0.13001440261E+04 -0.18012861704E+03  0.13820914911E+04  0.90772153046E+02 0.  0.
         13    1    3    3    0    0 -0.95554566286E+02  0.32519706797E+03 -0.83135305466E+02  0.34899181534E+03  0.00000000000E+00 0. -1.
        -13    1    3    3    0    0 -0.32766700538E+03  0.97494695812E+03 -0.96993311577E+02  0.10330996758E+04  0.00000000000E+00 0.  1.
         22    1    1    2    0    0  0.42322157166E+03 -0.13001440261E+04 -0.98835785847E+02  0.13708608609E+04  0.00000000000E+00 0. -1.
<mgrwt>
<rscale>  0 0.27387818E+04</rscale>
<asrwt>0</asrwt>
<pdfrwt beam="1">  1        2 0.23322437E+00 0.27387818E+04</pdfrwt>
<pdfrwt beam="2">  1       -2 0.19030677E+00 0.27387818E+04</pdfrwt>
<totfact> 0.16775681E+00</totfact>
</mgrwt>
</event>
<event>
 6    1  0.1773638E-005  0.5239519E+04  0.7818608E-02  0.7792585E-01
          2   -1    0    0  501    0  0.00000000000E+00  0.00000000000E+00  0.30547320487E+04  0.30547320487E+04  0.00000000000E+00 0. -1.
         -2   -1    0    0    0  501 -0.00000000000E+00 -0.00000000000E+00 -0.22467239271E+04  0.22467239271E+04  0.00000000000E+00 0.  1.
         23    2    1    2    0    0  0.25897174570E+04  0.14096986707E+03  0.35193388775E+02  0.25952128933E+04  0.85920757833E+02 0.  0.
         11    1    3    3    0    0  0.54312756103E+03 -0.35205016165E+01  0.18764396217E+02  0.54346301075E+03  0.00000000000E+00 0.  1.
        -11    1    3    3    0    0  0.20465898959E+04  0.14449036869E+03  0.16428992559E+02  0.20517498826E+04  0.00000000000E+00 0. -1.
         22    1    1    2    0    0 -0.25897174570E+04 -0.14096986707E+03  0.77281473276E+03  0.27062430825E+04  0.00000000000E+00 0. -1.
<mgrwt>
<rscale>  0 0.52395189E+04</rscale>
<asrwt>0</asrwt>
<pdfrwt beam="1">  1        2 0.46995878E+00 0.52395189E+04</pdfrwt>
<pdfrwt beam="2">  1       -2 0.34564984E+00 0.52395189E+04</pdfrwt>
<totfact> 0.19026889E-02</totfact>
</mgrwt>
</event>
<event>
 6    1  0.1773638E-005  0.2626927E+04  0.7818608E-02  0.8359112E-01
         -2   -1    0    0    0  501 -0.00000000000E+00  0.00000000000E+00  0.10626500347E+04  0.10626500347E+04  0.00000000000E+00 0.  1.
          2   -1    0    0  501    0  0.00000000000E+00 -0.00000000000E+00 -0.16234757970E+04  0.16234757970E+04  0.00000000000E+00 0. -1.
         23    2    1    2    0    0 -0.90273058312E+03 -0.91117327665E+02 -0.12496880174E+04  0.15469348558E+04  0.89791059215E+02 0.  0.
         13    1    3    3    0    0 -0.40703017638E+03 -0.39505323409E+01 -0.60149712516E+03  0.72628366550E+03  0.00000000000E+00 0.  1.
        -13    1    3    3    0    0 -0.49570040674E+03 -0.87166795324E+02 -0.64819089220E+03  0.82065119033E+03  0.00000000000E+00 0. -1.
         22    1    1    2    0    0  0.90273058312E+03  0.91117327665E+02  0.68886225505E+03  0.11391909759E+04  0.00000000000E+00 0.  1.
<mgrwt>
<rscale>  0 0.26269272E+04</rscale>
<asrwt>0</asrwt>
<pdfrwt beam="1">  1        2 0.24976551E+00 0.26269272E+04</pdfrwt>
<pdfrwt beam="2">  1       -2 0.16348462E+00 0.26269272E+04</pdfrwt>
<totfact> 0.22680907E+00</totfact>
</mgrwt>
</event>
<event>
 6    1  0.1773638E-005  0.2320406E+04  0.7818608E-02  0.8469919E-01
         -2   -1    0    0    0  501 -0.00000000000E+00  0.00000000000E+00  0.11892804167E+04  0.11892804167E+04  0.00000000000E+00 0.  1.
          2   -1    0    0  501    0  0.00000000000E+00 -0.00000000000E+00 -0.11318364945E+04  0.11318364945E+04  0.00000000000E+00 0. -1.
         23    2    1    2    0    0 -0.40530696700E+03  0.10551831874E+04  0.28259113485E+03  0.11685647155E+04  0.89445225870E+02 0.  0.
         11    1    3    3    0    0 -0.16678676238E+03  0.41344408293E+03  0.15602437231E+03  0.47233191568E+03  0.00000000000E+00 0. -1.
        -11    1    3    3    0    0 -0.23852020462E+03  0.64173910446E+03  0.12656676255E+03  0.69623279985E+03  0.00000000000E+00 0.  1.
         22    1    1    2    0    0  0.40530696700E+03 -0.10551831874E+04 -0.22514721267E+03  0.11525521957E+04  0.00000000000E+00 0. -1.
<mgrwt>
<rscale>  0 0.23204060E+04</rscale>
<asrwt>0</asrwt>
<pdfrwt beam="1">  1        2 0.17412869E+00 0.23204060E+04</pdfrwt>
<pdfrwt beam="2">  1       -2 0.18296622E+00 0.23204060E+04</pdfrwt>
<totfact> 0.32608535E+00</totfact>
</mgrwt>
</event>
<event>
 6    1  0.1773638E-005  0.5740461E+03  0.7818608E-02  0.9960765E-01
         -1   -1    0    0    0  501 -0.00000000000E+00  0.00000000000E+00  0.11536942231E+03  0.11536942231E+03  0.00000000000E+00 0.  1.
          1   -1    0    0  501    0  0.00000000000E+00 -0.00000000000E+00 -0.71407344735E+03  0.71407344735E+03  0.00000000000E+00 0. -1.
         23    2    1    2    0    0 -0.23942387523E+03 -0.18887655927E+01 -0.51660680736E+03  0.57632765357E+03  0.89126939780E+02 0.  0.
         13    1    3    3    0    0 -0.99449385729E+02  0.42885495236E+02 -0.23103010255E+03  0.25515535328E+03  0.00000000000E+00 0.  1.
        -13    1    3    3    0    0 -0.13997448950E+03 -0.44774260828E+02 -0.28557670481E+03  0.32117230029E+03  0.00000000000E+00 0. -1.
         22    1    1    2    0    0  0.23942387523E+03  0.18887655927E+01 -0.82097217678E+02  0.25311521609E+03  0.00000000000E+00 0.  1.
<mgrwt>
<rscale>  0 0.57404613E+03</rscale>
<asrwt>0</asrwt>
<pdfrwt beam="1">  1        1 0.10985745E+00 0.57404613E+03</pdfrwt>
<pdfrwt beam="2">  1       -1 0.17749142E-01 0.57404613E+03</pdfrwt>
<totfact> 0.66580855E+02</totfact>
</mgrwt>
</event>
<event>
 6    1  0.1773638E-005  0.5806588E+03  0.7818608E-02  0.9946366E-01
         -2   -1    0    0    0  501 -0.00000000000E+00  0.00000000000E+00  0.90335400089E+02  0.90335400089E+02  0.00000000000E+00 0.  1.
          2   -1    0    0  501    0  0.00000000000E+00 -0.00000000000E+00 -0.93309097679E+03  0.93309097679E+03  0.00000000000E+00 0. -1.
         23    2    1    2    0    0 -0.59849626896E+02 -0.26501141248E+03 -0.31551832506E+03  0.43030569261E+03  0.10861928495E+03 0.  0.
         13    1    3    3    0    0 -0.48471586495E+02 -0.13666022088E+03 -0.24154879916E+03  0.28172918387E+03  0.00000000000E+00 0. -1.
        -13    1    3    3    0    0 -0.11378040401E+02 -0.12835119160E+03 -0.73969525897E+02  0.14857650874E+03  0.00000000000E+00 0.  1.
         22    1    1    2    0    0  0.59849626896E+02  0.26501141248E+03 -0.52723725165E+03  0.59312068427E+03  0.00000000000E+00 0. -1.
<mgrwt>
<rscale>  0 0.58065875E+03</rscale>
<asrwt>0</asrwt>
<pdfrwt beam="1">  1        2 0.14355246E+00 0.58065875E+03</pdfrwt>
<pdfrwt beam="2">  1       -2 0.13897754E-01 0.58065875E+03</pdfrwt>
<totfact> 0.11177332E+03</totfact>
</mgrwt>
</event>
<event>
 6    1  0.1773638E-005  0.1670373E+04  0.7818608E-02  0.8778445E-01
          1   -1    0    0  501    0  0.00000000000E+00  0.00000000000E+00  0.18985106305E+04  0.18985106305E+04  0.00000000000E+00 0. -1.
         -1   -1    0    0    0  501 -0.00000000000E+00 -0.00000000000E+00 -0.36741232325E+03  0.36741232325E+03  0.00000000000E+00 0.  1.
         23    2    1    2    0    0  0.91742511221E+02 -0.61135340289E+03  0.15246716933E+04  0.16476908186E+04  0.89953263610E+02 0.  0.
         11    1    3    3    0    0  0.29217841848E+02 -0.43337394744E+03  0.10053811670E+04  0.10951976770E+04  0.00000000000E+00 0. -1.
        -11    1    3    3    0    0  0.62524669373E+02 -0.17797945545E+03  0.51929052627E+03  0.55249314160E+03  0.00000000000E+00 0.  1.
         22    1    1    2    0    0 -0.91742511221E+02  0.61135340289E+03  0.64266139385E+01  0.61823213517E+03  0.00000000000E+00 0.  1.
<mgrwt>
<rscale>  0 0.16703727E+04</rscale>
<asrwt>0</asrwt>
<pdfrwt beam="1">  1        1 0.29207855E+00 0.16703727E+04</pdfrwt>
<pdfrwt beam="2">  1       -1 0.56524974E-01 0.16703727E+04</pdfrwt>
<totfact> 0.10554640E+01</totfact>
</mgrwt>
</event>
<event>
 6    1  0.1773638E-005  0.5157202E+04  0.7818608E-02  0.7804705E-01
         -2   -1    0    0    0  501 -0.00000000000E+00  0.00000000000E+00  0.16442004596E+04  0.16442004596E+04  0.00000000000E+00 0.  1.
          2   -1    0    0  501    0  0.00000000000E+00 -0.00000000000E+00 -0.40440216918E+04  0.40440216918E+04  0.00000000000E+00 0. -1.
         23    2    1    2    0    0 -0.21636013176E+04 -0.11228915210E+04 -0.27554734877E+03  0.24548654495E+04  0.91553287258E+02 0.  0.
         11    1    3    3    0    0 -0.44547281277E+03 -0.22590944489E+03 -0.19671612385E+02  0.49986805913E+03  0.00000000000E+00 0.  1.
        -11    1    3    3    0    0 -0.17181285048E+04 -0.89698207608E+03 -0.25587573639E+03  0.19549973904E+04  0.00000000000E+00 0. -1.
         22    1    1    2    0    0  0.21636013176E+04  0.11228915210E+04 -0.21242738834E+04  0.32333567018E+04  0.00000000000E+00 0. -1.
<mgrwt>
<rscale>  0 0.51572017E+04</rscale>
<asrwt>0</asrwt>
<pdfrwt beam="1">  1        2 0.62215718E+00 0.51572017E+04</pdfrwt>
<pdfrwt beam="2">  1       -2 0.25295392E+00 0.51572017E+04</pdfrwt>
<totfact> 0.13885013E-02</totfact>
</mgrwt>
</event>
<event>
 6    1  0.1773638E-005  0.1173248E+04  0.7818608E-02  0.9136600E-01
          1   -1    0    0  501    0  0.00000000000E+00  0.00000000000E+00  0.19919288293E+04  0.19919288293E+04  0.00000000000E+00 0. -1.
         -1   -1    0    0    0  501 -0.00000000000E+00 -0.00000000000E+00 -0.17276107883E+03  0.17276107883E+03  0.00000000000E+00 0.  1.
         23    2    1    2    0    0  0.14263414926E+03 -0.38128917044E+03  0.14479605040E+03  0.44153973418E+03  0.90914842645E+02 0.  0.
         11    1    3    3    0    0  0.79867529307E+02 -0.10006493338E+03  0.58412613970E+02  0.14072614043E+03  0.00000000000E+00 0. -1.
        -11    1    3    3    0    0  0.62766619949E+02 -0.28122423707E+03  0.86383436431E+02  0.30081359375E+03  0.00000000000E+00 0.  1.
         22    1    1    2    0    0 -0.14263414926E+03  0.38128917044E+03  0.16743717001E+04  0.17231501740E+04  0.00000000000E+00 0. -1.
<mgrwt>
<rscale>  0 0.11732481E+04</rscale>
<asrwt>0</asrwt>
<pdfrwt beam="1">  1        1 0.30645057E+00 0.11732481E+04</pdfrwt>
<pdfrwt beam="2">  1       -1 0.26578629E-01 0.11732481E+04</pdfrwt>
<totfact> 0.37793736E+01</totfact>
</mgrwt>
</event>
<event>
 6    1  0.1773638E-005  0.1398425E+04  0.7818608E-02  0.8954960E-01
         -2   -1    0    0    0  501 -0.00000000000E+00  0.00000000000E+00  0.48998843072E+03  0.48998843072E+03  0.00000000000E+00 0. -1.
          2   -1    0    0  501    0  0.00000000000E+00 -0.00000000000E+00 -0.99777452050E+03  0.99777452050E+03  0.00000000000E+00 0.  1.
         23    2    1    2    0    0  0.36798773905E+03 -0.12083493079E+03  0.36093400661E+03  0.53661066979E+03  0.87530550171E+02 0.  0.
         11    1    3    3    0    0  0.26033844808E+03 -0.42504979225E+02  0.24722634938E+03  0.36152959579E+03  0.00000000000E+00 0. -1.
        -11    1    3    3    0    0  0.10764929097E+03 -0.78329951561E+02  0.11370765723E+03  0.17508107399E+03  0.00000000000E+00 0.  1.
         22    1    1    2    0    0 -0.36798773905E+03  0.12083493079E+03 -0.86872009639E+03  0.95115228143E+03  0.00000000000E+00 0.  1.
<mgrwt>
<rscale>  0 0.13984248E+04</rscale>
<asrwt>0</asrwt>
<pdfrwt beam="1">  1        2 0.15350377E+00 0.13984248E+04</pdfrwt>
<pdfrwt beam="2">  1       -2 0.75382836E-01 0.13984248E+04</pdfrwt>
<totfact> 0.38849690E+01</totfact>
</mgrwt>
</event>
<event>
 6    1  0.1773638E-005  0.1933175E+04  0.7818608E-02  0.8638517E-01
          1   -1    0    0  501    0  0.00000000000E+00  0.00000000000E+00  0.82911152903E+03  0.82911152903E+03  0.00000000000E+00 0.  1.
         -1   -1    0    0    0  501 -0.00000000000E+00 -0.00000000000E+00 -0.11268589160E+04  0.11268589160E+04  0.00000000000E+00 0. -1.
         23    2    1    2    0    0  0.19084954660E+03 -0.65348875449E+03  0.54175276366E+03  0.87512281259E+03  0.94195427162E+02 0.  0.
         13    1    3    3    0    0  0.14299898317E+03 -0.40355579334E+03  0.38806802025E+03  0.57784321045E+03  0.00000000000E+00 0.  1.
        -13    1    3    3    0    0  0.47850563432E+02 -0.24993296115E+03  0.15368474341E+03  0.29727960214E+03  0.00000000000E+00 0. -1.
         22    1    1    2    0    0 -0.19084954660E+03  0.65348875449E+03 -0.83950015065E+03  0.10808476325E+04  0.00000000000E+00 0. -1.
<mgrwt>
<rscale>  0 0.19331753E+04</rscale>
<asrwt>0</asrwt>
<pdfrwt beam="1">  1        1 0.12755562E+00 0.19331753E+04</pdfrwt>
<pdfrwt beam="2">  1       -1 0.17336291E+00 0.19331753E+04</pdfrwt>
<totfact> 0.45255694E+00</totfact>
</mgrwt>
</event>
<event>
 6    1  0.1773638E-005  0.2229450E+04  0.7818608E-02  0.8506269E-01
         -2   -1    0    0    0  501 -0.00000000000E+00  0.00000000000E+00  0.23210920725E+04  0.23210920725E+04  0.00000000000E+00 0.  1.
          2   -1    0    0  501    0  0.00000000000E+00 -0.00000000000E+00 -0.53535672995E+03  0.53535672995E+03  0.00000000000E+00 0. -1.
         23    2    1    2    0    0  0.52937862312E+03  0.93558240205E+03  0.52559302278E+03  0.12000929156E+04  0.91754143951E+02 0.  0.
         11    1    3    3    0    0  0.23810143923E+03  0.33098297558E+03  0.20384806718E+03  0.45584653117E+03  0.00000000000E+00 0.  1.
        -11    1    3    3    0    0  0.29127718389E+03  0.60459942647E+03  0.32174495561E+03  0.74424638447E+03  0.00000000000E+00 0. -1.
         22    1    1    2    0    0 -0.52937862312E+03 -0.93558240205E+03  0.12601423197E+04  0.16563558868E+04  0.00000000000E+00 0.  1.
<mgrwt>
<rscale>  0 0.22294504E+04</rscale>
<asrwt>0</asrwt>
<pdfrwt beam="1">  1        2 0.82362575E-01 0.22294504E+04</pdfrwt>
<pdfrwt beam="2">  1       -2 0.35709108E+00 0.22294504E+04</pdfrwt>
<totfact> 0.72823756E-01</totfact>
</mgrwt>
</event>
<event>
 6    1  0.1773638E-005  0.1775001E+04  0.7818608E-02  0.8719708E-01
         -1   -1    0    0    0  501 -0.00000000000E+00  0.00000000000E+00  0.60800706522E+03  0.60800706522E+03  0.00000000000E+00 0.  1.
          1   -1    0    0  501    0  0.00000000000E+00 -0.00000000000E+00 -0.12954731077E+04  0.12954731077E+04  0.00000000000E+00 0. -1.
         23    2    1    2    0    0  0.36187881821E+03 -0.14045490490E+03  0.50863863256E+03  0.64596267682E+03  0.88716751160E+02 0.  0.
         11    1    3    3    0    0  0.73522956706E+02  0.41924032633E+01  0.12097073924E+03  0.14162316604E+03  0.00000000000E+00 0. -1.
        -11    1    3    3    0    0  0.28835586150E+03 -0.14464730816E+03  0.38766789332E+03  0.50433951078E+03  0.00000000000E+00 0.  1.
         22    1    1    2    0    0 -0.36187881821E+03  0.14045490490E+03 -0.11961046750E+04  0.12575174961E+04  0.00000000000E+00 0. -1.
<mgrwt>
<rscale>  0 0.17750006E+04</rscale>
<asrwt>0</asrwt>
<pdfrwt beam="1">  1        1 0.19930355E+00 0.17750006E+04</pdfrwt>
<pdfrwt beam="2">  1       -1 0.93539549E-01 0.17750006E+04</pdfrwt>
<totfact> 0.95544572E+00</totfact>
</mgrwt>
</event>
<event>
 6    1  0.1773638E-005  0.5163806E+04  0.7818608E-02  0.7803724E-01
         -2   -1    0    0    0  501 -0.00000000000E+00  0.00000000000E+00  0.20604269161E+04  0.20604269161E+04  0.00000000000E+00 0.  1.
          2   -1    0    0  501    0  0.00000000000E+00 -0.00000000000E+00 -0.32353601332E+04  0.32353601332E+04  0.00000000000E+00 0. -1.
         23    2    1    2    0    0  0.16243998091E+04 -0.16608664577E+04 -0.17410930927E+04  0.29046180601E+04  0.90822835693E+02 0.  0.
         13    1    3    3    0    0  0.52951518498E+03 -0.50798674503E+03 -0.59407166247E+03  0.94411757975E+03  0.00000000000E+00 0.  1.
        -13    1    3    3    0    0  0.10948846241E+04 -0.11528797127E+04 -0.11470214302E+04  0.19605004803E+04  0.00000000000E+00 0. -1.
         22    1    1    2    0    0 -0.16243998091E+04  0.16608664577E+04  0.56615987559E+03  0.23911689892E+04  0.00000000000E+00 0.  1.
<mgrwt>
<rscale>  0 0.51638060E+04</rscale>
<asrwt>0</asrwt>
<pdfrwt beam="1">  1        2 0.49774771E+00 0.51638060E+04</pdfrwt>
<pdfrwt beam="2">  1       -2 0.31698876E+00 0.51638060E+04</pdfrwt>
<totfact> 0.22055804E-02</totfact>
</mgrwt>
</event>
<event>
 6    1  0.1773638E-005  0.2485197E+04  0.7818608E-02  0.8408278E-01
          1   -1    0    0  501    0  0.00000000000E+00  0.00000000000E+00  0.14435068811E+04  0.14435068811E+04  0.00000000000E+00 0. -1.
         -1   -1    0    0    0  501 -0.00000000000E+00 -0.00000000000E+00 -0.10696524544E+04  0.10696524544E+04  0.00000000000E+00 0.  1.
         23    2    1    2    0    0  0.22567151931E+03  0.25900030506E+03  0.13929899802E+04  0.14376845246E+04  0.92232938034E+02 0.  0.
         13    1    3    3    0    0  0.14685466228E+03  0.22701881800E+03  0.10823446332E+04  0.11156046525E+04  0.00000000000E+00 0. -1.
        -13    1    3    3    0    0  0.78816857035E+02  0.31981487057E+02  0.31064534697E+03  0.32207987218E+03  0.00000000000E+00 0.  1.
         22    1    1    2    0    0 -0.22567151931E+03 -0.25900030506E+03 -0.10191355535E+04  0.10754748110E+04  0.00000000000E+00 0.  1.
<mgrwt>
<rscale>  0 0.24851967E+04</rscale>
<asrwt>0</asrwt>
<pdfrwt beam="1">  1        1 0.22207798E+00 0.24851967E+04</pdfrwt>
<pdfrwt beam="2">  1       -1 0.16456192E+00 0.24851967E+04</pdfrwt>
<totfact> 0.17202979E+00</totfact>
</mgrwt>
</event>
<event>
 6    1  0.1773638E-005  0.1769574E+04  0.7818608E-02  0.8722649E-01
         -1   -1    0    0    0  501 -0.00000000000E+00  0.00000000000E+00  0.68205203004E+03  0.68205203004E+03  0.00000000000E+00 0.  1.
          1   -1    0    0  501    0  0.00000000000E+00 -0.00000000000E+00 -0.11477836170E+04  0.11477836170E+04  0.00000000000E+00 0. -1.
         23    2    1    2    0    0  0.74567419455E+02  0.29465672345E+03 -0.10903088086E+04  0.11352281389E+04  0.87101920366E+02 0.  0.
         13    1    3    3    0    0  0.71263385330E+02  0.13049060186E+03 -0.60035662509E+03  0.61849360915E+03  0.00000000000E+00 0. -1.
        -13    1    3    3    0    0  0.33040341247E+01  0.16416612160E+03 -0.48995218346E+03  0.51673452971E+03  0.00000000000E+00 0.  1.
         22    1    1    2    0    0 -0.74567419455E+02 -0.29465672345E+03  0.62457722159E+03  0.69460750820E+03  0.00000000000E+00 0.  1.
<mgrwt>
<rscale>  0 0.17695741E+04</rscale>
<asrwt>0</asrwt>
<pdfrwt beam="1">  1        1 0.17658209E+00 0.17695741E+04</pdfrwt>
<pdfrwt beam="2">  1       -1 0.10493108E+00 0.17695741E+04</pdfrwt>
<totfact> 0.94202998E+00</totfact>
</mgrwt>
</event>
<event>
 6    1  0.1773638E-005  0.1377822E+04  0.7818608E-02  0.8970030E-01
         -2   -1    0    0    0  501 -0.00000000000E+00  0.00000000000E+00  0.26781124322E+03  0.26781124322E+03  0.00000000000E+00 0. -1.
          2   -1    0    0  501    0  0.00000000000E+00 -0.00000000000E+00 -0.17721374485E+04  0.17721374485E+04  0.00000000000E+00 0.  1.
         23    2    1    2    0    0  0.29740579325E+03 -0.19998571676E+03 -0.16212025205E+04  0.16629810991E+04  0.93616403245E+02 0.  0.
         13    1    3    3    0    0  0.15633664185E+03 -0.15523811586E+03 -0.88120326937E+03  0.90832770526E+03  0.00000000000E+00 0. -1.
        -13    1    3    3    0    0  0.14106915140E+03 -0.44747600899E+02 -0.73999925109E+03  0.75465339387E+03  0.00000000000E+00 0.  1.
         22    1    1    2    0    0 -0.29740579325E+03  0.19998571676E+03  0.11687631523E+03  0.37696759254E+03  0.00000000000E+00 0. -1.
<mgrwt>
<rscale>  0 0.13778220E+04</rscale>
<asrwt>0</asrwt>
<pdfrwt beam="1">  1        2 0.27263653E+00 0.13778220E+04</pdfrwt>
<pdfrwt beam="2">  1       -2 0.41201730E-01 0.13778220E+04</pdfrwt>
<totfact> 0.48639370E+01</totfact>
</mgrwt>
</event>
<event>
 6    1  0.1773638E-005  0.2186094E+04  0.7818608E-02  0.8524238E-01
         -2   -1    0    0    0  501 -0.00000000000E+00  0.00000000000E+00  0.14814748405E+04  0.14814748405E+04  0.00000000000E+00 0.  1.
          2   -1    0    0  501    0  0.00000000000E+00 -0.00000000000E+00 -0.80646113625E+03  0.80646113625E+03  0.00000000000E+00 0. -1.
         23    2    1    2    0    0  0.59220067631E+03 -0.49559046858E+03 -0.46864577887E+03  0.90798359826E+03  0.92161787585E+02 0.  0.
         13    1    3    3    0    0  0.42142067594E+03 -0.29691862007E+03 -0.32022214625E+03  0.60687583244E+03  0.00000000000E+00 0. -1.
        -13    1    3    3    0    0  0.17078000037E+03 -0.19867184851E+03 -0.14842363262E+03  0.30110776582E+03  0.00000000000E+00 0.  1.
         22    1    1    2    0    0 -0.59220067631E+03  0.49559046858E+03  0.11436594831E+04  0.13799523785E+04  0.00000000000E+00 0.  1.
<mgrwt>
<rscale>  0 0.21860941E+04</rscale>
<asrwt>0</asrwt>
<pdfrwt beam="1">  1        2 0.12407094E+00 0.21860941E+04</pdfrwt>
<pdfrwt beam="2">  1       -2 0.22791921E+00 0.21860941E+04</pdfrwt>
<totfact> 0.27465325E+00</totfact>
</mgrwt>
</event>
<event>
 6    1  0.1773638E-005  0.8512933E+03  0.7818608E-02  0.9488603E-01
          1   -1    0    0  501    0  0.00000000000E+00  0.00000000000E+00  0.17031286028E+04  0.17031286028E+04  0.00000000000E+00 0. -1.
         -1   -1    0    0    0  501 -0.00000000000E+00 -0.00000000000E+00 -0.10637780627E+03  0.10637780627E+03  0.00000000000E+00 0.  1.
         23    2    1    2    0    0 -0.39700742377E+03 -0.13952120469E+03  0.84734062746E+03  0.95003176572E+03  0.86563016592E+02 0.  0.
         11    1    3    3    0    0 -0.11676160598E+03 -0.50178765246E+00  0.22568514002E+03  0.25410097765E+03  0.00000000000E+00 0. -1.
        -11    1    3    3    0    0 -0.28024581779E+03 -0.13901941704E+03  0.62165548745E+03  0.69593078806E+03  0.00000000000E+00 0.  1.
         22    1    1    2    0    0  0.39700742377E+03  0.13952120469E+03  0.74941016910E+03  0.85947464339E+03  0.00000000000E+00 0. -1.
<mgrwt>
<rscale>  0 0.85129333E+03</rscale>
<asrwt>0</asrwt>
<pdfrwt beam="1">  1        1 0.26201976E+00 0.85129333E+03</pdfrwt>
<pdfrwt beam="2">  1       -1 0.16365818E-01 0.85129333E+03</pdfrwt>
<totfact> 0.13730367E+02</totfact>
</mgrwt>
</event>
<event>
 6    1  0.1773638E-005  0.2291909E+04  0.7818608E-02  0.8481118E-01
          2   -1    0    0  501    0  0.00000000000E+00  0.00000000000E+00  0.26045062790E+04  0.26045062790E+04  0.00000000000E+00 0. -1.
         -2   -1    0    0    0  501 -0.00000000000E+00 -0.00000000000E+00 -0.50420764291E+03  0.50420764291E+03  0.00000000000E+00 0.  1.
         23    2    1    2    0    0  0.28536516614E+03  0.68219107157E+03 -0.13255135621E+03  0.75660061165E+03  0.89759051567E+02 0.  0.
         13    1    3    3    0    0  0.18376532492E+03  0.50746951595E+03 -0.12676040919E+03  0.55440346824E+03  0.00000000000E+00 0. -1.
        -13    1    3    3    0    0  0.10159984122E+03  0.17472155562E+03 -0.57909470220E+01  0.20219714340E+03  0.00000000000E+00 0.  1.
         22    1    1    2    0    0 -0.28536516614E+03 -0.68219107157E+03  0.22328499923E+04  0.23521133102E+04  0.00000000000E+00 0. -1.
<mgrwt>
<rscale>  0 0.22919092E+04</rscale>
<asrwt>0</asrwt>
<pdfrwt beam="1">  1        2 0.40069327E+00 0.22919092E+04</pdfrwt>
<pdfrwt beam="2">  1       -2 0.77570408E-01 0.22919092E+04</pdfrwt>
<totfact> 0.40652172E+00</totfact>
</mgrwt>
</event>
<event>
 6    1  0.1773638E-005  0.2645468E+04  0.7818608E-02  0.8352919E-01
         -1   -1    0    0    0  501 -0.00000000000E+00  0.00000000000E+00  0.85813037789E+03  0.85813037789E+03  0.00000000000E+00 0.  1.
          1   -1    0    0  501    0  0.00000000000E+00 -0.00000000000E+00 -0.20388810018E+04  0.20388810018E+04  0.00000000000E+00 0. -1.
         23    2    1    2    0    0 -0.42293594483E+03 -0.67947938678E+02 -0.19597231356E+04  0.20080288660E+04  0.90406982757E+02 0.  0.
         13    1    3    3    0    0 -0.16059343378E+03  0.16679144406E+02 -0.67050225278E+03  0.68966783005E+03  0.00000000000E+00 0. -1.
        -13    1    3    3    0    0 -0.26234251105E+03 -0.84627083084E+02 -0.12892208828E+04  0.13183610359E+04  0.00000000000E+00 0.  1.
         22    1    1    2    0    0  0.42293594483E+03  0.67947938678E+02  0.77897251167E+03  0.88898251374E+03  0.00000000000E+00 0.  1.
<mgrwt>
<rscale>  0 0.26454684E+04</rscale>
<asrwt>0</asrwt>
<pdfrwt beam="1">  1        1 0.31367400E+00 0.26454684E+04</pdfrwt>
<pdfrwt beam="2">  1       -1 0.13202006E+00 0.26454684E+04</pdfrwt>
<totfact> 0.11995457E+00</totfact>
</mgrwt>
</event>
<event>
 6    1  0.1773638E-005  0.2553332E+04  0.7818608E-02  0.8384228E-01
         -2   -1    0    0    0  501 -0.00000000000E+00  0.00000000000E+00  0.13771798859E+04  0.13771798859E+04  0.00000000000E+00 0.  1.
          2   -1    0    0  501    0  0.00000000000E+00 -0.00000000000E+00 -0.11834877576E+04  0.11834877576E+04  0.00000000000E+00 0. -1.
         23    2    1    2    0    0 -0.18224266884E+03  0.62914704469E+03 -0.10002042180E+04  0.11988942116E+04  0.88884524893E+02 0.  0.
         11    1    3    3    0    0 -0.86659937590E+02  0.26096311748E+03 -0.49823357513E+03  0.56907678643E+03  0.00000000000E+00 0.  1.
        -11    1    3    3    0    0 -0.95582731248E+02  0.36818392721E+03 -0.50197064287E+03  0.62981742519E+03  0.00000000000E+00 0. -1.
         22    1    1    2    0    0  0.18224266884E+03 -0.62914704469E+03  0.11938963462E+04  0.13617734319E+04  0.00000000000E+00 0.  1.
<mgrwt>
<rscale>  0 0.25533316E+04</rscale>
<asrwt>0</asrwt>
<pdfrwt beam="1">  1        2 0.18207504E+00 0.25533316E+04</pdfrwt>
<pdfrwt beam="2">  1       -2 0.21187383E+00 0.25533316E+04</pdfrwt>
<totfact> 0.19163071E+00</totfact>
</mgrwt>
</event>
<event>
 6    1  0.1773638E-005  0.2434770E+04  0.7818608E-02  0.8426600E-01
          2   -1    0    0  501    0  0.00000000000E+00  0.00000000000E+00  0.22779389344E+04  0.22779389344E+04  0.00000000000E+00 0.  1.
         -2   -1    0    0    0  501 -0.00000000000E+00 -0.00000000000E+00 -0.65059946873E+03  0.65059946873E+03  0.00000000000E+00 0. -1.
         23    2    1    2    0    0  0.38127584467E+03 -0.94104393813E+03  0.10788711063E+02  0.10195671342E+04  0.92009682691E+02 0.  0.
         11    1    3    3    0    0  0.14662828039E+03 -0.34633261566E+03 -0.40053915601E+02  0.37822010713E+03  0.00000000000E+00 0. -1.
        -11    1    3    3    0    0  0.23464756428E+03 -0.59471132247E+03  0.50842626664E+02  0.64134702711E+03  0.00000000000E+00 0.  1.
         22    1    1    2    0    0 -0.38127584467E+03  0.94104393813E+03  0.16165507546E+04  0.19089712689E+04  0.00000000000E+00 0. -1.
<mgrwt>
<rscale>  0 0.24347697E+04</rscale>
<asrwt>0</asrwt>
<pdfrwt beam="1">  1        2 0.35045214E+00 0.24347697E+04</pdfrwt>
<pdfrwt beam="2">  1       -2 0.10009223E+00 0.24347697E+04</pdfrwt>
<totfact> 0.34479792E+00</totfact>
</mgrwt>
</event>
<event>
 6    1  0.1773638E-005  0.4074680E+04  0.7818608E-02  0.7989648E-01
          2   -1    0    0  501    0  0.00000000000E+00  0.00000000000E+00  0.24443074418E+04  0.24443074418E+04  0.00000000000E+00 0.  1.
         -2   -1    0    0    0  501 -0.00000000000E+00 -0.00000000000E+00 -0.16981309189E+04  0.16981309189E+04  0.00000000000E+00 0. -1.
         23    2    1    2    0    0  0.11228471279E+04  0.85168071681E+03 -0.11210654252E+04  0.18030499344E+04  0.89753343000E+02 0.  0.
         11    1    3    3    0    0  0.63052935880E+03  0.42489428589E+03 -0.62149821972E+03  0.98201958413E+03  0.00000000000E+00 0. -1.
        -11    1    3    3    0    0  0.49231776909E+03  0.42678643091E+03 -0.49956720547E+03  0.82103035032E+03  0.00000000000E+00 0.  1.
         22    1    1    2    0    0 -0.11228471279E+04 -0.85168071681E+03  0.18672419481E+04  0.23393884262E+04  0.00000000000E+00 0.  1.
<mgrwt>
<rscale>  0 0.40746799E+04</rscale>
<asrwt>0</asrwt>
<pdfrwt beam="1">  1        2 0.37604730E+00 0.40746799E+04</pdfrwt>
<pdfrwt beam="2">  1       -2 0.26125091E+00 0.40746799E+04</pdfrwt>
<totfact> 0.16115917E-01</totfact>
</mgrwt>
</event>
<event>
 6    1  0.1773638E-005  0.2472254E+04  0.7818608E-02  0.8412937E-01
          2   -1    0    0  501    0  0.00000000000E+00  0.00000000000E+00  0.71926795567E+03  0.71926795567E+03  0.00000000000E+00 0. -1.
         -2   -1    0    0    0  501 -0.00000000000E+00 -0.00000000000E+00 -0.21243968181E+04  0.21243968181E+04  0.00000000000E+00 0.  1.
         23    2    1    2    0    0 -0.45264085152E+03 -0.40785488466E+03 -0.19378051944E+04  0.20343604911E+04  0.11092469955E+03 0.  0.
         11    1    3    3    0    0 -0.91315616130E+02 -0.13265356163E+03 -0.61573735014E+03  0.63644952158E+03  0.00000000000E+00 0. -1.
        -11    1    3    3    0    0 -0.36132523538E+03 -0.27520132303E+03 -0.13220678443E+04  0.13979109695E+04  0.00000000000E+00 0.  1.
         22    1    1    2    0    0  0.45264085152E+03  0.40785488466E+03  0.53267633192E+03  0.80930428270E+03  0.00000000000E+00 0. -1.
<mgrwt>
<rscale>  0 0.24722545E+04</rscale>
<asrwt>0</asrwt>
<pdfrwt beam="1">  1        2 0.11065661E+00 0.24722545E+04</pdfrwt>
<pdfrwt beam="2">  1       -2 0.32683027E+00 0.24722545E+04</pdfrwt>
<totfact> 0.76884991E-01</totfact>
</mgrwt>
</event>
<event>
 6    1  0.1773638E-005  0.1266277E+04  0.7818608E-02  0.9056744E-01
          2   -1    0    0  501    0  0.00000000000E+00  0.00000000000E+00  0.11692735582E+04  0.11692735582E+04  0.00000000000E+00 0. -1.
         -2   -1    0    0    0  501 -0.00000000000E+00 -0.00000000000E+00 -0.34283194623E+03  0.34283194623E+03  0.00000000000E+00 0.  1.
         23    2    1    2    0    0 -0.18766926420E+03 -0.55048843260E+03  0.70407141368E+03  0.91777248950E+03  0.91282636817E+02 0.  0.
         11    1    3    3    0    0 -0.11410916561E+03 -0.43738636546E+03  0.51109793492E+03  0.68231139038E+03  0.00000000000E+00 0.  1.
        -11    1    3    3    0    0 -0.73560098594E+02 -0.11310206713E+03  0.19297347876E+03  0.23546109912E+03  0.00000000000E+00 0. -1.
         22    1    1    2    0    0  0.18766926420E+03  0.55048843260E+03  0.12237019825E+03  0.59433301488E+03  0.00000000000E+00 0.  1.
<mgrwt>
<rscale>  0 0.12662770E+04</rscale>
<asrwt>0</asrwt>
<pdfrwt beam="1">  1        2 0.17988824E+00 0.12662770E+04</pdfrwt>
<pdfrwt beam="2">  1       -2 0.52743377E-01 0.12662770E+04</pdfrwt>
<totfact> 0.65831832E+01</totfact>
</mgrwt>
</event>
<event>
 6    1  0.1773638E-005  0.1555368E+04  0.7818608E-02  0.8848446E-01
         -1   -1    0    0    0  501 -0.00000000000E+00  0.00000000000E+00  0.44680557142E+03  0.44680557142E+03  0.00000000000E+00 0.  1.
          1   -1    0    0  501    0  0.00000000000E+00 -0.00000000000E+00 -0.13535920531E+04  0.13535920531E+04  0.00000000000E+00 0. -1.
         23    2    1    2    0    0 -0.16694852684E+03 -0.53464548172E+03  0.16506770121E+03  0.59102216954E+03  0.91335957657E+02 0.  0.
         13    1    3    3    0    0 -0.15767688015E+03 -0.38281863683E+03  0.13876391480E+03  0.43665493388E+03  0.00000000000E+00 0. -1.
        -13    1    3    3    0    0 -0.92716466936E+01 -0.15182684490E+03  0.26303786409E+02  0.15436723566E+03  0.00000000000E+00 0.  1.
         22    1    1    2    0    0  0.16694852684E+03  0.53464548172E+03 -0.10718541829E+04  0.12093754550E+04  0.00000000000E+00 0. -1.
<mgrwt>
<rscale>  0 0.15553681E+04</rscale>
<asrwt>0</asrwt>
<pdfrwt beam="1">  1        1 0.20824493E+00 0.15553681E+04</pdfrwt>
<pdfrwt beam="2">  1       -1 0.68739320E-01 0.15553681E+04</pdfrwt>
<totfact> 0.17086731E+01</totfact>
</mgrwt>
</event>
<event>
 6    1  0.1773638E-005  0.9941825E+03  0.7818608E-02  0.9314948E-01
         -2   -1    0    0    0  501 -0.00000000000E+00  0.00000000000E+00  0.24683611981E+03  0.24683611981E+03  0.00000000000E+00 0.  1.
          2   -1    0    0  501    0  0.00000000000E+00 -0.00000000000E+00 -0.10010679685E+04  0.10010679685E+04  0.00000000000E+00 0. -1.
         23    2    1    2    0    0  0.49543827499E+02  0.29666180446E+03 -0.87040990496E+03  0.92547555698E+03  0.91808424678E+02 0.  0.
         13    1    3    3    0    0  0.35249178495E+02  0.76803662273E+02 -0.35556237232E+03  0.36546669853E+03  0.00000000000E+00 0. -1.
        -13    1    3    3    0    0  0.14294649004E+02  0.21985814219E+03 -0.51484753264E+03  0.56000885845E+03  0.00000000000E+00 0.  1.
         22    1    1    2    0    0 -0.49543827499E+02 -0.29666180446E+03  0.11617805626E+03  0.32242853135E+03  0.00000000000E+00 0.  1.
<mgrwt>
<rscale>  0 0.99418254E+03</rscale>
<asrwt>0</asrwt>
<pdfrwt beam="1">  1        2 0.15401046E+00 0.99418254E+03</pdfrwt>
<pdfrwt beam="2">  1       -2 0.37974787E-01 0.99418254E+03</pdfrwt>
<totfact> 0.16421827E+02</totfact>
</mgrwt>
</event>
<event>
 6    1  0.1773638E-005  0.1874442E+04  0.7818608E-02  0.8667684E-01
         -1   -1    0    0    0  501 -0.00000000000E+00  0.00000000000E+00  0.29655650312E+03  0.29655650312E+03  0.00000000000E+00 0.  1.
          1   -1    0    0  501    0  0.00000000000E+00 -0.00000000000E+00 -0.29619435950E+04  0.29619435950E+04  0.00000000000E+00 0. -1.
         23    2    1    2    0    0  0.64631817365E+03 -0.47225163765E+03 -0.49240209388E+03  0.94276855228E+03  0.74859403217E+02 0.  0.
         11    1    3    3    0    0  0.37640206170E+03 -0.30893792620E+03 -0.27019250348E+03  0.55688880688E+03  0.00000000000E+00 0. -1.
        -11    1    3    3    0    0  0.26991611196E+03 -0.16331371145E+03 -0.22220959040E+03  0.38587974540E+03  0.00000000000E+00 0.  1.
         22    1    1    2    0    0 -0.64631817365E+03  0.47225163765E+03 -0.21729849980E+04  0.23157315458E+04  0.00000000000E+00 0. -1.
<mgrwt>
<rscale>  0 0.18744425E+04</rscale>
<asrwt>0</asrwt>
<pdfrwt beam="1">  1        1 0.45568362E+00 0.18744425E+04</pdfrwt>
<pdfrwt beam="2">  1       -1 0.45624079E-01 0.18744425E+04</pdfrwt>
<totfact> 0.28583254E+00</totfact>
</mgrwt>
</event>
<event>
 6    1  0.1773638E-005  0.2745301E+04  0.7818608E-02  0.8320454E-01
         -2   -1    0    0    0  501 -0.00000000000E+00  0.00000000000E+00  0.70158314349E+03  0.70158314349E+03  0.00000000000E+00 0.  1.
          2   -1    0    0  501    0  0.00000000000E+00 -0.00000000000E+00 -0.26855957578E+04  0.26855957578E+04  0.00000000000E+00 0. -1.
         23    2    1    2    0    0  0.59374536576E+03  0.61035086572E+03 -0.23189817623E+04  0.24721564596E+04  0.93911703090E+02 0.  0.
         11    1    3    3    0    0  0.52993935039E+03  0.54561557997E+03 -0.21449637100E+04  0.22758298252E+04  0.00000000000E+00 0. -1.
        -11    1    3    3    0    0  0.63806015366E+02  0.64735285747E+02 -0.17401805235E+03  0.19632663437E+03  0.00000000000E+00 0.  1.
         22    1    1    2    0    0 -0.59374536576E+03 -0.61035086572E+03  0.33496914805E+03  0.91502244168E+03  0.00000000000E+00 0.  1.
<mgrwt>
<rscale>  0 0.27453005E+04</rscale>
<asrwt>0</asrwt>
<pdfrwt beam="1">  1        2 0.41316859E+00 0.27453005E+04</pdfrwt>
<pdfrwt beam="2">  1       -2 0.10793587E+00 0.27453005E+04</pdfrwt>
<totfact> 0.16278357E+00</totfact>
</mgrwt>
</event>
<event>
 6    1  0.1773638E-005  0.1628041E+04  0.7818608E-02  0.8803504E-01
          2   -1    0    0  501    0  0.00000000000E+00  0.00000000000E+00  0.37129363140E+04  0.37129363140E+04  0.00000000000E+00 0.  1.
         -2   -1    0    0    0  501 -0.00000000000E+00 -0.00000000000E+00 -0.17846501235E+03  0.17846501235E+03  0.00000000000E+00 0. -1.
         23    2    1    2    0    0 -0.29899014450E+03 -0.74427220855E+03  0.14782258274E+04  0.16842579967E+04  0.90758888932E+02 0.  0.
         13    1    3    3    0    0 -0.22461279696E+03 -0.44584671138E+03  0.88824228991E+03  0.10189232376E+04  0.00000000000E+00 0.  1.
        -13    1    3    3    0    0 -0.74377347538E+02 -0.29842549717E+03  0.58998353744E+03  0.66533475908E+03  0.00000000000E+00 0. -1.
         22    1    1    2    0    0  0.29899014450E+03  0.74427220855E+03  0.20562454743E+04  0.22071433296E+04  0.00000000000E+00 0.  1.
<mgrwt>
<rscale>  0 0.16280408E+04</rscale>
<asrwt>0</asrwt>
<pdfrwt beam="1">  1        2 0.57122091E+00 0.16280408E+04</pdfrwt>
<pdfrwt beam="2">  1       -2 0.27456158E-01 0.16280408E+04</pdfrwt>
<totfact> 0.66994633E+00</totfact>
</mgrwt>
</event>
<event>
 6    1  0.1773638E-005  0.2302879E+04  0.7818608E-02  0.8476787E-01
         -1   -1    0    0    0  501 -0.00000000000E+00  0.00000000000E+00  0.27357293541E+04  0.27357293541E+04  0.00000000000E+00 0.  1.
          1   -1    0    0  501    0  0.00000000000E+00 -0.00000000000E+00 -0.48462880017E+03  0.48462880017E+03  0.00000000000E+00 0. -1.
         23    2    1    2    0    0 -0.13741393294E+03  0.79959960864E+03  0.22662844201E+04  0.24088948631E+04  0.92126356363E+02 0.  0.
         11    1    3    3    0    0 -0.47868307450E+02  0.30102602504E+03  0.98614845330E+03  0.10321806114E+04  0.00000000000E+00 0. -1.
        -11    1    3    3    0    0 -0.89545625490E+02  0.49857358361E+03  0.12801359668E+04  0.13767142517E+04  0.00000000000E+00 0.  1.
         22    1    1    2    0    0  0.13741393294E+03 -0.79959960864E+03 -0.15183866185E+02  0.81146329116E+03  0.00000000000E+00 0. -1.
<mgrwt>
<rscale>  0 0.23028793E+04</rscale>
<asrwt>0</asrwt>
<pdfrwt beam="1">  1        1 0.74558279E-01 0.23028793E+04</pdfrwt>
<pdfrwt beam="2">  1       -1 0.42088143E+00 0.23028793E+04</pdfrwt>
<totfact> 0.21505039E-01</totfact>
</mgrwt>
</event>
<event>
 6    1  0.1773638E-005  0.1860033E+04  0.7818608E-02  0.8675010E-01
          2   -1    0    0  501    0  0.00000000000E+00  0.00000000000E+00  0.22350581804E+04  0.22350581804E+04  0.00000000000E+00 0. -1.
         -2   -1    0    0    0  501 -0.00000000000E+00 -0.00000000000E+00 -0.38698338552E+03  0.38698338552E+03  0.00000000000E+00 0.  1.
         23    2    1    2    0    0 -0.55305536852E+03 -0.19776274502E+02 -0.12349295585E+03  0.57427675095E+03  0.91005136432E+02 0.  0.
         13    1    3    3    0    0 -0.13860082469E+03  0.29852480373E+02 -0.50639366391E+02  0.15055133549E+03  0.00000000000E+00 0. -1.
        -13    1    3    3    0    0 -0.41445454383E+03 -0.49628754875E+02 -0.72853589464E+02  0.42372541546E+03  0.00000000000E+00 0.  1.
         22    1    1    2    0    0  0.55305536852E+03  0.19776274502E+02  0.19715677507E+04  0.20477648150E+04  0.00000000000E+00 0. -1.
<mgrwt>
<rscale>  0 0.18600327E+04</rscale>
<asrwt>0</asrwt>
<pdfrwt beam="1">  1        2 0.34385510E+00 0.18600327E+04</pdfrwt>
<pdfrwt beam="2">  1       -2 0.59535907E-01 0.18600327E+04</pdfrwt>
<totfact> 0.12208506E+01</totfact>
</mgrwt>
</event>
<event>
 6    1  0.1773638E-005  0.4891509E+04  0.7818608E-02  0.7845464E-01
          2   -1    0    0  501    0  0.00000000000E+00  0.00000000000E+00  0.35198511230E+04  0.35198511230E+04  0.00000000000E+00 0. -1.
         -2   -1    0    0    0  501 -0.00000000000E+00 -0.00000000000E+00 -0.16994228591E+04  0.16994228591E+04  0.00000000000E+00 0.  1.
         23    2    1    2    0    0  0.70358643901E+03  0.22742722677E+04  0.31622872722E+03  0.24032547224E+04  0.91018834741E+02 0.  0.
         11    1    3    3    0    0  0.27042636580E+03  0.74373763826E+03  0.12401979535E+03  0.80103495774E+03  0.00000000000E+00 0. -1.
        -11    1    3    3    0    0  0.43316007321E+03  0.15305346294E+04  0.19220893186E+03  0.16022197647E+04  0.00000000000E+00 0.  1.
         22    1    1    2    0    0 -0.70358643901E+03 -0.22742722677E+04  0.15041995367E+04  0.28160192596E+04  0.00000000000E+00 0. -1.
<mgrwt>
<rscale>  0 0.48915092E+04</rscale>
<asrwt>0</asrwt>
<pdfrwt beam="1">  1        2 0.54151556E+00 0.48915092E+04</pdfrwt>
<pdfrwt beam="2">  1       -2 0.26144967E+00 0.48915092E+04</pdfrwt>
<totfact> 0.31537989E-02</totfact>
</mgrwt>
</event>
<event>
 6    1  0.1773638E-005  0.3199200E+04  0.7818608E-02  0.8189029E-01
         -1   -1    0    0    0  501 -0.00000000000E+00  0.00000000000E+00  0.19171049565E+04  0.19171049565E+04  0.00000000000E+00 0.  1.
          1   -1    0    0  501    0  0.00000000000E+00 -0.00000000000E+00 -0.13346790681E+04  0.13346790681E+04  0.00000000000E+00 0. -1.
         23    2    1    2    0    0 -0.89508279892E+03  0.75954719611E+03 -0.81069418341E+03  0.14300077774E+04  0.98040932189E+02 0.  0.
         11    1    3    3    0    0 -0.76934200245E+03  0.67274160724E+03 -0.73927218653E+03  0.12613452155E+04  0.00000000000E+00 0.  1.
        -11    1    3    3    0    0 -0.12574079647E+03  0.86805588871E+02 -0.71421996880E+02  0.16866256192E+03  0.00000000000E+00 0. -1.
         22    1    1    2    0    0  0.89508279892E+03 -0.75954719611E+03  0.13931200718E+04  0.18217762471E+04  0.00000000000E+00 0.  1.
<mgrwt>
<rscale>  0 0.31991998E+04</rscale>
<asrwt>0</asrwt>
<pdfrwt beam="1">  1        1 0.20533524E+00 0.31991998E+04</pdfrwt>
<pdfrwt beam="2">  1       -1 0.29493922E+00 0.31991998E+04</pdfrwt>
<totfact> 0.25460743E-01</totfact>
</mgrwt>
</event>
<event>
 6    1  0.1773638E-005  0.1725135E+04  0.7818608E-02  0.8747157E-01
          2   -1    0    0  501    0  0.00000000000E+00  0.00000000000E+00  0.34552414725E+04  0.34552414725E+04  0.00000000000E+00 0. -1.
         -2   -1    0    0    0  501 -0.00000000000E+00 -0.00000000000E+00 -0.21533166031E+03  0.21533166031E+03  0.00000000000E+00 0.  1.
         23    2    1    2    0    0 -0.11975694865E+03 -0.47029626840E+03  0.31355568876E+04  0.31741762758E+04  0.90320139018E+02 0.  0.
         11    1    3    3    0    0 -0.19406521315E+02 -0.25879516816E+03  0.16359395439E+04  0.16563966142E+04  0.00000000000E+00 0. -1.
        -11    1    3    3    0    0 -0.10035042733E+03 -0.21150110024E+03  0.14996173437E+04  0.15177796616E+04  0.00000000000E+00 0.  1.
         22    1    1    2    0    0  0.11975694865E+03  0.47029626840E+03  0.10435292462E+03  0.49639685706E+03  0.00000000000E+00 0.  1.
<mgrwt>
<rscale>  0 0.17251352E+04</rscale>
<asrwt>0</asrwt>
<pdfrwt beam="1">  1        2 0.53157557E+00 0.17251352E+04</pdfrwt>
<pdfrwt beam="2">  1       -2 0.33127950E-01 0.17251352E+04</pdfrwt>
<totfact> 0.71210036E+00</totfact>
</mgrwt>
</event>
<event>
 6    1  0.1773638E-005  0.1893910E+04  0.7818608E-02  0.8657894E-01
         -1   -1    0    0    0  501 -0.00000000000E+00  0.00000000000E+00  0.37514896061E+03  0.37514896061E+03  0.00000000000E+00 0.  1.
          1   -1    0    0  501    0  0.00000000000E+00 -0.00000000000E+00 -0.23903131218E+04  0.23903131218E+04  0.00000000000E+00 0. -1.
         23    2    1    2    0    0 -0.25495629939E+03 -0.13330099664E+03 -0.23239104296E+04  0.23434477123E+04  0.91736714664E+02 0.  0.
         13    1    3    3    0    0 -0.30654082597E+02  0.26251537154E+01 -0.47912768632E+03  0.48011446970E+03  0.00000000000E+00 0. -1.
        -13    1    3    3    0    0 -0.22430221679E+03 -0.13592615036E+03 -0.18447827433E+04  0.18633332426E+04  0.00000000000E+00 0.  1.
         22    1    1    2    0    0  0.25495629939E+03  0.13330099664E+03  0.30874626847E+03  0.42201437013E+03  0.00000000000E+00 0.  1.
<mgrwt>
<rscale>  0 0.18939097E+04</rscale>
<asrwt>0</asrwt>
<pdfrwt beam="1">  1        1 0.36774048E+00 0.18939097E+04</pdfrwt>
<pdfrwt beam="2">  1       -1 0.57715225E-01 0.18939097E+04</pdfrwt>
<totfact> 0.45948334E+00</totfact>
</mgrwt>
</event>
<event>
 6    1  0.1773638E-005  0.5007411E+04  0.7818608E-02  0.7827365E-01
          2   -1    0    0  501    0  0.00000000000E+00  0.00000000000E+00  0.33197923639E+04  0.33197923639E+04  0.00000000000E+00 0. -1.
         -2   -1    0    0    0  501 -0.00000000000E+00 -0.00000000000E+00 -0.18882331076E+04  0.18882331076E+04  0.00000000000E+00 0.  1.
         23    2    1    2    0    0 -0.18483158718E+04  0.12944444806E+04 -0.41017158555E+03  0.22953238786E+04  0.91721876189E+02 0.  0.
         13    1    3    3    0    0 -0.42486214054E+03  0.25183710152E+03 -0.83726623687E+02  0.50093902990E+03  0.00000000000E+00 0.  1.
        -13    1    3    3    0    0 -0.14234537313E+04  0.10426073791E+04 -0.32644496187E+03  0.17943848487E+04  0.00000000000E+00 0. -1.
         22    1    1    2    0    0  0.18483158718E+04 -0.12944444806E+04  0.18417308419E+04  0.29127015929E+04  0.00000000000E+00 0.  1.
<mgrwt>
<rscale>  0 0.50074112E+04</rscale>
<asrwt>0</asrwt>
<pdfrwt beam="1">  1        2 0.51073729E+00 0.50074112E+04</pdfrwt>
<pdfrwt beam="2">  1       -2 0.29049740E+00 0.50074112E+04</pdfrwt>
<totfact> 0.28524557E-02</totfact>
</mgrwt>
</event>
<event>
 6    1  0.1773638E-005  0.4479773E+04  0.7818608E-02  0.7914188E-01
         -2   -1    0    0    0  501 -0.00000000000E+00  0.00000000000E+00  0.25664075733E+04  0.25664075733E+04  0.00000000000E+00 0.  1.
          2   -1    0    0  501    0  0.00000000000E+00 -0.00000000000E+00 -0.19549079734E+04  0.19549079734E+04  0.00000000000E+00 0. -1.
         23    2    1    2    0    0  0.20949335470E+03 -0.34966034705E+03  0.25278303648E+04  0.25621133048E+04  0.91369631449E+02 0.  0.
         11    1    3    3    0    0  0.10478641844E+03 -0.16544085948E+03  0.93807047211E+03  0.95829383913E+03  0.00000000000E+00 0.  1.
        -11    1    3    3    0    0  0.10470693625E+03 -0.18421948758E+03  0.15897598927E+04  0.16038194657E+04  0.00000000000E+00 0. -1.
         22    1    1    2    0    0 -0.20949335470E+03  0.34966034705E+03 -0.19163307649E+04  0.19592022418E+04  0.00000000000E+00 0. -1.
<mgrwt>
<rscale>  0 0.44797726E+04</rscale>
<asrwt>0</asrwt>
<pdfrwt beam="1">  1        2 0.30075507E+00 0.44797726E+04</pdfrwt>
<pdfrwt beam="2">  1       -2 0.39483193E+00 0.44797726E+04</pdfrwt>
<totfact> 0.43099879E-02</totfact>
</mgrwt>
</event>
<event>
 6    1  0.1773638E-005  0.1129437E+04  0.7818608E-02  0.9176966E-01
         -1   -1    0    0    0  501 -0.00000000000E+00  0.00000000000E+00  0.22307586941E+03  0.22307586941E+03  0.00000000000E+00 0.  1.
          1   -1    0    0  501    0  0.00000000000E+00 -0.00000000000E+00 -0.14295906347E+04  0.14295906347E+04  0.00000000000E+00 0. -1.
         23    2    1    2    0    0  0.60184697627E+02 -0.35712737412E+02 -0.14218626965E+04  0.14262325646E+04  0.86880397063E+02 0.  0.
         11    1    3    3    0    0  0.29860640918E+02 -0.59257872155E+02 -0.64070435234E+03  0.64413136890E+03  0.00000000000E+00 0.  1.
        -11    1    3    3    0    0  0.30324056709E+02  0.23545134742E+02 -0.78115834413E+03  0.78210119574E+03  0.00000000000E+00 0. -1.
         22    1    1    2    0    0 -0.60184697627E+02  0.35712737412E+02  0.21534793122E+03  0.22643393942E+03  0.00000000000E+00 0.  1.
<mgrwt>
<rscale>  0 0.11294373E+04</rscale>
<asrwt>0</asrwt>
<pdfrwt beam="1">  1        1 0.21993703E+00 0.11294373E+04</pdfrwt>
<pdfrwt beam="2">  1       -1 0.34319364E-01 0.11294373E+04</pdfrwt>
<totfact> 0.58525222E+01</totfact>
</mgrwt>
</event>
<event>
 6    1  0.1773638E-005  0.1433666E+04  0.7818608E-02  0.8929804E-01
          1   -1    0    0  501    0  0.00000000000E+00  0.00000000000E+00  0.53370306261E+03  0.53370306261E+03  0.00000000000E+00 0. -1.
         -1   -1    0    0    0  501 -0.00000000000E+00 -0.00000000000E+00 -0.96280041376E+03  0.96280041376E+03  0.00000000000E+00 0.  1.
         23    2    1    2    0    0 -0.44509030649E+03  0.20628231483E+03  0.32609342811E+03  0.59596425600E+03  0.90436144470E+02 0.  0.
         13    1    3    3    0    0 -0.19511258431E+03  0.44226252504E+02  0.11395137792E+03  0.23023856865E+03  0.00000000000E+00 0. -1.
        -13    1    3    3    0    0 -0.24997772218E+03  0.16205606232E+03  0.21214205020E+03  0.36572568734E+03  0.00000000000E+00 0.  1.
         22    1    1    2    0    0  0.44509030649E+03 -0.20628231483E+03 -0.75519077927E+03  0.90053922038E+03  0.00000000000E+00 0.  1.
<mgrwt>
<rscale>  0 0.14336660E+04</rscale>
<asrwt>0</asrwt>
<pdfrwt beam="1">  1        1 0.82108165E-01 0.14336660E+04</pdfrwt>
<pdfrwt beam="2">  1       -1 0.14812314E+00 0.14336660E+04</pdfrwt>
<totfact> 0.14206686E+01</totfact>
</mgrwt>
</event>
<event>
 6    1  0.1773638E-005  0.3636603E+04  0.7818608E-02  0.8082158E-01
          1   -1    0    0  501    0  0.00000000000E+00  0.00000000000E+00  0.27048454304E+04  0.27048454304E+04  0.00000000000E+00 0. -1.
         -1   -1    0    0    0  501 -0.00000000000E+00 -0.00000000000E+00 -0.12223324641E+04  0.12223324641E+04  0.00000000000E+00 0.  1.
         23    2    1    2    0    0 -0.15816291448E+04  0.88057779914E+03  0.91286666490E+03  0.20294252971E+04  0.90958652786E+02 0.  0.
         11    1    3    3    0    0 -0.11679927496E+04  0.61119995726E+03  0.68837747448E+03  0.14871570187E+04  0.00000000000E+00 0.  1.
        -11    1    3    3    0    0 -0.41363639524E+03  0.26937784188E+03  0.22448919042E+03  0.54226827842E+03  0.00000000000E+00 0. -1.
         22    1    1    2    0    0  0.15816291448E+04 -0.88057779914E+03  0.56964630141E+03  0.18977525974E+04  0.00000000000E+00 0. -1.
<mgrwt>
<rscale>  0 0.36366030E+04</rscale>
<asrwt>0</asrwt>
<pdfrwt beam="1">  1        1 0.41613006E+00 0.36366030E+04</pdfrwt>
<pdfrwt beam="2">  1       -1 0.18805115E+00 0.36366030E+04</pdfrwt>
<totfact> 0.14318211E-01</totfact>
</mgrwt>
</event>
<event>
 6    1  0.1773638E-005  0.4659978E+04  0.7818608E-02  0.7883213E-01
         -2   -1    0    0    0  501 -0.00000000000E+00  0.00000000000E+00  0.20829743984E+04  0.20829743984E+04  0.00000000000E+00 0. -1.
          2   -1    0    0  501    0  0.00000000000E+00 -0.00000000000E+00 -0.26062964205E+04  0.26062964205E+04  0.00000000000E+00 0.  1.
         23    2    1    2    0    0 -0.10938217485E+04 -0.17011395014E+04  0.90067018311E+03  0.22157964566E+04  0.90694751012E+02 0.  0.
         11    1    3    3    0    0 -0.61287460440E+03 -0.92439310346E+03  0.44741508527E+03  0.11959507302E+04  0.00000000000E+00 0. -1.
        -11    1    3    3    0    0 -0.48094714414E+03 -0.77674639790E+03  0.45325509784E+03  0.10198457265E+04  0.00000000000E+00 0.  1.
         22    1    1    2    0    0  0.10938217485E+04  0.17011395014E+04 -0.14239922052E+04  0.24734743623E+04  0.00000000000E+00 0.  1.
<mgrwt>
<rscale>  0 0.46599780E+04</rscale>
<asrwt>0</asrwt>
<pdfrwt beam="1">  1        2 0.40096868E+00 0.46599780E+04</pdfrwt>
<pdfrwt beam="2">  1       -2 0.32045760E+00 0.46599780E+04</pdfrwt>
<totfact> 0.53688946E-02</totfact>
</mgrwt>
</event>
<event>
 6    1  0.1773638E-005  0.2986980E+04  0.7818608E-02  0.8247459E-01
         -2   -1    0    0    0  501 -0.00000000000E+00  0.00000000000E+00  0.44873476592E+03  0.44873476592E+03  0.00000000000E+00 0.  1.
          2   -1    0    0  501    0  0.00000000000E+00 -0.00000000000E+00 -0.49706694781E+04  0.49706694781E+04  0.00000000000E+00 0. -1.
         23    2    1    2    0    0 -0.10967886966E+03 -0.11763639382E+04 -0.60971998478E+03  0.13326835975E+04  0.91790749846E+02 0.  0.
         11    1    3    3    0    0 -0.61486839830E+02 -0.69353487171E+03 -0.30832205980E+03  0.76146814925E+03  0.00000000000E+00 0. -1.
        -11    1    3    3    0    0 -0.48192029831E+02 -0.48282906644E+03 -0.30139792498E+03  0.57121544825E+03  0.00000000000E+00 0.  1.
         22    1    1    2    0    0  0.10967886966E+03  0.11763639382E+04 -0.39122147274E+04  0.40867206466E+04  0.00000000000E+00 0. -1.
<mgrwt>
<rscale>  0 0.29869799E+04</rscale>
<asrwt>0</asrwt>
<pdfrwt beam="1">  1        2 0.76471841E+00 0.29869799E+04</pdfrwt>
<pdfrwt beam="2">  1       -2 0.69036115E-01 0.29869799E+04</pdfrwt>
<totfact> 0.61328647E-02</totfact>
</mgrwt>
</event>
<event>
 6    1  0.1773638E-005  0.3017953E+04  0.7818608E-02  0.8238623E-01
         -2   -1    0    0    0  501 -0.00000000000E+00  0.00000000000E+00  0.68292966811E+03  0.68292966811E+03  0.00000000000E+00 0.  1.
          2   -1    0    0  501    0  0.00000000000E+00 -0.00000000000E+00 -0.33341795696E+04  0.33341795696E+04  0.00000000000E+00 0. -1.
         23    2    1    2    0    0 -0.14065566904E+04 -0.21173279334E+03 -0.66170483380E+03  0.15713941939E+04  0.90520309671E+02 0.  0.
         11    1    3    3    0    0 -0.10100261395E+03 -0.16001520929E+02 -0.22806772074E+02  0.10477464173E+03  0.00000000000E+00 0.  1.
        -11    1    3    3    0    0 -0.13055540765E+04 -0.19573127241E+03 -0.63889806172E+03  0.14666195522E+04  0.00000000000E+00 0. -1.
         22    1    1    2    0    0  0.14065566904E+04  0.21173279334E+03 -0.19895450677E+04  0.24457150438E+04  0.00000000000E+00 0. -1.
<mgrwt>
<rscale>  0 0.30179530E+04</rscale>
<asrwt>0</asrwt>
<pdfrwt beam="1">  1        2 0.51295071E+00 0.30179530E+04</pdfrwt>
<pdfrwt beam="2">  1       -2 0.10506610E+00 0.30179530E+04</pdfrwt>
<totfact> 0.66235053E-01</totfact>
</mgrwt>
</event>
<event>
 6    1  0.1773638E-005  0.2634765E+04  0.7818608E-02  0.8356487E-01
         -2   -1    0    0    0  501 -0.00000000000E+00  0.00000000000E+00  0.72537149717E+03  0.72537149717E+03  0.00000000000E+00 0.  1.
          2   -1    0    0  501    0  0.00000000000E+00 -0.00000000000E+00 -0.23925620166E+04  0.23925620166E+04  0.00000000000E+00 0. -1.
         23    2    1    2    0    0 -0.67386583909E+03  0.25678755890E+02  0.50247331646E+03  0.84588691910E+03  0.91053163312E+02 0.  0.
         13    1    3    3    0    0 -0.67346739668E+02 -0.10221170902E+02  0.22972341580E+02  0.71887301773E+02  0.00000000000E+00 0. -1.
        -13    1    3    3    0    0 -0.60651909942E+03  0.35899926792E+02  0.47950097488E+03  0.77399961732E+03  0.00000000000E+00 0.  1.
         22    1    1    2    0    0  0.67386583909E+03 -0.25678755890E+02 -0.21696638359E+04  0.22720465947E+04  0.00000000000E+00 0. -1.
<mgrwt>
<rscale>  0 0.26347647E+04</rscale>
<asrwt>0</asrwt>
<pdfrwt beam="1">  1        2 0.36808647E+00 0.26347647E+04</pdfrwt>
<pdfrwt beam="2">  1       -2 0.11159561E+00 0.26347647E+04</pdfrwt>
<totfact> 0.22462086E+00</totfact>
</mgrwt>
</event>
<event>
 6    1  0.1773638E-005  0.4031562E+04  0.7818608E-02  0.7998210E-01
         -2   -1    0    0    0  501 -0.00000000000E+00  0.00000000000E+00  0.21114983197E+04  0.21114983197E+04  0.00000000000E+00 0.  1.
          2   -1    0    0  501    0  0.00000000000E+00 -0.00000000000E+00 -0.19244029923E+04  0.19244029923E+04  0.00000000000E+00 0. -1.
         23    2    1    2    0    0  0.19248334631E+04 -0.42608481885E+03 -0.32248635005E+03  0.19996779403E+04  0.90455984742E+02 0.  0.
         13    1    3    3    0    0  0.21143709588E+03 -0.75470248024E+02 -0.43049226135E+02  0.22859273769E+03  0.00000000000E+00 0. -1.
        -13    1    3    3    0    0  0.17133963673E+04 -0.35061457082E+03 -0.27943712391E+03  0.17710852026E+04  0.00000000000E+00 0.  1.
         22    1    1    2    0    0 -0.19248334631E+04  0.42608481885E+03  0.50958167740E+03  0.20362233717E+04  0.00000000000E+00 0.  1.
<mgrwt>
<rscale>  0 0.40315623E+04</rscale>
<asrwt>0</asrwt>
<pdfrwt beam="1">  1        2 0.29606200E+00 0.40315623E+04</pdfrwt>
<pdfrwt beam="2">  1       -2 0.32484589E+00 0.40315623E+04</pdfrwt>
<totfact> 0.12940736E-01</totfact>
</mgrwt>
</event>
<event>
 6    1  0.1773638E-005  0.2118162E+04  0.7818608E-02  0.8553285E-01
         -1   -1    0    0    0  501 -0.00000000000E+00  0.00000000000E+00  0.72069371611E+03  0.72069371611E+03  0.00000000000E+00 0.  1.
          1   -1    0    0  501    0  0.00000000000E+00 -0.00000000000E+00 -0.15563513569E+04  0.15563513569E+04  0.00000000000E+00 0. -1.
         23    2    1    2    0    0  0.72523182292E+03  0.76214401278E+02 -0.12412788914E+04  0.14426000892E+04  0.92476478713E+02 0.  0.
         13    1    3    3    0    0  0.14317161414E+02  0.51493807184E+01 -0.61472526285E+02  0.63327472085E+02  0.00000000000E+00 0. -1.
        -13    1    3    3    0    0  0.71091466151E+03  0.71065020559E+02 -0.11798063652E+04  0.13792726171E+04  0.00000000000E+00 0.  1.
         22    1    1    2    0    0 -0.72523182292E+03 -0.76214401278E+02  0.40562125068E+03  0.83444498377E+03  0.00000000000E+00 0.  1.
<mgrwt>
<rscale>  0 0.21181621E+04</rscale>
<asrwt>0</asrwt>
<pdfrwt beam="1">  1        1 0.23943867E+00 0.21181621E+04</pdfrwt>
<pdfrwt beam="2">  1       -1 0.11087596E+00 0.21181621E+04</pdfrwt>
<totfact> 0.41123806E+00</totfact>
</mgrwt>
</event>
<event>
 6    1  0.1773638E-005  0.3891650E+04  0.7818608E-02  0.8026768E-01
         -2   -1    0    0    0  501 -0.00000000000E+00  0.00000000000E+00  0.16734139265E+04  0.16734139265E+04  0.00000000000E+00 0.  1.
          2   -1    0    0  501    0  0.00000000000E+00 -0.00000000000E+00 -0.22625811396E+04  0.22625811396E+04  0.00000000000E+00 0. -1.
         23    2    1    2    0    0 -0.90228776353E+03  0.92566623293E+03  0.11747549526E+04  0.17491245648E+04  0.91686212709E+02 0.  0.
         13    1    3    3    0    0 -0.80133070342E+03  0.80445462889E+03  0.99257667476E+03  0.15081401133E+04  0.00000000000E+00 0. -1.
        -13    1    3    3    0    0 -0.10095706012E+03  0.12121160404E+03  0.18217827783E+03  0.24098445148E+03  0.00000000000E+00 0.  1.
         22    1    1    2    0    0  0.90228776353E+03 -0.92566623293E+03 -0.17639221657E+04  0.21868705014E+04  0.00000000000E+00 0. -1.
<mgrwt>
<rscale>  0 0.38916499E+04</rscale>
<asrwt>0</asrwt>
<pdfrwt beam="1">  1        2 0.34808941E+00 0.38916499E+04</pdfrwt>
<pdfrwt beam="2">  1       -2 0.25744830E+00 0.38916499E+04</pdfrwt>
<totfact> 0.21913120E-01</totfact>
</mgrwt>
</event>
<event>
 6    1  0.1773638E-005  0.3407305E+04  0.7818608E-02  0.8136116E-01
         -2   -1    0    0    0  501 -0.00000000000E+00  0.00000000000E+00  0.11475964640E+04  0.11475964640E+04  0.00000000000E+00 0.  1.
          2   -1    0    0  501    0  0.00000000000E+00 -0.00000000000E+00 -0.25291393203E+04  0.25291393203E+04  0.00000000000E+00 0. -1.
         23    2    1    2    0    0 -0.15393933745E+04 -0.25711170816E+03 -0.14250133071E+04  0.21154132449E+04  0.92042811035E+02 0.  0.
         13    1    3    3    0    0 -0.13405298886E+04 -0.20112741468E+03 -0.12649425570E+04  0.18540637237E+04  0.00000000000E+00 0.  1.
        -13    1    3    3    0    0 -0.19886348595E+03 -0.55984293479E+02 -0.16007075020E+03  0.26134952120E+03  0.00000000000E+00 0. -1.
         22    1    1    2    0    0  0.15393933745E+04  0.25711170816E+03  0.43470450861E+02  0.15613225394E+04  0.00000000000E+00 0.  1.
<mgrwt>
<rscale>  0 0.34073047E+04</rscale>
<asrwt>0</asrwt>
<pdfrwt beam="1">  1        2 0.38909836E+00 0.34073047E+04</pdfrwt>
<pdfrwt beam="2">  1       -2 0.17655330E+00 0.34073047E+04</pdfrwt>
<totfact> 0.53105905E-01</totfact>
</mgrwt>
</event>
<event>
 6    1  0.1773638E-005  0.9035847E+03  0.7818608E-02  0.9421111E-01
          3   -1    0    0  501    0  0.00000000000E+00  0.00000000000E+00  0.41430057224E+03  0.41430057224E+03  0.00000000000E+00 0. -1.
         -3   -1    0    0    0  501 -0.00000000000E+00 -0.00000000000E+00 -0.49267688585E+03  0.49267688585E+03  0.00000000000E+00 0.  1.
         23    2    1    2    0    0 -0.21914691223E+03  0.36148517385E+03 -0.18821299071E+03  0.47021551414E+03  0.83555968126E+02 0.  0.
         11    1    3    3    0    0 -0.18355507475E+03  0.33428354352E+03 -0.18852751514E+03  0.42541812009E+03  0.00000000000E+00 0.  1.
        -11    1    3    3    0    0 -0.35591837480E+02  0.27201630331E+02  0.31452443243E+00  0.44797394048E+02  0.00000000000E+00 0. -1.
         22    1    1    2    0    0  0.21914691223E+03 -0.36148517385E+03  0.10983667710E+03  0.43676194396E+03  0.00000000000E+00 0. -1.
<mgrwt>
<rscale>  0 0.90358467E+03</rscale>
<asrwt>0</asrwt>
<pdfrwt beam="1">  1        3 0.63738550E-01 0.90358467E+03</pdfrwt>
<pdfrwt beam="2">  1       -3 0.75796444E-01 0.90358467E+03</pdfrwt>
<totfact> 0.10286367E+01</totfact>
</mgrwt>
</event>
<event>
 6    1  0.1773638E-005  0.1973722E+04  0.7818608E-02  0.8619006E-01
         -2   -1    0    0    0  501 -0.00000000000E+00  0.00000000000E+00  0.62283048983E+03  0.62283048983E+03  0.00000000000E+00 0. -1.
          2   -1    0    0  501    0  0.00000000000E+00 -0.00000000000E+00 -0.15636589988E+04  0.15636589988E+04  0.00000000000E+00 0.  1.
         23    2    1    2    0    0  0.85666563983E+02  0.68205320231E+03 -0.12525593742E+04  0.14316971574E+04  0.91194483225E+02 0.  0.
         11    1    3    3    0    0  0.92150557714E+02  0.45779428548E+03 -0.79252555447E+03  0.91987177780E+03  0.00000000000E+00 0. -1.
        -11    1    3    3    0    0 -0.64839937306E+01  0.22425891683E+03 -0.46003381973E+03  0.51182537964E+03  0.00000000000E+00 0.  1.
         22    1    1    2    0    0 -0.85666563983E+02 -0.68205320231E+03  0.31173086519E+03  0.75479233123E+03  0.00000000000E+00 0. -1.
<mgrwt>
<rscale>  0 0.19737219E+04</rscale>
<asrwt>0</asrwt>
<pdfrwt beam="1">  1        2 0.24056292E+00 0.19737219E+04</pdfrwt>
<pdfrwt beam="2">  1       -2 0.95820076E-01 0.19737219E+04</pdfrwt>
<totfact> 0.99403582E+00</totfact>
</mgrwt>
</event>
<event>
 6    1  0.1773638E-005  0.1856519E+04  0.7818608E-02  0.8676807E-01
         -2   -1    0    0    0  501 -0.00000000000E+00  0.00000000000E+00  0.66908924353E+03  0.66908924353E+03  0.00000000000E+00 0.  1.
          2   -1    0    0  501    0  0.00000000000E+00 -0.00000000000E+00 -0.12878192558E+04  0.12878192558E+04  0.00000000000E+00 0. -1.
         23    2    1    2    0    0  0.40797134557E+03 -0.11905961814E+03 -0.11767317917E+04  0.12554943582E+04  0.10465449094E+03 0.  0.
         11    1    3    3    0    0  0.29278744114E+03 -0.13277876600E+03 -0.84776376528E+03  0.90667419072E+03  0.00000000000E+00 0.  1.
        -11    1    3    3    0    0  0.11518390443E+03  0.13719147862E+02 -0.32896802642E+03  0.34882016752E+03  0.00000000000E+00 0. -1.
         22    1    1    2    0    0 -0.40797134557E+03  0.11905961814E+03  0.55800177944E+03  0.70141414110E+03  0.00000000000E+00 0.  1.
<mgrwt>
<rscale>  0 0.18565193E+04</rscale>
<asrwt>0</asrwt>
<pdfrwt beam="1">  1        2 0.19812604E+00 0.18565193E+04</pdfrwt>
<pdfrwt beam="2">  1       -2 0.10293681E+00 0.18565193E+04</pdfrwt>
<totfact> 0.12177332E+01</totfact>
</mgrwt>
</event>
<event>
 6    1  0.1773638E-005  0.1793452E+04  0.7818608E-02  0.8709789E-01
         -1   -1    0    0    0  501 -0.00000000000E+00  0.00000000000E+00  0.55135898926E+03  0.55135898926E+03  0.00000000000E+00 0.  1.
          1   -1    0    0  501    0  0.00000000000E+00 -0.00000000000E+00 -0.14584281189E+04  0.14584281189E+04  0.00000000000E+00 0. -1.
         23    2    1    2    0    0  0.84119418921E+03 -0.60363616929E+02 -0.12114940841E+03  0.85699864603E+03  0.92293390475E+02 0.  0.
         11    1    3    3    0    0  0.54595230406E+03 -0.62263365625E+02 -0.40753362981E+02  0.55100043703E+03  0.00000000000E+00 0. -1.
        -11    1    3    3    0    0  0.29524188515E+03  0.18997486956E+01 -0.80396045431E+02  0.30599820900E+03  0.00000000000E+00 0.  1.
         22    1    1    2    0    0 -0.84119418921E+03  0.60363616929E+02 -0.78591972124E+03  0.11527884621E+04  0.00000000000E+00 0. -1.
<mgrwt>
<rscale>  0 0.17934519E+04</rscale>
<asrwt>0</asrwt>
<pdfrwt beam="1">  1        1 0.22437356E+00 0.17934519E+04</pdfrwt>
<pdfrwt beam="2">  1       -1 0.84824461E-01 0.17934519E+04</pdfrwt>
<totfact> 0.90784498E+00</totfact>
</mgrwt>
</event>
<event>
 6    1  0.1773638E-005  0.1320302E+04  0.7818608E-02  0.9013619E-01
          1   -1    0    0  501    0  0.00000000000E+00  0.00000000000E+00  0.10966826755E+04  0.10966826755E+04  0.00000000000E+00 0. -1.
         -1   -1    0    0    0  501 -0.00000000000E+00 -0.00000000000E+00 -0.39737940717E+03  0.39737940717E+03  0.00000000000E+00 0.  1.
         23    2    1    2    0    0  0.73298667133E+01 -0.25026790293E+03  0.10386220217E+04  0.10723691059E+04  0.92477268962E+02 0.  0.
         13    1    3    3    0    0  0.13821325434E+00 -0.16845218111E+03  0.85170618117E+03  0.86820480041E+03  0.00000000000E+00 0. -1.
        -13    1    3    3    0    0  0.71916534589E+01 -0.81815721824E+02  0.18691584052E+03  0.20416430553E+03  0.00000000000E+00 0.  1.
         22    1    1    2    0    0 -0.73298667133E+01  0.25026790293E+03 -0.33931875339E+03  0.42169297669E+03  0.00000000000E+00 0.  1.
<mgrwt>
<rscale>  0 0.13203016E+04</rscale>
<asrwt>0</asrwt>
<pdfrwt beam="1">  1        1 0.16872041E+00 0.13203016E+04</pdfrwt>
<pdfrwt beam="2">  1       -1 0.61135294E-01 0.13203016E+04</pdfrwt>
<totfact> 0.33947059E+01</totfact>
</mgrwt>
</event>
<event>
 6    1  0.1773638E-005  0.3261997E+04  0.7818608E-02  0.8172633E-01
          1   -1    0    0  501    0  0.00000000000E+00  0.00000000000E+00  0.15787866284E+04  0.15787866284E+04  0.00000000000E+00 0. -1.
         -1   -1    0    0    0  501 -0.00000000000E+00 -0.00000000000E+00 -0.16849375744E+04  0.16849375744E+04  0.00000000000E+00 0.  1.
         23    2    1    2    0    0  0.13614772610E+04  0.30488437172E+03 -0.89591464243E+03  0.16605082134E+04  0.89719942714E+02 0.  0.
         13    1    3    3    0    0  0.10527907349E+04  0.25433709800E+03 -0.65548087611E+03  0.12659821760E+04  0.00000000000E+00 0.  1.
        -13    1    3    3    0    0  0.30868652602E+03  0.50547273718E+02 -0.24043376632E+03  0.39452603743E+03  0.00000000000E+00 0. -1.
         22    1    1    2    0    0 -0.13614772610E+04 -0.30488437172E+03  0.78976369640E+03  0.16032159893E+04  0.00000000000E+00 0. -1.
<mgrwt>
<rscale>  0 0.32619975E+04</rscale>
<asrwt>0</asrwt>
<pdfrwt beam="1">  1        1 0.24289025E+00 0.32619975E+04</pdfrwt>
<pdfrwt beam="2">  1       -1 0.25922117E+00 0.32619975E+04</pdfrwt>
<totfact> 0.29155754E-01</totfact>
</mgrwt>
</event>
<event>
 6    1  0.1773638E-005  0.2571415E+04  0.7818608E-02  0.8377976E-01
          1   -1    0    0  501    0  0.00000000000E+00  0.00000000000E+00  0.23411382682E+04  0.23411382682E+04  0.00000000000E+00 0. -1.
         -1   -1    0    0    0  501 -0.00000000000E+00 -0.00000000000E+00 -0.70608532403E+03  0.70608532403E+03  0.00000000000E+00 0.  1.
         23    2    1    2    0    0 -0.90912697071E+03  0.69997663598E+03  0.15017619150E+04  0.18921280818E+04  0.91546101284E+02 0.  0.
         13    1    3    3    0    0 -0.19589008309E+03  0.13109641985E+03  0.36579732362E+03  0.43516304751E+03  0.00000000000E+00 0. -1.
        -13    1    3    3    0    0 -0.71323688762E+03  0.56888021613E+03  0.11359645914E+04  0.14569650342E+04  0.00000000000E+00 0.  1.
         22    1    1    2    0    0  0.90912697071E+03 -0.69997663598E+03  0.13329102913E+03  0.11550955104E+04  0.00000000000E+00 0.  1.
<mgrwt>
<rscale>  0 0.25714147E+04</rscale>
<asrwt>0</asrwt>
<pdfrwt beam="1">  1        1 0.36017511E+00 0.25714147E+04</pdfrwt>
<pdfrwt beam="2">  1       -1 0.10862851E+00 0.25714147E+04</pdfrwt>
<totfact> 0.12101341E+00</totfact>
</mgrwt>
</event>
<event>
 6    1  0.1773638E-005  0.1571347E+04  0.7818608E-02  0.8838347E-01
          2   -1    0    0  501    0  0.00000000000E+00  0.00000000000E+00  0.32853608992E+04  0.32853608992E+04  0.00000000000E+00 0. -1.
         -2   -1    0    0    0  501 -0.00000000000E+00 -0.00000000000E+00 -0.18788890016E+03  0.18788890016E+03  0.00000000000E+00 0.  1.
         23    2    1    2    0    0 -0.11134366589E+02  0.54327749356E+03  0.27998592667E+04  0.28536953243E+04  0.95345065374E+02 0.  0.
         13    1    3    3    0    0  0.41638105997E+02  0.19992121040E+03  0.10620652359E+04  0.10815196658E+04  0.00000000000E+00 0. -1.
        -13    1    3    3    0    0 -0.52772472586E+02  0.34335628316E+03  0.17377940307E+04  0.17721756584E+04  0.00000000000E+00 0.  1.
         22    1    1    2    0    0  0.11134366589E+02 -0.54327749356E+03  0.29761273237E+03  0.61955447509E+03  0.00000000000E+00 0.  1.
<mgrwt>
<rscale>  0 0.15713470E+04</rscale>
<asrwt>0</asrwt>
<pdfrwt beam="1">  1        2 0.50544010E+00 0.15713470E+04</pdfrwt>
<pdfrwt beam="2">  1       -2 0.28905987E-01 0.15713470E+04</pdfrwt>
<totfact> 0.12146217E+01</totfact>
</mgrwt>
</event>
<event>
 6    1  0.1773638E-005  0.3321530E+04  0.7818608E-02  0.8157439E-01
          2   -1    0    0  501    0  0.00000000000E+00  0.00000000000E+00  0.24434084604E+04  0.24434084604E+04  0.00000000000E+00 0.  1.
         -2   -1    0    0    0  501 -0.00000000000E+00 -0.00000000000E+00 -0.11288086501E+04  0.11288086501E+04  0.00000000000E+00 0. -1.
         23    2    1    2    0    0  0.77375949485E+03 -0.13636549787E+04  0.12432913058E+04  0.20027128704E+04  0.82625136949E+02 0.  0.
         13    1    3    3    0    0  0.43686736852E+03 -0.70469625516E+03  0.62398822981E+03  0.10376951482E+04  0.00000000000E+00 0. -1.
        -13    1    3    3    0    0  0.33689212633E+03 -0.65895872354E+03  0.61930307601E+03  0.96501772215E+03  0.00000000000E+00 0.  1.
         22    1    1    2    0    0 -0.77375949485E+03  0.13636549787E+04  0.71308504477E+02  0.15695042401E+04  0.00000000000E+00 0. -1.
<mgrwt>
<rscale>  0 0.33215301E+04</rscale>
<asrwt>0</asrwt>
<pdfrwt beam="1">  1        2 0.37590899E+00 0.33215301E+04</pdfrwt>
<pdfrwt beam="2">  1       -2 0.17366287E+00 0.33215301E+04</pdfrwt>
<totfact> 0.62827638E-01</totfact>
</mgrwt>
</event>
<event>
 6    1  0.1773638E-005  0.1032688E+04  0.7818608E-02  0.9273402E-01
         -4   -1    0    0    0  501 -0.00000000000E+00  0.00000000000E+00  0.11893432342E+03  0.11893432342E+03  0.00000000000E+00 0.  1.
          4   -1    0    0  501    0  0.00000000000E+00 -0.00000000000E+00 -0.22416674608E+04  0.22416674608E+04  0.00000000000E+00 0. -1.
         23    2    1    2    0    0 -0.15703572910E+03  0.41001404594E+03 -0.46687249541E+03  0.64752087436E+03  0.92420872567E+02 0.  0.
         11    1    3    3    0    0 -0.87011235004E+02  0.17535914060E+03 -0.14768942278E+03  0.24522224371E+03  0.00000000000E+00 0. -1.
        -11    1    3    3    0    0 -0.70024494098E+02  0.23465490534E+03 -0.31918307263E+03  0.40229863065E+03  0.00000000000E+00 0.  1.
         22    1    1    2    0    0  0.15703572910E+03 -0.41001404594E+03 -0.16558606420E+04  0.17130809099E+04  0.00000000000E+00 0. -1.
<mgrwt>
<rscale>  0 0.10326881E+04</rscale>
<asrwt>0</asrwt>
<pdfrwt beam="1">  1        4 0.34487188E+00 0.10326881E+04</pdfrwt>
<pdfrwt beam="2">  1       -4 0.18297590E-01 0.10326881E+04</pdfrwt>
<totfact> 0.88881129E-01</totfact>
</mgrwt>
</event>
<event>
 6    1  0.1773638E-005  0.3376470E+04  0.7818608E-02  0.8143706E-01
         -2   -1    0    0    0  501 -0.00000000000E+00  0.00000000000E+00  0.77613822527E+03  0.77613822527E+03  0.00000000000E+00 0.  1.
          2   -1    0    0  501    0  0.00000000000E+00 -0.00000000000E+00 -0.36722023222E+04  0.36722023222E+04  0.00000000000E+00 0. -1.
         23    2    1    2    0    0 -0.18192552649E+03  0.98420973973E+03  0.34005846176E+03  0.10609735872E+04  0.90881715756E+02 0.  0.
         13    1    3    3    0    0 -0.85710928077E+02  0.26323027576E+03  0.74996723327E+02  0.28681187175E+03  0.00000000000E+00 0. -1.
        -13    1    3    3    0    0 -0.96214598415E+02  0.72097946397E+03  0.26506173843E+03  0.77416171540E+03  0.00000000000E+00 0.  1.
         22    1    1    2    0    0  0.18192552649E+03 -0.98420973973E+03 -0.32361225587E+04  0.33873669603E+04  0.00000000000E+00 0. -1.
<mgrwt>
<rscale>  0 0.33764695E+04</rscale>
<asrwt>0</asrwt>
<pdfrwt beam="1">  1        2 0.56495420E+00 0.33764695E+04</pdfrwt>
<pdfrwt beam="2">  1       -2 0.11940588E+00 0.33764695E+04</pdfrwt>
<totfact> 0.27254409E-01</totfact>
</mgrwt>
</event>
<event>
 6    1  0.1773638E-005  0.2285490E+04  0.7818608E-02  0.8483664E-01
         -2   -1    0    0    0  501 -0.00000000000E+00  0.00000000000E+00  0.46930175897E+03  0.46930175897E+03  0.00000000000E+00 0.  1.
          2   -1    0    0  501    0  0.00000000000E+00 -0.00000000000E+00 -0.27825732584E+04  0.27825732584E+04  0.00000000000E+00 0. -1.
         23    2    1    2    0    0  0.93151137756E+03 -0.14522037975E+03 -0.24413367259E+03  0.97808220542E+03  0.90780753680E+02 0.  0.
         11    1    3    3    0    0  0.61992655297E+03 -0.12111674554E+03 -0.12668875736E+03  0.64422685319E+03  0.00000000000E+00 0. -1.
        -11    1    3    3    0    0  0.31158482459E+03 -0.24103634213E+02 -0.11744491523E+03  0.33385535223E+03  0.00000000000E+00 0.  1.
         22    1    1    2    0    0 -0.93151137756E+03  0.14522037975E+03 -0.20691378268E+04  0.22737928119E+04  0.00000000000E+00 0. -1.
<mgrwt>
<rscale>  0 0.22854903E+04</rscale>
<asrwt>0</asrwt>
<pdfrwt beam="1">  1        2 0.42808819E+00 0.22854903E+04</pdfrwt>
<pdfrwt beam="2">  1       -2 0.72200271E-01 0.22854903E+04</pdfrwt>
<totfact> 0.37365719E+00</totfact>
</mgrwt>
</event>
<event>
 6    1  0.1773638E-005  0.1351348E+04  0.7818608E-02  0.8989808E-01
          1   -1    0    0  501    0  0.00000000000E+00  0.00000000000E+00  0.14236686147E+04  0.14236686147E+04  0.00000000000E+00 0. -1.
         -1   -1    0    0    0  501 -0.00000000000E+00 -0.00000000000E+00 -0.32067552768E+03  0.32067552768E+03  0.00000000000E+00 0.  1.
         23    2    1    2    0    0 -0.14341509179E+03  0.51575433942E+03  0.28135200389E+02  0.54355694074E+03  0.89956273434E+02 0.  0.
         13    1    3    3    0    0 -0.29059895315E+02  0.86929275399E+02  0.39007274968E+02  0.99612970730E+02  0.00000000000E+00 0.  1.
        -13    1    3    3    0    0 -0.11435519648E+03  0.42882506403E+03 -0.10872074579E+02  0.44394397001E+03  0.00000000000E+00 0. -1.
         22    1    1    2    0    0  0.14341509179E+03 -0.51575433942E+03  0.10748578866E+04  0.12007872017E+04  0.00000000000E+00 0. -1.
<mgrwt>
<rscale>  0 0.13513485E+04</rscale>
<asrwt>0</asrwt>
<pdfrwt beam="1">  1        1 0.21902594E+00 0.13513485E+04</pdfrwt>
<pdfrwt beam="2">  1       -1 0.49334697E-01 0.13513485E+04</pdfrwt>
<totfact> 0.29795571E+01</totfact>
</mgrwt>
</event>
<event>
 6    1  0.1773638E-005  0.2300845E+04  0.7818608E-02  0.8477588E-01
         -2   -1    0    0    0  501 -0.00000000000E+00  0.00000000000E+00  0.69761215233E+03  0.69761215233E+03  0.00000000000E+00 0. -1.
          2   -1    0    0  501    0  0.00000000000E+00 -0.00000000000E+00 -0.18971456374E+04  0.18971456374E+04  0.00000000000E+00 0.  1.
         23    2    1    2    0    0 -0.67130784286E+03  0.90380362636E+03 -0.34403603748E+03  0.11807595232E+04  0.91197816178E+02 0.  0.
         13    1    3    3    0    0 -0.42950274527E+03  0.53552654625E+03 -0.24753100032E+03  0.72974850877E+03  0.00000000000E+00 0. -1.
        -13    1    3    3    0    0 -0.24180509759E+03  0.36827708011E+03 -0.96505037161E+02  0.45101101445E+03  0.00000000000E+00 0.  1.
         22    1    1    2    0    0  0.67130784286E+03 -0.90380362636E+03 -0.85549744764E+03  0.14139982666E+04  0.00000000000E+00 0. -1.
<mgrwt>
<rscale>  0 0.23008449E+04</rscale>
<asrwt>0</asrwt>
<pdfrwt beam="1">  1        2 0.29186856E+00 0.23008449E+04</pdfrwt>
<pdfrwt beam="2">  1       -2 0.10732495E+00 0.23008449E+04</pdfrwt>
<totfact> 0.48178038E+00</totfact>
</mgrwt>
</event>
<event>
 6    1  0.1773638E-005  0.1757460E+04  0.7818608E-02  0.8729255E-01
          2   -1    0    0  501    0  0.00000000000E+00  0.00000000000E+00  0.12227512936E+04  0.12227512936E+04  0.00000000000E+00 0. -1.
         -2   -1    0    0    0  501 -0.00000000000E+00 -0.00000000000E+00 -0.63149928435E+03  0.63149928435E+03  0.00000000000E+00 0.  1.
         23    2    1    2    0    0  0.32166680149E+03 -0.41410905018E+03 -0.44442289536E+03  0.69339815636E+03  0.91287768644E+02 0.  0.
         11    1    3    3    0    0  0.24094431359E+03 -0.27760338671E+03 -0.35652012904E+03  0.51207851446E+03  0.00000000000E+00 0. -1.
        -11    1    3    3    0    0  0.80722487903E+02 -0.13650566347E+03 -0.87902766326E+02  0.18131964190E+03  0.00000000000E+00 0.  1.
         22    1    1    2    0    0 -0.32166680149E+03  0.41410905018E+03  0.10356749046E+04  0.11608524215E+04  0.00000000000E+00 0. -1.
<mgrwt>
<rscale>  0 0.17574602E+04</rscale>
<asrwt>0</asrwt>
<pdfrwt beam="1">  1        2 0.18811558E+00 0.17574602E+04</pdfrwt>
<pdfrwt beam="2">  1       -2 0.97153736E-01 0.17574602E+04</pdfrwt>
<totfact> 0.15379788E+01</totfact>
</mgrwt>
</event>
<event>
 6    1  0.2242199E-005  0.3283415E+04  0.7818608E-02  0.8167128E-01
          1   -1    0    0  501    0  0.00000000000E+00  0.00000000000E+00  0.18571072514E+04  0.18571072514E+04  0.00000000000E+00 0. -1.
         -1   -1    0    0    0  501 -0.00000000000E+00 -0.00000000000E+00 -0.14512913987E+04  0.14512913987E+04  0.00000000000E+00 0.  1.
         23    2    1    2    0    0 -0.62967719349E+03  0.14613777399E+04  0.60484696772E+03  0.17047366997E+04  0.90383041962E+02 0.  0.
         13    1    3    3    0    0 -0.32801571147E+03  0.85448869807E+03  0.32049913433E+03  0.96977571490E+03  0.00000000000E+00 0.  1.
        -13    1    3    3    0    0 -0.30166148202E+03  0.60688904179E+03  0.28434783339E+03  0.73496098477E+03  0.00000000000E+00 0. -1.
         22    1    1    2    0    0  0.62967719349E+03 -0.14613777399E+04 -0.19903111504E+03  0.16036619505E+04  0.00000000000E+00 0.  1.
<mgrwt>
<rscale>  0 0.32834152E+04</rscale>
<asrwt>0</asrwt>
<pdfrwt beam="1">  1        1 0.28570881E+00 0.32834152E+04</pdfrwt>
<pdfrwt beam="2">  1       -1 0.22327560E+00 0.32834152E+04</pdfrwt>
<totfact> 0.32389398E-01</totfact>
</mgrwt>
</event>
<event>
 6    1  0.1773638E-005  0.1717939E+04  0.7818608E-02  0.8751199E-01
         -2   -1    0    0    0  501 -0.00000000000E+00  0.00000000000E+00  0.38341162329E+03  0.38341162329E+03  0.00000000000E+00 0.  1.
          2   -1    0    0  501    0  0.00000000000E+00 -0.00000000000E+00 -0.19243770275E+04  0.19243770275E+04  0.00000000000E+00 0. -1.
         23    2    1    2    0    0 -0.56050501015E+03 -0.54694579341E+03 -0.30617589882E+03  0.84559143772E+03  0.89250384877E+02 0.  0.
         11    1    3    3    0    0 -0.39914588969E+02 -0.33744529750E+02 -0.46079050478E+02  0.69678881977E+02  0.00000000000E+00 0.  1.
        -11    1    3    3    0    0 -0.52059042118E+03 -0.51320126366E+03 -0.26009684834E+03  0.77591255574E+03  0.00000000000E+00 0. -1.
         22    1    1    2    0    0  0.56050501015E+03  0.54694579341E+03 -0.12347895054E+04  0.14621972131E+04  0.00000000000E+00 0. -1.
<mgrwt>
<rscale>  0 0.17179389E+04</rscale>
<asrwt>0</asrwt>
<pdfrwt beam="1">  1        2 0.29605800E+00 0.17179389E+04</pdfrwt>
<pdfrwt beam="2">  1       -2 0.58986404E-01 0.17179389E+04</pdfrwt>
<totfact> 0.18777981E+01</totfact>
</mgrwt>
</event>
<event>
 6    1  0.1773638E-005  0.2210252E+04  0.7818608E-02  0.8514173E-01
         -1   -1    0    0    0  501 -0.00000000000E+00  0.00000000000E+00  0.53973526150E+03  0.53973526150E+03  0.00000000000E+00 0.  1.
          1   -1    0    0  501    0  0.00000000000E+00 -0.00000000000E+00 -0.22627814445E+04  0.22627814445E+04  0.00000000000E+00 0. -1.
         23    2    1    2    0    0  0.63009388280E+03 -0.37658627839E+03 -0.19072689268E+04  0.20456986660E+04  0.91502714518E+02 0.  0.
         11    1    3    3    0    0  0.46334592545E+03 -0.30970748592E+03 -0.13628792716E+04  0.14724293133E+04  0.00000000000E+00 0. -1.
        -11    1    3    3    0    0  0.16674795735E+03 -0.66878792468E+02 -0.54438965517E+03  0.57326935277E+03  0.00000000000E+00 0.  1.
         22    1    1    2    0    0 -0.63009388280E+03  0.37658627839E+03  0.18422274386E+03  0.75681803993E+03  0.00000000000E+00 0.  1.
<mgrwt>
<rscale>  0 0.22102515E+04</rscale>
<asrwt>0</asrwt>
<pdfrwt beam="1">  1        1 0.34812022E+00 0.22102515E+04</pdfrwt>
<pdfrwt beam="2">  1       -1 0.83036195E-01 0.22102515E+04</pdfrwt>
<totfact> 0.25887243E+00</totfact>
</mgrwt>
</event>
<event>
 6    1  0.1773638E-005  0.2916186E+04  0.7818608E-02  0.8268078E-01
         -2   -1    0    0    0  501 -0.00000000000E+00  0.00000000000E+00  0.12050508156E+04  0.12050508156E+04  0.00000000000E+00 0. -1.
          2   -1    0    0  501    0  0.00000000000E+00 -0.00000000000E+00 -0.17642697513E+04  0.17642697513E+04  0.00000000000E+00 0.  1.
         23    2    1    2    0    0 -0.63784505462E+03 -0.49359750225E+01  0.10536113510E+04  0.12349353124E+04  0.89987051000E+02 0.  0.
         13    1    3    3    0    0 -0.33846921647E+03 -0.40786322413E+02  0.60431165410E+03  0.69384256851E+03  0.00000000000E+00 0.  1.
        -13    1    3    3    0    0 -0.29937583815E+03  0.35850347391E+02  0.44929969689E+03  0.54109274390E+03  0.00000000000E+00 0. -1.
         22    1    1    2    0    0  0.63784505462E+03  0.49359750225E+01 -0.16128302867E+04  0.17343852545E+04  0.00000000000E+00 0.  1.
<mgrwt>
<rscale>  0 0.29161857E+04</rscale>
<asrwt>0</asrwt>
<pdfrwt beam="1">  1        2 0.27142611E+00 0.29161857E+04</pdfrwt>
<pdfrwt beam="2">  1       -2 0.18539243E+00 0.29161857E+04</pdfrwt>
<totfact> 0.12965700E+00</totfact>
</mgrwt>
</event>
<event>
 6    1  0.1773638E-005  0.4547928E+04  0.7818608E-02  0.7902299E-01
          2   -1    0    0  501    0  0.00000000000E+00  0.00000000000E+00  0.30636423786E+04  0.30636423786E+04  0.00000000000E+00 0. -1.
         -2   -1    0    0    0  501 -0.00000000000E+00 -0.00000000000E+00 -0.16878313681E+04  0.16878313681E+04  0.00000000000E+00 0.  1.
         23    2    1    2    0    0  0.62286604670E+03 -0.15431074340E+04 -0.92952178397E+03  0.19082885684E+04  0.91716130558E+02 0.  0.
         11    1    3    3    0    0  0.46666666858E+03 -0.10634610867E+04 -0.62046924108E+03  0.13167039688E+04  0.00000000000E+00 0. -1.
        -11    1    3    3    0    0  0.15619937812E+03 -0.47964634729E+03 -0.30905254289E+03  0.59158459958E+03  0.00000000000E+00 0.  1.
         22    1    1    2    0    0 -0.62286604670E+03  0.15431074340E+04  0.23053327945E+04  0.28431851783E+04  0.00000000000E+00 0. -1.
<mgrwt>
<rscale>  0 0.45479278E+04</rscale>
<asrwt>0</asrwt>
<pdfrwt beam="1">  1        2 0.47132960E+00 0.45479278E+04</pdfrwt>
<pdfrwt beam="2">  1       -2 0.25966636E+00 0.45479278E+04</pdfrwt>
<totfact> 0.67115733E-02</totfact>
</mgrwt>
</event>
<event>
 6    1  0.1773638E-005  0.2048124E+04  0.7818608E-02  0.8584446E-01
         -1   -1    0    0    0  501 -0.00000000000E+00  0.00000000000E+00  0.26295821791E+03  0.26295821791E+03  0.00000000000E+00 0.  1.
          1   -1    0    0  501    0  0.00000000000E+00 -0.00000000000E+00 -0.39880965592E+04  0.39880965592E+04  0.00000000000E+00 0. -1.
         23    2    1    2    0    0  0.35456149926E+03 -0.56983180150E+03 -0.34660971144E+04  0.35316630229E+04  0.91609838407E+02 0.  0.
         11    1    3    3    0    0  0.20315125974E+03 -0.30142911908E+03 -0.21012179450E+04  0.21324274432E+04  0.00000000000E+00 0. -1.
        -11    1    3    3    0    0  0.15141023952E+03 -0.26840268242E+03 -0.13648791694E+04  0.13992355797E+04  0.00000000000E+00 0.  1.
         22    1    1    2    0    0 -0.35456149926E+03  0.56983180150E+03 -0.25904122693E+03  0.71939175419E+03  0.00000000000E+00 0.  1.
<mgrwt>
<rscale>  0 0.20481238E+04</rscale>
<asrwt>0</asrwt>
<pdfrwt beam="1">  1        1 0.61355325E+00 0.20481238E+04</pdfrwt>
<pdfrwt beam="2">  1       -1 0.40455115E-01 0.20481238E+04</pdfrwt>
<totfact> 0.54578627E-01</totfact>
</mgrwt>
</event>
<event>
 6    1  0.1773638E-005  0.1872613E+04  0.7818608E-02  0.8668610E-01
         -2   -1    0    0    0  501 -0.00000000000E+00  0.00000000000E+00  0.26080403918E+03  0.26080403918E+03  0.00000000000E+00 0.  1.
          2   -1    0    0  501    0  0.00000000000E+00 -0.00000000000E+00 -0.33614110469E+04  0.33614110469E+04  0.00000000000E+00 0. -1.
         23    2    1    2    0    0  0.34709997104E+03 -0.18363548553E+03 -0.31935205919E+04  0.32186889834E+04  0.84762134958E+02 0.  0.
         13    1    3    3    0    0  0.13444640203E+03 -0.68949888504E+02 -0.15755501978E+04  0.15827786794E+04  0.00000000000E+00 0.  1.
        -13    1    3    3    0    0  0.21265356902E+03 -0.11468559702E+03 -0.16179703941E+04  0.16359103040E+04  0.00000000000E+00 0. -1.
         22    1    1    2    0    0 -0.34709997104E+03  0.18363548553E+03  0.92913584157E+02  0.40352610271E+03  0.00000000000E+00 0.  1.
<mgrwt>
<rscale>  0 0.18726127E+04</rscale>
<asrwt>0</asrwt>
<pdfrwt beam="1">  1        2 0.51714013E+00 0.18726127E+04</pdfrwt>
<pdfrwt beam="2">  1       -2 0.40123701E-01 0.18726127E+04</pdfrwt>
<totfact> 0.56216593E+00</totfact>
</mgrwt>
</event>
<event>
 6    1  0.1773638E-005  0.1757398E+04  0.7818608E-02  0.8729289E-01
         -1   -1    0    0    0  501 -0.00000000000E+00  0.00000000000E+00  0.97154994940E+03  0.97154994940E+03  0.00000000000E+00 0.  1.
          1   -1    0    0  501    0  0.00000000000E+00 -0.00000000000E+00 -0.79472187362E+03  0.79472187362E+03  0.00000000000E+00 0. -1.
         23    2    1    2    0    0 -0.78932539994E+03  0.33765287296E+03 -0.87184966745E+02  0.86808089888E+03  0.94441404979E+02 0.  0.
         11    1    3    3    0    0 -0.31260846706E+03  0.17116391927E+03 -0.46736380627E+01  0.35643089629E+03  0.00000000000E+00 0.  1.
        -11    1    3    3    0    0 -0.47671693287E+03  0.16648895369E+03 -0.82511328682E+02  0.51165000259E+03  0.00000000000E+00 0. -1.
         22    1    1    2    0    0  0.78932539994E+03 -0.33765287296E+03  0.26401304252E+03  0.89819092415E+03  0.00000000000E+00 0.  1.
<mgrwt>
<rscale>  0 0.17573981E+04</rscale>
<asrwt>0</asrwt>
<pdfrwt beam="1">  1        1 0.12226490E+00 0.17573981E+04</pdfrwt>
<pdfrwt beam="2">  1       -1 0.14946922E+00 0.17573981E+04</pdfrwt>
<totfact> 0.74550499E+00</totfact>
</mgrwt>
</event>
<event>
 6    1  0.1773638E-005  0.1540945E+04  0.7818608E-02  0.8857672E-01
          2   -1    0    0  501    0  0.00000000000E+00  0.00000000000E+00  0.11899611577E+04  0.11899611577E+04  0.00000000000E+00 0. -1.
         -2   -1    0    0    0  501 -0.00000000000E+00 -0.00000000000E+00 -0.49886353309E+03  0.49886353309E+03  0.00000000000E+00 0.  1.
         23    2    1    2    0    0 -0.19971986459E+03  0.72330746608E+03  0.52533820339E+03  0.92036005236E+03  0.89558267338E+02 0.  0.
         13    1    3    3    0    0 -0.30245989343E+02  0.24187964582E+03  0.19775219202E+03  0.31388933143E+03  0.00000000000E+00 0.  1.
        -13    1    3    3    0    0 -0.16947387525E+03  0.48142782026E+03  0.32758601136E+03  0.60647072094E+03  0.00000000000E+00 0. -1.
         22    1    1    2    0    0  0.19971986459E+03 -0.72330746608E+03  0.16575942123E+03  0.76846463843E+03  0.00000000000E+00 0. -1.
<mgrwt>
<rscale>  0 0.15409455E+04</rscale>
<asrwt>0</asrwt>
<pdfrwt beam="1">  1        2 0.18307095E+00 0.15409455E+04</pdfrwt>
<pdfrwt beam="2">  1       -2 0.76748236E-01 0.15409455E+04</pdfrwt>
<totfact> 0.28066454E+01</totfact>
</mgrwt>
</event>
<event>
 6    1  0.1773638E-005  0.4243630E+04  0.7818608E-02  0.7957124E-01
          1   -1    0    0  501    0  0.00000000000E+00  0.00000000000E+00  0.36089863633E+04  0.36089863633E+04  0.00000000000E+00 0. -1.
         -1   -1    0    0    0  501 -0.00000000000E+00 -0.00000000000E+00 -0.12474693553E+04  0.12474693553E+04  0.00000000000E+00 0.  1.
         23    2    1    2    0    0 -0.11768647201E+04  0.17116403150E+04  0.16715357413E+04  0.26676667188E+04  0.87697498246E+02 0.  0.
         11    1    3    3    0    0 -0.80610533533E+03  0.11774084908E+04  0.11997602380E+04  0.18642749783E+04  0.00000000000E+00 0.  1.
        -11    1    3    3    0    0 -0.37075938474E+03  0.53423182417E+03  0.47177550325E+03  0.80339174056E+03  0.00000000000E+00 0. -1.
         22    1    1    2    0    0  0.11768647201E+04 -0.17116403150E+04  0.68998126671E+03  0.21887889998E+04  0.00000000000E+00 0.  1.
<mgrwt>
<rscale>  0 0.42436305E+04</rscale>
<asrwt>0</asrwt>
<pdfrwt beam="1">  1        1 0.55522867E+00 0.42436305E+04</pdfrwt>
<pdfrwt beam="2">  1       -1 0.19191836E+00 0.42436305E+04</pdfrwt>
<totfact> 0.26841309E-02</totfact>
</mgrwt>
</event>
<event>
 6    1  0.1773638E-005  0.2088630E+04  0.7818608E-02  0.8566268E-01
         -3   -1    0    0    0  501 -0.00000000000E+00  0.00000000000E+00  0.15908766302E+04  0.15908766302E+04  0.00000000000E+00 0.  1.
          3   -1    0    0  501    0  0.00000000000E+00 -0.00000000000E+00 -0.68553042173E+03  0.68553042173E+03  0.00000000000E+00 0. -1.
         23    2    1    2    0    0 -0.49562199276E+03 -0.12968048041E+03  0.14428433220E+04  0.15338699594E+04  0.92206364750E+02 0.  0.
         13    1    3    3    0    0 -0.28029471000E+03 -0.50011261088E+02  0.91448890706E+03  0.95778714327E+03  0.00000000000E+00 0.  1.
        -13    1    3    3    0    0 -0.21532728276E+03 -0.79669219326E+02  0.52835441497E+03  0.57608281612E+03  0.00000000000E+00 0. -1.
         22    1    1    2    0    0  0.49562199276E+03  0.12968048041E+03 -0.53749711356E+03  0.74253709254E+03  0.00000000000E+00 0. -1.
<mgrwt>
<rscale>  0 0.20886305E+04</rscale>
<asrwt>0</asrwt>
<pdfrwt beam="1">  1        3 0.10546622E+00 0.20886305E+04</pdfrwt>
<pdfrwt beam="2">  1       -3 0.24475025E+00 0.20886305E+04</pdfrwt>
<totfact> 0.14587849E-01</totfact>
</mgrwt>
</event>
<event>
 6    1  0.1773638E-005  0.2163361E+04  0.7818608E-02  0.8533835E-01
         -2   -1    0    0    0  501 -0.00000000000E+00  0.00000000000E+00  0.80525430235E+03  0.80525430235E+03  0.00000000000E+00 0. -1.
          2   -1    0    0  501    0  0.00000000000E+00 -0.00000000000E+00 -0.14529981038E+04  0.14529981038E+04  0.00000000000E+00 0.  1.
         23    2    1    2    0    0  0.70154262059E+03 -0.48726655691E+03 -0.10139337293E+04  0.13289054261E+04  0.91308697274E+02 0.  0.
         13    1    3    3    0    0  0.58367798999E+03 -0.42209114124E+03 -0.80388379019E+03  0.10793841187E+04  0.00000000000E+00 0.  1.
        -13    1    3    3    0    0  0.11786463060E+03 -0.65175415663E+02 -0.21004993912E+03  0.24952130746E+03  0.00000000000E+00 0. -1.
         22    1    1    2    0    0 -0.70154262059E+03  0.48726655691E+03  0.36618992787E+03  0.92934698001E+03  0.00000000000E+00 0. -1.
<mgrwt>
<rscale>  0 0.21633612E+04</rscale>
<asrwt>0</asrwt>
<pdfrwt beam="1">  1        2 0.22353817E+00 0.21633612E+04</pdfrwt>
<pdfrwt beam="2">  1       -2 0.12388528E+00 0.21633612E+04</pdfrwt>
<totfact> 0.60690311E+00</totfact>
</mgrwt>
</event>
<event>
 6    1  0.1773638E-005  0.4029464E+04  0.7818608E-02  0.7998629E-01
          1   -1    0    0  501    0  0.00000000000E+00  0.00000000000E+00  0.29805942448E+04  0.29805942448E+04  0.00000000000E+00 0. -1.
         -1   -1    0    0    0  501 -0.00000000000E+00 -0.00000000000E+00 -0.13618574297E+04  0.13618574297E+04  0.00000000000E+00 0.  1.
         23    2    1    2    0    0  0.61019669312E+03 -0.18800734222E+04  0.39495830497E+03  0.20176613787E+04  0.89158844038E+02 0.  0.
         11    1    3    3    0    0  0.24854156984E+03 -0.78640938634E+03  0.20921940770E+03  0.85087331338E+03  0.00000000000E+00 0.  1.
        -11    1    3    3    0    0  0.36165512329E+03 -0.10936640358E+04  0.18573889726E+03  0.11667880654E+04  0.00000000000E+00 0. -1.
         22    1    1    2    0    0 -0.61019669312E+03  0.18800734222E+04  0.12237785101E+04  0.23247902957E+04  0.00000000000E+00 0. -1.
<mgrwt>
<rscale>  0 0.40294637E+04</rscale>
<asrwt>0</asrwt>
<pdfrwt beam="1">  1        1 0.45855296E+00 0.40294637E+04</pdfrwt>
<pdfrwt beam="2">  1       -1 0.20951653E+00 0.40294637E+04</pdfrwt>
<totfact> 0.62427568E-02</totfact>
</mgrwt>
</event>
<event>
 6    1  0.1773638E-005  0.3249122E+04  0.7818608E-02  0.8175963E-01
          2   -1    0    0  501    0  0.00000000000E+00  0.00000000000E+00  0.10414024457E+04  0.10414024457E+04  0.00000000000E+00 0. -1.
         -2   -1    0    0    0  501 -0.00000000000E+00 -0.00000000000E+00 -0.25342728820E+04  0.25342728820E+04  0.00000000000E+00 0.  1.
         23    2    1    2    0    0 -0.96773004950E+03 -0.48856340633E+02 -0.21803118984E+04  0.23876247587E+04  0.90020129326E+02 0.  0.
         11    1    3    3    0    0 -0.31529707783E+03  0.23540279088E+02 -0.74584959906E+03  0.81009753515E+03  0.00000000000E+00 0. -1.
        -11    1    3    3    0    0 -0.65243297167E+03 -0.72396619722E+02 -0.14344622993E+04  0.15775272236E+04  0.00000000000E+00 0.  1.
         22    1    1    2    0    0  0.96773004950E+03  0.48856340633E+02  0.68744146199E+03  0.11880505690E+04  0.00000000000E+00 0. -1.
<mgrwt>
<rscale>  0 0.32491217E+04</rscale>
<asrwt>0</asrwt>
<pdfrwt beam="1">  1        2 0.16021576E+00 0.32491217E+04</pdfrwt>
<pdfrwt beam="2">  1       -2 0.38988813E+00 0.32491217E+04</pdfrwt>
<totfact> 0.17160322E-01</totfact>
</mgrwt>
</event>
<event>
 6    1  0.1773638E-005  0.3928016E+04  0.7818608E-02  0.8019227E-01
         -2   -1    0    0    0  501 -0.00000000000E+00  0.00000000000E+00  0.33826519864E+04  0.33826519864E+04  0.00000000000E+00 0.  1.
          2   -1    0    0  501    0  0.00000000000E+00 -0.00000000000E+00 -0.11403264775E+04  0.11403264775E+04  0.00000000000E+00 0. -1.
         23    2    1    2    0    0  0.18410912773E+04 -0.66051779214E+03  0.93136856460E+03  0.21683003637E+04  0.90433506215E+02 0.  0.
         11    1    3    3    0    0  0.15703184141E+04 -0.59578330750E+03  0.78996148433E+03  0.18560433233E+04  0.00000000000E+00 0. -1.
        -11    1    3    3    0    0  0.27077286323E+03 -0.64734484635E+02  0.14140708027E+03  0.31225704046E+03  0.00000000000E+00 0.  1.
         22    1    1    2    0    0 -0.18410912773E+04  0.66051779214E+03  0.13109569443E+04  0.23546781001E+04  0.00000000000E+00 0. -1.
<mgrwt>
<rscale>  0 0.39280161E+04</rscale>
<asrwt>0</asrwt>
<pdfrwt beam="1">  1        2 0.17543484E+00 0.39280161E+04</pdfrwt>
<pdfrwt beam="2">  1       -2 0.52040799E+00 0.39280161E+04</pdfrwt>
<totfact> 0.20306513E-02</totfact>
</mgrwt>
</event>
<event>
 6    1  0.1773638E-005  0.2911264E+03  0.7818608E-02  0.1089763E+00
          2   -1    0    0  501    0  0.00000000000E+00  0.00000000000E+00  0.10829147658E+03  0.10829147658E+03  0.00000000000E+00 0.  1.
         -2   -1    0    0    0  501 -0.00000000000E+00 -0.00000000000E+00 -0.19566304522E+03  0.19566304522E+03  0.00000000000E+00 0. -1.
         23    2    1    2    0    0  0.50521836451E+02  0.11263622655E+03 -0.71631392910E+00  0.15312843433E+03  0.90600379720E+02 0.  0.
         11    1    3    3    0    0  0.53854182150E+02  0.71705604832E+02  0.37339708692E+02  0.97140210750E+02  0.00000000000E+00 0.  1.
        -11    1    3    3    0    0 -0.33323456990E+01  0.40930621717E+02 -0.38056022621E+02  0.55988223581E+02  0.00000000000E+00 0. -1.
         22    1    1    2    0    0 -0.50521836451E+02 -0.11263622655E+03 -0.86655254713E+02  0.15082608746E+03  0.00000000000E+00 0.  1.
<mgrwt>
<rscale>  0 0.29112636E+03</rscale>
<asrwt>0</asrwt>
<pdfrwt beam="1">  1        2 0.16660227E-01 0.29112636E+03</pdfrwt>
<pdfrwt beam="2">  1       -2 0.30102007E-01 0.29112636E+03</pdfrwt>
<totfact> 0.34862774E+03</totfact>
</mgrwt>
</event>
<event>
 6    1  0.1773638E-005  0.2451005E+04  0.7818608E-02  0.8420651E-01
         -2   -1    0    0    0  501 -0.00000000000E+00  0.00000000000E+00  0.17668839195E+04  0.17668839195E+04  0.00000000000E+00 0. -1.
          2   -1    0    0  501    0  0.00000000000E+00 -0.00000000000E+00 -0.85000300023E+03  0.85000300023E+03  0.00000000000E+00 0.  1.
         23    2    1    2    0    0  0.80497849023E+03 -0.43017086919E+02  0.14425748858E+04  0.16544966735E+04  0.80598398187E+02 0.  0.
         13    1    3    3    0    0  0.61854359850E+03 -0.11501744969E+02  0.11567267049E+04  0.13117717573E+04  0.00000000000E+00 0.  1.
        -13    1    3    3    0    0  0.18643489173E+03 -0.31515341950E+02  0.28584818096E+03  0.34272491621E+03  0.00000000000E+00 0. -1.
         22    1    1    2    0    0 -0.80497849023E+03  0.43017086919E+02 -0.52569396660E+03  0.96239024622E+03  0.00000000000E+00 0.  1.
<mgrwt>
<rscale>  0 0.24510052E+04</rscale>
<asrwt>0</asrwt>
<pdfrwt beam="1">  1        2 0.13076969E+00 0.24510052E+04</pdfrwt>
<pdfrwt beam="2">  1       -2 0.27182830E+00 0.24510052E+04</pdfrwt>
<totfact> 0.13424976E+00</totfact>
</mgrwt>
</event>
<event>
 6    1  0.1773638E-005  0.2485013E+04  0.7818608E-02  0.8408344E-01
         -2   -1    0    0    0  501 -0.00000000000E+00  0.00000000000E+00  0.42899399168E+03  0.42899399168E+03  0.00000000000E+00 0.  1.
          2   -1    0    0  501    0  0.00000000000E+00 -0.00000000000E+00 -0.35987041419E+04  0.35987041419E+04  0.00000000000E+00 0. -1.
         23    2    1    2    0    0  0.39124179438E+03  0.82008266940E+03 -0.21756404108E+03  0.93888406083E+03  0.92538864226E+02 0.  0.
         13    1    3    3    0    0  0.22299573184E+03  0.55247302917E+03 -0.16716828570E+03  0.61878815448E+03  0.00000000000E+00 0. -1.
        -13    1    3    3    0    0  0.16824606253E+03  0.26760964023E+03 -0.50395755381E+02  0.32009590635E+03  0.00000000000E+00 0.  1.
         22    1    1    2    0    0 -0.39124179438E+03 -0.82008266940E+03 -0.29521461091E+04  0.30888140727E+04  0.00000000000E+00 0. -1.
<mgrwt>
<rscale>  0 0.24850130E+04</rscale>
<asrwt>0</asrwt>
<pdfrwt beam="1">  1        2 0.55364681E+00 0.24850130E+04</pdfrwt>
<pdfrwt beam="2">  1       -2 0.65999074E-01 0.24850130E+04</pdfrwt>
<totfact> 0.13074756E+00</totfact>
</mgrwt>
</event>
<event>
 6    1  0.1773638E-005  0.4298018E+04  0.7818608E-02  0.7946985E-01
         -1   -1    0    0    0  501 -0.00000000000E+00  0.00000000000E+00  0.29223428430E+04  0.29223428430E+04  0.00000000000E+00 0.  1.
          1   -1    0    0  501    0  0.00000000000E+00 -0.00000000000E+00 -0.15803210958E+04  0.15803210958E+04  0.00000000000E+00 0. -1.
         23    2    1    2    0    0  0.17067509884E+04 -0.98914754155E+03 -0.22015586681E+03  0.19863549966E+04  0.75668827856E+02 0.  0.
         13    1    3    3    0    0  0.37316115174E+03 -0.25257242446E+03 -0.45612936837E+02  0.45290464203E+03  0.00000000000E+00 0. -1.
        -13    1    3    3    0    0  0.13335898366E+04 -0.73657511709E+03 -0.17454292998E+03  0.15334503545E+04  0.00000000000E+00 0.  1.
         22    1    1    2    0    0 -0.17067509884E+04  0.98914754155E+03  0.15621776139E+04  0.25163089422E+04  0.00000000000E+00 0.  1.
<mgrwt>
<rscale>  0 0.42980182E+04</rscale>
<asrwt>0</asrwt>
<pdfrwt beam="1">  1        1 0.24312632E+00 0.42980182E+04</pdfrwt>
<pdfrwt beam="2">  1       -1 0.44959121E+00 0.42980182E+04</pdfrwt>
<totfact> 0.14329138E-02</totfact>
</mgrwt>
</event>
<event>
 6    1  0.1773638E-005  0.2460559E+04  0.7818608E-02  0.8417173E-01
         -1   -1    0    0    0  501 -0.00000000000E+00  0.00000000000E+00  0.16357899272E+04  0.16357899272E+04  0.00000000000E+00 0. -1.
          1   -1    0    0  501    0  0.00000000000E+00 -0.00000000000E+00 -0.92529484843E+03  0.92529484843E+03  0.00000000000E+00 0.  1.
         23    2    1    2    0    0 -0.60796109350E+03 -0.16337685915E+03  0.14538562406E+04  0.15869726125E+04  0.92062018371E+02 0.  0.
         13    1    3    3    0    0 -0.40273898050E+03 -0.14834858513E+03  0.10284758302E+04  0.11144364147E+04  0.00000000000E+00 0.  1.
        -13    1    3    3    0    0 -0.20522211300E+03 -0.15028274017E+02  0.42538041038E+03  0.47253619779E+03  0.00000000000E+00 0. -1.
         22    1    1    2    0    0  0.60796109350E+03  0.16337685915E+03 -0.74336116186E+03  0.97411216309E+03  0.00000000000E+00 0.  1.
<mgrwt>
<rscale>  0 0.24605593E+04</rscale>
<asrwt>0</asrwt>
<pdfrwt beam="1">  1        1 0.14235305E+00 0.24605593E+04</pdfrwt>
<pdfrwt beam="2">  1       -1 0.25165999E+00 0.24605593E+04</pdfrwt>
<totfact> 0.10517858E+00</totfact>
</mgrwt>
</event>
<event>
 6    1  0.1773638E-005  0.2400889E+04  0.7818608E-02  0.8439171E-01
          1   -1    0    0  501    0  0.00000000000E+00  0.00000000000E+00  0.84810207682E+03  0.84810207682E+03  0.00000000000E+00 0. -1.
         -1   -1    0    0    0  501 -0.00000000000E+00 -0.00000000000E+00 -0.16991664257E+04  0.16991664257E+04  0.00000000000E+00 0.  1.
         23    2    1    2    0    0 -0.98671925868E+03  0.15480628241E+03  0.27706563447E+03  0.10405312528E+04  0.91433263209E+02 0.  0.
         11    1    3    3    0    0 -0.82066758127E+03  0.10253185061E+03  0.25241665876E+03  0.86470933206E+03  0.00000000000E+00 0.  1.
        -11    1    3    3    0    0 -0.16605167741E+03  0.52274431794E+02  0.24648975706E+02  0.17582192069E+03  0.00000000000E+00 0. -1.
         22    1    1    2    0    0  0.98671925868E+03 -0.15480628241E+03 -0.11281299834E+04  0.15067372498E+04  0.00000000000E+00 0.  1.
<mgrwt>
<rscale>  0 0.24008886E+04</rscale>
<asrwt>0</asrwt>
<pdfrwt beam="1">  1        1 0.13047724E+00 0.24008886E+04</pdfrwt>
<pdfrwt beam="2">  1       -1 0.26141022E+00 0.24008886E+04</pdfrwt>
<totfact> 0.10581750E+00</totfact>
</mgrwt>
</event>
<event>
 6    1  0.1773638E-005  0.1678585E+04  0.7818608E-02  0.8773673E-01
          1   -1    0    0  501    0  0.00000000000E+00  0.00000000000E+00  0.10559767579E+04  0.10559767579E+04  0.00000000000E+00 0. -1.
         -1   -1    0    0    0  501 -0.00000000000E+00 -0.00000000000E+00 -0.66707137249E+03  0.66707137249E+03  0.00000000000E+00 0.  1.
         23    2    1    2    0    0 -0.54349477918E+03 -0.63628884091E+03  0.19544944183E+03  0.86416789067E+03  0.91299479166E+02 0.  0.
         11    1    3    3    0    0 -0.40149680484E+03 -0.40960840114E+03  0.11652550072E+03  0.58528362261E+03  0.00000000000E+00 0. -1.
        -11    1    3    3    0    0 -0.14199797434E+03 -0.22668043977E+03  0.78923941109E+02  0.27888426806E+03  0.00000000000E+00 0.  1.
         22    1    1    2    0    0  0.54349477918E+03  0.63628884091E+03  0.19345594357E+03  0.85888023971E+03  0.00000000000E+00 0. -1.
<mgrwt>
<rscale>  0 0.16785850E+04</rscale>
<asrwt>0</asrwt>
<pdfrwt beam="1">  1        1 0.16245796E+00 0.16785850E+04</pdfrwt>
<pdfrwt beam="2">  1       -1 0.10262637E+00 0.16785850E+04</pdfrwt>
<totfact> 0.11723116E+01</totfact>
</mgrwt>
</event>
<event>
 6    1  0.1773638E-005  0.2825578E+04  0.7818608E-02  0.8295371E-01
          2   -1    0    0  501    0  0.00000000000E+00  0.00000000000E+00  0.14533400155E+04  0.14533400155E+04  0.00000000000E+00 0. -1.
         -2   -1    0    0    0  501 -0.00000000000E+00 -0.00000000000E+00 -0.13733691969E+04  0.13733691969E+04  0.00000000000E+00 0.  1.
         23    2    1    2    0    0  0.14034485124E+04  0.13656040686E+03  0.95225843330E+02  0.14165499350E+04  0.96069170320E+02 0.  0.
         11    1    3    3    0    0  0.38286487978E+03 -0.56160105539E+01  0.26177510290E+02  0.38379984079E+03  0.00000000000E+00 0. -1.
        -11    1    3    3    0    0  0.10205836326E+04  0.14217641741E+03  0.69048333040E+02  0.10327500942E+04  0.00000000000E+00 0.  1.
         22    1    1    2    0    0 -0.14034485124E+04 -0.13656040686E+03 -0.15255024706E+02  0.14101592774E+04  0.00000000000E+00 0.  1.
<mgrwt>
<rscale>  0 0.28255778E+04</rscale>
<asrwt>0</asrwt>
<pdfrwt beam="1">  1        2 0.22359077E+00 0.28255778E+04</pdfrwt>
<pdfrwt beam="2">  1       -2 0.21128757E+00 0.28255778E+04</pdfrwt>
<totfact> 0.13161814E+00</totfact>
</mgrwt>
</event>
<event>
 6    1  0.1773638E-005  0.1723382E+04  0.7818608E-02  0.8748140E-01
         -2   -1    0    0    0  501 -0.00000000000E+00  0.00000000000E+00  0.12401931304E+04  0.12401931304E+04  0.00000000000E+00 0.  1.
          2   -1    0    0  501    0  0.00000000000E+00 -0.00000000000E+00 -0.59870628019E+03  0.59870628019E+03  0.00000000000E+00 0. -1.
         23    2    1    2    0    0  0.85599001681E+02  0.25408596149E+03 -0.54903743497E+03  0.61855727064E+03  0.96354175607E+02 0.  0.
         11    1    3    3    0    0  0.35576727872E+02  0.21994600674E+03 -0.45638693911E+03  0.50786906545E+03  0.00000000000E+00 0. -1.
        -11    1    3    3    0    0  0.50022273809E+02  0.34139954747E+02 -0.92650495855E+02  0.11068820520E+03  0.00000000000E+00 0.  1.
         22    1    1    2    0    0 -0.85599001681E+02 -0.25408596149E+03  0.11905242852E+04  0.12203421400E+04  0.00000000000E+00 0.  1.
<mgrwt>
<rscale>  0 0.17233820E+04</rscale>
<asrwt>0</asrwt>
<pdfrwt beam="1">  1        2 0.92108659E-01 0.17233820E+04</pdfrwt>
<pdfrwt beam="2">  1       -2 0.19079894E+00 0.17233820E+04</pdfrwt>
<totfact> 0.72244113E+00</totfact>
</mgrwt>
</event>
<event>
 6    1  0.1773638E-005  0.2520050E+04  0.7818608E-02  0.8395877E-01
         -2   -1    0    0    0  501 -0.00000000000E+00  0.00000000000E+00  0.13176359755E+04  0.13176359755E+04  0.00000000000E+00 0.  1.
          2   -1    0    0  501    0  0.00000000000E+00 -0.00000000000E+00 -0.12049328859E+04  0.12049328859E+04  0.00000000000E+00 0. -1.
         23    2    1    2    0    0 -0.58462678212E+03  0.88657672560E+03  0.73234534043E+03  0.12930310280E+04  0.88276706350E+02 0.  0.
         13    1    3    3    0    0 -0.16359983382E+03  0.29882009179E+03  0.27178623883E+03  0.43580513134E+03  0.00000000000E+00 0. -1.
        -13    1    3    3    0    0 -0.42102694830E+03  0.58775663380E+03  0.46055910160E+03  0.85722589662E+03  0.00000000000E+00 0.  1.
         22    1    1    2    0    0  0.58462678212E+03 -0.88657672560E+03 -0.61964225091E+03  0.12295378334E+04  0.00000000000E+00 0. -1.
<mgrwt>
<rscale>  0 0.25200499E+04</rscale>
<asrwt>0</asrwt>
<pdfrwt beam="1">  1        2 0.18537429E+00 0.25200499E+04</pdfrwt>
<pdfrwt beam="2">  1       -2 0.20271323E+00 0.25200499E+04</pdfrwt>
<totfact> 0.21384564E+00</totfact>
</mgrwt>
</event>
<event>
 6    1  0.1773638E-005  0.3552224E+04  0.7818608E-02  0.8101524E-01
          1   -1    0    0  501    0  0.00000000000E+00  0.00000000000E+00  0.19687414302E+04  0.19687414302E+04  0.00000000000E+00 0. -1.
         -1   -1    0    0    0  501 -0.00000000000E+00 -0.00000000000E+00 -0.16023301562E+04  0.16023301562E+04  0.00000000000E+00 0.  1.
         23    2    1    2    0    0 -0.22722168479E+02 -0.17716906804E+04  0.79464542472E+02  0.17761502536E+04  0.94820598986E+02 0.  0.
         13    1    3    3    0    0  0.15699321822E+02 -0.18923776573E+03 -0.14528149107E+02  0.19044282029E+03  0.00000000000E+00 0.  1.
        -13    1    3    3    0    0 -0.38421490301E+02 -0.15824529147E+04  0.93992691579E+02  0.15857074333E+04  0.00000000000E+00 0. -1.
         22    1    1    2    0    0  0.22722168479E+02  0.17716906804E+04  0.28694673160E+03  0.17949213328E+04  0.00000000000E+00 0. -1.
<mgrwt>
<rscale>  0 0.35522240E+04</rscale>
<asrwt>0</asrwt>
<pdfrwt beam="1">  1        1 0.30288330E+00 0.35522240E+04</pdfrwt>
<pdfrwt beam="2">  1       -1 0.24651233E+00 0.35522240E+04</pdfrwt>
<totfact> 0.18678737E-01</totfact>
</mgrwt>
</event>
<event>
 6    1  0.1773638E-005  0.4064237E+04  0.7818608E-02  0.7991712E-01
         -1   -1    0    0    0  501 -0.00000000000E+00  0.00000000000E+00  0.30082111541E+04  0.30082111541E+04  0.00000000000E+00 0.  1.
          1   -1    0    0  501    0  0.00000000000E+00 -0.00000000000E+00 -0.13727443668E+04  0.13727443668E+04  0.00000000000E+00 0. -1.
         23    2    1    2    0    0 -0.19940763801E+04  0.38403835377E+03  0.85803734464E+03  0.22065078657E+04  0.92859086641E+02 0.  0.
         13    1    3    3    0    0 -0.17889246237E+04  0.35848374173E+03  0.79679559592E+03  0.19908905354E+04  0.00000000000E+00 0.  1.
        -13    1    3    3    0    0 -0.20515175635E+03  0.25554612040E+02  0.61241748720E+02  0.21561733028E+03  0.00000000000E+00 0. -1.
         22    1    1    2    0    0  0.19940763801E+04 -0.38403835377E+03  0.77742944273E+03  0.21744476552E+04  0.00000000000E+00 0. -1.
<mgrwt>
<rscale>  0 0.40642367E+04</rscale>
<asrwt>0</asrwt>
<pdfrwt beam="1">  1        1 0.21119144E+00 0.40642367E+04</pdfrwt>
<pdfrwt beam="2">  1       -1 0.46280171E+00 0.40642367E+04</pdfrwt>
<totfact> 0.16525600E-02</totfact>
</mgrwt>
</event>
<event>
 6    1  0.1773638E-005  0.2342200E+04  0.7818608E-02  0.8461466E-01
         -2   -1    0    0    0  501 -0.00000000000E+00  0.00000000000E+00  0.67826207552E+03  0.67826207552E+03  0.00000000000E+00 0.  1.
          2   -1    0    0  501    0  0.00000000000E+00 -0.00000000000E+00 -0.20220434126E+04  0.20220434126E+04  0.00000000000E+00 0. -1.
         23    2    1    2    0    0  0.50393141921E+03 -0.10537252929E+04 -0.73582203439E+03  0.13835297358E+04  0.91850941631E+02 0.  0.
         13    1    3    3    0    0  0.13183076645E+03 -0.34910727429E+03 -0.20107317562E+03  0.42389345583E+03  0.00000000000E+00 0. -1.
        -13    1    3    3    0    0  0.37210065277E+03 -0.70461801859E+03 -0.53474885877E+03  0.95963627999E+03  0.00000000000E+00 0.  1.
         22    1    1    2    0    0 -0.50393141921E+03  0.10537252929E+04 -0.60795930268E+03  0.13167757523E+04  0.00000000000E+00 0.  1.
<mgrwt>
<rscale>  0 0.23422001E+04</rscale>
<asrwt>0</asrwt>
<pdfrwt beam="1">  1        2 0.31108360E+00 0.23422001E+04</pdfrwt>
<pdfrwt beam="2">  1       -2 0.10434801E+00 0.23422001E+04</pdfrwt>
<totfact> 0.43783635E+00</totfact>
</mgrwt>
</event>
<event>
 6    1  0.1773638E-005  0.1951399E+04  0.7818608E-02  0.8629687E-01
         -2   -1    0    0    0  501 -0.00000000000E+00  0.00000000000E+00  0.76102489249E+03  0.76102489249E+03  0.00000000000E+00 0.  1.
          2   -1    0    0  501    0  0.00000000000E+00 -0.00000000000E+00 -0.12509302084E+04  0.12509302084E+04  0.00000000000E+00 0. -1.
         23    2    1    2    0    0  0.73871730502E+03 -0.59976738847E+03 -0.45774248817E+03  0.10598738940E+04  0.91544025976E+02 0.  0.
         11    1    3    3    0    0  0.57038704982E+03 -0.46917805694E+03 -0.39618840545E+03  0.83811376813E+03  0.00000000000E+00 0. -1.
        -11    1    3    3    0    0  0.16833025520E+03 -0.13058933153E+03 -0.61554082723E+02  0.22176012587E+03  0.00000000000E+00 0.  1.
         22    1    1    2    0    0 -0.73871730502E+03  0.59976738847E+03 -0.32162827725E+02  0.95208120688E+03  0.00000000000E+00 0.  1.
<mgrwt>
<rscale>  0 0.19513985E+04</rscale>
<asrwt>0</asrwt>
<pdfrwt beam="1">  1        2 0.19245080E+00 0.19513985E+04</pdfrwt>
<pdfrwt beam="2">  1       -2 0.11708075E+00 0.19513985E+04</pdfrwt>
<totfact> 0.92997523E+00</totfact>
</mgrwt>
</event>
<event>
 6    1  0.1773638E-005  0.1191823E+04  0.7818608E-02  0.9120044E-01
         -1   -1    0    0    0  501 -0.00000000000E+00  0.00000000000E+00  0.27905268515E+03  0.27905268515E+03  0.00000000000E+00 0.  1.
          1   -1    0    0  501    0  0.00000000000E+00 -0.00000000000E+00 -0.12725570780E+04  0.12725570780E+04  0.00000000000E+00 0. -1.
         23    2    1    2    0    0 -0.35493680573E+03 -0.38193200030E+03 -0.86585516623E+03  0.10148169596E+04  0.91082949540E+02 0.  0.
         11    1    3    3    0    0 -0.17780022605E+03 -0.17497005759E+03 -0.49899298022E+03  0.55787223963E+03  0.00000000000E+00 0. -1.
        -11    1    3    3    0    0 -0.17713657968E+03 -0.20696194271E+03 -0.36686218601E+03  0.45694471997E+03  0.00000000000E+00 0.  1.
         22    1    1    2    0    0  0.35493680573E+03  0.38193200030E+03 -0.12764922665E+03  0.53679280358E+03  0.00000000000E+00 0.  1.
<mgrwt>
<rscale>  0 0.11918229E+04</rscale>
<asrwt>0</asrwt>
<pdfrwt beam="1">  1        1 0.19577801E+00 0.11918229E+04</pdfrwt>
<pdfrwt beam="2">  1       -1 0.42931183E-01 0.11918229E+04</pdfrwt>
<totfact> 0.50089990E+01</totfact>
</mgrwt>
</event>
<event>
 6    1  0.1773638E-005  0.3790608E+04  0.7818608E-02  0.8048173E-01
          2   -1    0    0  501    0  0.00000000000E+00  0.00000000000E+00  0.43078690074E+04  0.43078690074E+04  0.00000000000E+00 0. -1.
         -2   -1    0    0    0  501 -0.00000000000E+00 -0.00000000000E+00 -0.83386415860E+03  0.83386415860E+03  0.00000000000E+00 0.  1.
         23    2    1    2    0    0  0.31926116114E+03 -0.11192595416E+04  0.37651245405E+04  0.39419747381E+04  0.91282090787E+02 0.  0.
         11    1    3    3    0    0  0.67966940150E+02 -0.31522049914E+03  0.11641744780E+04  0.12080089748E+04  0.00000000000E+00 0. -1.
        -11    1    3    3    0    0  0.25129422099E+03 -0.80403904241E+03  0.26009500625E+04  0.27339657633E+04  0.00000000000E+00 0.  1.
         22    1    1    2    0    0 -0.31926116114E+03  0.11192595416E+04 -0.29111969170E+03  0.11997584279E+04  0.00000000000E+00 0.  1.
<mgrwt>
<rscale>  0 0.37906082E+04</rscale>
<asrwt>0</asrwt>
<pdfrwt beam="1">  1        2 0.66274906E+00 0.37906082E+04</pdfrwt>
<pdfrwt beam="2">  1       -2 0.12828680E+00 0.37906082E+04</pdfrwt>
<totfact> 0.66915467E-02</totfact>
</mgrwt>
</event>
<event>
 6    1  0.1773638E-005  0.4266184E+04  0.7818608E-02  0.7952901E-01
         -2   -1    0    0    0  501 -0.00000000000E+00  0.00000000000E+00  0.14706029956E+04  0.14706029956E+04  0.00000000000E+00 0.  1.
          2   -1    0    0  501    0  0.00000000000E+00 -0.00000000000E+00 -0.30940245720E+04  0.30940245720E+04  0.00000000000E+00 0. -1.
         23    2    1    2    0    0 -0.19051427178E+04  0.76584960346E+02  0.20884894366E+03  0.19202657750E+04  0.91480786163E+02 0.  0.
         11    1    3    3    0    0 -0.10060099885E+04 -0.29437894327E+01  0.12454722632E+03  0.10136946160E+04  0.00000000000E+00 0. -1.
        -11    1    3    3    0    0 -0.89913272927E+03  0.79528749779E+02  0.84301717340E+02  0.90657115906E+03  0.00000000000E+00 0.  1.
         22    1    1    2    0    0  0.19051427178E+04 -0.76584960346E+02 -0.18322705201E+04  0.26443617926E+04  0.00000000000E+00 0. -1.
<mgrwt>
<rscale>  0 0.42661842E+04</rscale>
<asrwt>0</asrwt>
<pdfrwt beam="1">  1        2 0.47600377E+00 0.42661842E+04</pdfrwt>
<pdfrwt beam="2">  1       -2 0.22624662E+00 0.42661842E+04</pdfrwt>
<totfact> 0.10572532E-01</totfact>
</mgrwt>
</event>
<event>
 6    1  0.1773638E-005  0.4125009E+04  0.7818608E-02  0.7979792E-01
         -2   -1    0    0    0  501 -0.00000000000E+00  0.00000000000E+00  0.29619477345E+04  0.29619477345E+04  0.00000000000E+00 0.  1.
          2   -1    0    0  501    0  0.00000000000E+00 -0.00000000000E+00 -0.14361917943E+04  0.14361917943E+04  0.00000000000E+00 0. -1.
         23    2    1    2    0    0 -0.79730223240E+03  0.16482783975E+03 -0.12561194136E+04  0.14995727191E+04  0.89572830958E+02 0.  0.
         11    1    3    3    0    0 -0.62190520186E+03  0.14676176033E+03 -0.92196858829E+03  0.11217536147E+04  0.00000000000E+00 0.  1.
        -11    1    3    3    0    0 -0.17539703054E+03  0.18066079416E+02 -0.33415082532E+03  0.37781910434E+03  0.00000000000E+00 0. -1.
         22    1    1    2    0    0  0.79730223240E+03 -0.16482783975E+03  0.27818753538E+04  0.28985668097E+04  0.00000000000E+00 0.  1.
<mgrwt>
<rscale>  0 0.41250091E+04</rscale>
<asrwt>0</asrwt>
<pdfrwt beam="1">  1        2 0.22095258E+00 0.41250091E+04</pdfrwt>
<pdfrwt beam="2">  1       -2 0.45568427E+00 0.41250091E+04</pdfrwt>
<totfact> 0.34317977E-02</totfact>
</mgrwt>
</event>
<event>
 6    1  0.1819772E-005  0.2559948E+04  0.7818608E-02  0.8381935E-01
         -2   -1    0    0    0  501 -0.00000000000E+00  0.00000000000E+00  0.13590230896E+04  0.13590230896E+04  0.00000000000E+00 0.  1.
          2   -1    0    0  501    0  0.00000000000E+00 -0.00000000000E+00 -0.12055229094E+04  0.12055229094E+04  0.00000000000E+00 0. -1.
         23    2    1    2    0    0 -0.97643170667E+03  0.44458750502E+03 -0.62091991388E+03  0.12413667180E+04  0.66127617091E+02 0.  0.
         13    1    3    3    0    0 -0.24005860515E+03  0.95912916902E+02 -0.12057031885E+03  0.28524484803E+03  0.00000000000E+00 0. -1.
        -13    1    3    3    0    0 -0.73637310152E+03  0.34867458812E+03 -0.50034959502E+03  0.95612186999E+03  0.00000000000E+00 0.  1.
         22    1    1    2    0    0  0.97643170667E+03 -0.44458750502E+03  0.77442009411E+03  0.13231792810E+04  0.00000000000E+00 0. -1.
<mgrwt>
<rscale>  0 0.25599480E+04</rscale>
<asrwt>0</asrwt>
<pdfrwt beam="1">  1        2 0.18546506E+00 0.25599480E+04</pdfrwt>
<pdfrwt beam="2">  1       -2 0.20908048E+00 0.25599480E+04</pdfrwt>
<totfact> 0.19364635E+00</totfact>
</mgrwt>
</event>
<event>
 6    1  0.1773638E-005  0.5000211E+04  0.7818608E-02  0.7828475E-01
         -1   -1    0    0    0  501 -0.00000000000E+00  0.00000000000E+00  0.22212142825E+04  0.22212142825E+04  0.00000000000E+00 0.  1.
          1   -1    0    0  501    0  0.00000000000E+00 -0.00000000000E+00 -0.28140133421E+04  0.28140133421E+04  0.00000000000E+00 0. -1.
         23    2    1    2    0    0 -0.98904850929E+03  0.22944548261E+04 -0.23546402934E+03  0.25112568984E+04  0.90708313356E+02 0.  0.
         13    1    3    3    0    0 -0.75443919188E+03  0.16640600399E+04 -0.15064823803E+03  0.18332946305E+04  0.00000000000E+00 0.  1.
        -13    1    3    3    0    0 -0.23460931741E+03  0.63039478615E+03 -0.84815791310E+02  0.67796226789E+03  0.00000000000E+00 0. -1.
         22    1    1    2    0    0  0.98904850929E+03 -0.22944548261E+04 -0.35733503026E+03  0.25239707262E+04  0.00000000000E+00 0. -1.
<mgrwt>
<rscale>  0 0.50002106E+04</rscale>
<asrwt>0</asrwt>
<pdfrwt beam="1">  1        1 0.43292513E+00 0.50002106E+04</pdfrwt>
<pdfrwt beam="2">  1       -1 0.34172528E+00 0.50002106E+04</pdfrwt>
<totfact> 0.10363918E-02</totfact>
</mgrwt>
</event>
<event>
 6    1  0.1773638E-005  0.3746707E+04  0.7818608E-02  0.8057689E-01
          2   -1    0    0  501    0  0.00000000000E+00  0.00000000000E+00  0.29854208974E+04  0.29854208974E+04  0.00000000000E+00 0. -1.
         -2   -1    0    0    0  501 -0.00000000000E+00 -0.00000000000E+00 -0.11755302308E+04  0.11755302308E+04  0.00000000000E+00 0.  1.
         23    2    1    2    0    0  0.12968950977E+03  0.80482088539E+03 -0.96624578444E+03  0.12675984672E+04  0.92838201561E+02 0.  0.
         11    1    3    3    0    0  0.17348610068E+02  0.12812917907E+03 -0.20987231799E+03  0.24650446376E+03  0.00000000000E+00 0. -1.
        -11    1    3    3    0    0  0.11234089970E+03  0.67669170633E+03 -0.75637346645E+03  0.10210940035E+04  0.00000000000E+00 0.  1.
         22    1    1    2    0    0 -0.12968950977E+03 -0.80482088539E+03  0.27761364510E+04  0.28933526611E+04  0.00000000000E+00 0. -1.
<mgrwt>
<rscale>  0 0.37467066E+04</rscale>
<asrwt>0</asrwt>
<pdfrwt beam="1">  1        2 0.45929552E+00 0.37467066E+04</pdfrwt>
<pdfrwt beam="2">  1       -2 0.18085081E+00 0.37467066E+04</pdfrwt>
<totfact> 0.25600584E-01</totfact>
</mgrwt>
</event>
<event>
 6    1  0.1773638E-005  0.1907299E+04  0.7818608E-02  0.8651231E-01
         -1   -1    0    0    0  501 -0.00000000000E+00  0.00000000000E+00  0.10573508252E+04  0.10573508252E+04  0.00000000000E+00 0.  1.
          1   -1    0    0  501    0  0.00000000000E+00 -0.00000000000E+00 -0.86011925781E+03  0.86011925781E+03  0.00000000000E+00 0. -1.
         23    2    1    2    0    0  0.72434244125E+03 -0.36431838822E+03  0.59997311996E+03  0.10121521176E+04  0.84168309591E+02 0.  0.
         13    1    3    3    0    0  0.47166780087E+03 -0.28105696985E+03  0.41001705297E+03  0.68525726440E+03  0.00000000000E+00 0. -1.
        -13    1    3    3    0    0  0.25267464038E+03 -0.83261418369E+02  0.18995606698E+03  0.32689485322E+03  0.00000000000E+00 0.  1.
         22    1    1    2    0    0 -0.72434244125E+03  0.36431838822E+03 -0.40274155260E+03  0.90531796535E+03  0.00000000000E+00 0. -1.
<mgrwt>
<rscale>  0 0.19072995E+04</rscale>
<asrwt>0</asrwt>
<pdfrwt beam="1">  1        1 0.13232604E+00 0.19072995E+04</pdfrwt>
<pdfrwt beam="2">  1       -1 0.16266936E+00 0.19072995E+04</pdfrwt>
<totfact> 0.51230156E+00</totfact>
</mgrwt>
</event>
<event>
 6    1  0.1773638E-005  0.1279517E+04  0.7818608E-02  0.9045968E-01
         -1   -1    0    0    0  501 -0.00000000000E+00  0.00000000000E+00  0.89697543622E+03  0.89697543622E+03  0.00000000000E+00 0.  1.
          1   -1    0    0  501    0  0.00000000000E+00 -0.00000000000E+00 -0.45630108518E+03  0.45630108518E+03  0.00000000000E+00 0. -1.
         23    2    1    2    0    0 -0.21522890282E+03 -0.55346234652E+03 -0.21261706275E+02  0.60092755272E+03  0.89542246140E+02 0.  0.
         11    1    3    3    0    0 -0.78852026529E+02 -0.11115704929E+03 -0.22156098622E+02  0.13807398162E+03  0.00000000000E+00 0.  1.
        -11    1    3    3    0    0 -0.13637687629E+03 -0.44230529723E+03  0.89439234686E+00  0.46285357110E+03  0.00000000000E+00 0. -1.
         22    1    1    2    0    0  0.21522890282E+03  0.55346234652E+03  0.46193605731E+03  0.75234896868E+03  0.00000000000E+00 0.  1.
<mgrwt>
<rscale>  0 0.12795169E+04</rscale>
<asrwt>0</asrwt>
<pdfrwt beam="1">  1        1 0.70200167E-01 0.12795169E+04</pdfrwt>
<pdfrwt beam="2">  1       -1 0.13799622E+00 0.12795169E+04</pdfrwt>
<totfact> 0.21523465E+01</totfact>
</mgrwt>
</event>
<event>
 6    1  0.1773638E-005  0.2158474E+04  0.7818608E-02  0.8535914E-01
          4   -1    0    0  501    0  0.00000000000E+00  0.00000000000E+00  0.68146355661E+03  0.68146355661E+03  0.00000000000E+00 0. -1.
         -4   -1    0    0    0  501 -0.00000000000E+00 -0.00000000000E+00 -0.17091931198E+04  0.17091931198E+04  0.00000000000E+00 0.  1.
         23    2    1    2    0    0  0.26116648688E+03  0.37863508955E+03  0.56410715168E+03  0.73369663111E+03  0.92311445736E+02 0.  0.
         11    1    3    3    0    0  0.18273081429E+03  0.22900245787E+03  0.41732672574E+03  0.50989633478E+03  0.00000000000E+00 0.  1.
        -11    1    3    3    0    0  0.78435672588E+02  0.14963263168E+03  0.14678042593E+03  0.22380029632E+03  0.00000000000E+00 0. -1.
         22    1    1    2    0    0 -0.26116648688E+03 -0.37863508955E+03 -0.15918367149E+04  0.16569600453E+04  0.00000000000E+00 0.  1.
<mgrwt>
<rscale>  0 0.21584743E+04</rscale>
<asrwt>0</asrwt>
<pdfrwt beam="1">  1        4 0.10484055E+00 0.21584743E+04</pdfrwt>
<pdfrwt beam="2">  1       -4 0.26295279E+00 0.21584743E+04</pdfrwt>
<totfact> 0.70920098E-02</totfact>
</mgrwt>
</event>
<event>
 6    1  0.1773638E-005  0.2779700E+04  0.7818608E-02  0.8309599E-01
          1   -1    0    0  501    0  0.00000000000E+00  0.00000000000E+00  0.29017955892E+04  0.29017955892E+04  0.00000000000E+00 0. -1.
         -1   -1    0    0    0  501 -0.00000000000E+00 -0.00000000000E+00 -0.66568520851E+03  0.66568520851E+03  0.00000000000E+00 0.  1.
         23    2    1    2    0    0 -0.82364831543E+03 -0.88988998256E+03  0.25153038242E+03  0.12417855257E+04  0.91994728469E+02 0.  0.
         11    1    3    3    0    0 -0.60238205130E+03 -0.58946686501E+03  0.16635788887E+03  0.85907523993E+03  0.00000000000E+00 0.  1.
        -11    1    3    3    0    0 -0.22126626413E+03 -0.30042311755E+03  0.85172493549E+02  0.38271028580E+03  0.00000000000E+00 0. -1.
         22    1    1    2    0    0  0.82364831543E+03  0.88988998256E+03  0.19845799983E+04  0.23256952720E+04  0.00000000000E+00 0. -1.
<mgrwt>
<rscale>  0 0.27796996E+04</rscale>
<asrwt>0</asrwt>
<pdfrwt beam="1">  1        1 0.44643009E+00 0.27796996E+04</pdfrwt>
<pdfrwt beam="2">  1       -1 0.10241311E+00 0.27796996E+04</pdfrwt>
<totfact> 0.55078018E-01</totfact>
</mgrwt>
</event>
<event>
 6    1  0.1773638E-005  0.3054776E+04  0.7818608E-02  0.8228260E-01
          1   -1    0    0  501    0  0.00000000000E+00  0.00000000000E+00  0.19826061729E+04  0.19826061729E+04  0.00000000000E+00 0. -1.
         -1   -1    0    0    0  501 -0.00000000000E+00 -0.00000000000E+00 -0.11766904893E+04  0.11766904893E+04  0.00000000000E+00 0.  1.
         23    2    1    2    0    0  0.73472174671E+03 -0.10716368777E+04 -0.42441419470E+03  0.13699020013E+04  0.91007921638E+02 0.  0.
         13    1    3    3    0    0  0.50177906469E+03 -0.75574295471E+03 -0.25426627464E+03  0.94211516375E+03  0.00000000000E+00 0. -1.
        -13    1    3    3    0    0  0.23294268202E+03 -0.31589392301E+03 -0.17014792006E+03  0.42778683757E+03  0.00000000000E+00 0.  1.
         22    1    1    2    0    0 -0.73472174671E+03  0.10716368777E+04  0.12303298784E+04  0.17893946609E+04  0.00000000000E+00 0. -1.
<mgrwt>
<rscale>  0 0.30547758E+04</rscale>
<asrwt>0</asrwt>
<pdfrwt beam="1">  1        1 0.30501634E+00 0.30547758E+04</pdfrwt>
<pdfrwt beam="2">  1       -1 0.18102931E+00 0.30547758E+04</pdfrwt>
<totfact> 0.53070759E-01</totfact>
</mgrwt>
</event>
<event>
 6    1  0.1773638E-005  0.5073899E+04  0.7818608E-02  0.7817208E-01
         -2   -1    0    0    0  501 -0.00000000000E+00  0.00000000000E+00  0.20981023317E+04  0.20981023317E+04  0.00000000000E+00 0.  1.
          2   -1    0    0  501    0  0.00000000000E+00 -0.00000000000E+00 -0.30675876334E+04  0.30675876334E+04  0.00000000000E+00 0. -1.
         23    2    1    2    0    0 -0.10425181688E+04 -0.18917687811E+04  0.86822070099E+03  0.23297074888E+04  0.89980801725E+02 0.  0.
         11    1    3    3    0    0 -0.92342277917E+03 -0.17295387779E+04  0.78499472244E+03  0.21119258338E+04  0.00000000000E+00 0.  1.
        -11    1    3    3    0    0 -0.11909538960E+03 -0.16223000319E+03  0.83225978545E+02  0.21778165502E+03  0.00000000000E+00 0. -1.
         22    1    1    2    0    0  0.10425181688E+04  0.18917687811E+04 -0.18377060027E+04  0.28359824763E+04  0.00000000000E+00 0. -1.
<mgrwt>
<rscale>  0 0.50738990E+04</rscale>
<asrwt>0</asrwt>
<pdfrwt beam="1">  1        2 0.47193656E+00 0.50738990E+04</pdfrwt>
<pdfrwt beam="2">  1       -2 0.32278497E+00 0.50738990E+04</pdfrwt>
<totfact> 0.26270412E-02</totfact>
</mgrwt>
</event>
<event>
 6    1  0.1773638E-005  0.1059846E+04  0.7818608E-02  0.9245238E-01
         -3   -1    0    0    0  501 -0.00000000000E+00  0.00000000000E+00  0.25817873156E+04  0.25817873156E+04  0.00000000000E+00 0.  1.
          3   -1    0    0  501    0  0.00000000000E+00 -0.00000000000E+00 -0.10876890858E+03  0.10876890858E+03  0.00000000000E+00 0. -1.
         23    2    1    2    0    0  0.24391813684E+02  0.81076704344E+02  0.25635519875E+04  0.25666017093E+04  0.92071434914E+02 0.  0.
         13    1    3    3    0    0  0.48930642124E+02  0.14399867741E+02  0.13583698630E+04  0.13593271308E+04  0.00000000000E+00 0. -1.
        -13    1    3    3    0    0 -0.24538828440E+02  0.66676836603E+02  0.12051821246E+04  0.12072745785E+04  0.00000000000E+00 0.  1.
         22    1    1    2    0    0 -0.24391813684E+02 -0.81076704344E+02 -0.90533580467E+02  0.12395451486E+03  0.00000000000E+00 0. -1.
<mgrwt>
<rscale>  0 0.10598456E+04</rscale>
<asrwt>0</asrwt>
<pdfrwt beam="1">  1        3 0.16733680E-01 0.10598456E+04</pdfrwt>
<pdfrwt beam="2">  1       -3 0.39719800E+00 0.10598456E+04</pdfrwt>
<totfact> 0.92683550E-01</totfact>
</mgrwt>
</event>
<event>
 6    1  0.1773638E-005  0.5774438E+03  0.7818608E-02  0.9953340E-01
         -1   -1    0    0    0  501 -0.00000000000E+00  0.00000000000E+00  0.12752458392E+03  0.12752458392E+03  0.00000000000E+00 0.  1.
          1   -1    0    0  501    0  0.00000000000E+00 -0.00000000000E+00 -0.65368060902E+03  0.65368060902E+03  0.00000000000E+00 0. -1.
         23    2    1    2    0    0 -0.11623024224E+03 -0.18008022584E+03 -0.51751514069E+03  0.56669873189E+03  0.85948676149E+02 0.  0.
         13    1    3    3    0    0 -0.58827744168E+02 -0.76284196046E+02 -0.33860788319E+03  0.35204442988E+03  0.00000000000E+00 0. -1.
        -13    1    3    3    0    0 -0.57402498067E+02 -0.10379602979E+03 -0.17890725750E+03  0.21465430201E+03  0.00000000000E+00 0.  1.
         22    1    1    2    0    0  0.11623024224E+03  0.18008022584E+03 -0.86408844065E+01  0.21450646105E+03  0.00000000000E+00 0.  1.
<mgrwt>
<rscale>  0 0.57744384E+03</rscale>
<asrwt>0</asrwt>
<pdfrwt beam="1">  1        1 0.10056625E+00 0.57744384E+03</pdfrwt>
<pdfrwt beam="2">  1       -1 0.19619167E-01 0.57744384E+03</pdfrwt>
<totfact> 0.64377909E+02</totfact>
</mgrwt>
</event>
<event>
 6    1  0.1773638E-005  0.1720200E+04  0.7818608E-02  0.8749926E-01
         -1   -1    0    0    0  501 -0.00000000000E+00  0.00000000000E+00  0.35648328126E+03  0.35648328126E+03  0.00000000000E+00 0.  1.
          1   -1    0    0  501    0  0.00000000000E+00 -0.00000000000E+00 -0.20751950199E+04  0.20751950199E+04  0.00000000000E+00 0. -1.
         23    2    1    2    0    0 -0.53389493170E+03  0.43523598647E+03 -0.15845623311E+04  0.17299160725E+04  0.85426429726E+02 0.  0.
         13    1    3    3    0    0 -0.14492951269E+03  0.16593655180E+03 -0.53991436901E+03  0.58313551490E+03  0.00000000000E+00 0.  1.
        -13    1    3    3    0    0 -0.38896541901E+03  0.26929943468E+03 -0.10446479621E+04  0.11467805576E+04  0.00000000000E+00 0. -1.
         22    1    1    2    0    0  0.53389493170E+03 -0.43523598647E+03 -0.13414940759E+03  0.70176222866E+03  0.00000000000E+00 0.  1.
<mgrwt>
<rscale>  0 0.17202004E+04</rscale>
<asrwt>0</asrwt>
<pdfrwt beam="1">  1        1 0.31926077E+00 0.17202004E+04</pdfrwt>
<pdfrwt beam="2">  1       -1 0.54843582E-01 0.17202004E+04</pdfrwt>
<totfact> 0.84587923E+00</totfact>
</mgrwt>
</event>
<event>
 6    1  0.1773638E-005  0.6145969E+03  0.7818608E-02  0.9875576E-01
          1   -1    0    0  501    0  0.00000000000E+00  0.00000000000E+00  0.15124886727E+03  0.15124886727E+03  0.00000000000E+00 0. -1.
         -1   -1    0    0    0  501 -0.00000000000E+00 -0.00000000000E+00 -0.62435074491E+03  0.62435074491E+03  0.00000000000E+00 0.  1.
         23    2    1    2    0    0  0.16021508001E+03 -0.23541033882E+03 -0.36310383041E+03  0.47033502222E+03  0.91015064608E+02 0.  0.
         11    1    3    3    0    0  0.14252415343E+03 -0.14157620041E+03 -0.27381526823E+03  0.33960529434E+03  0.00000000000E+00 0. -1.
        -11    1    3    3    0    0  0.17690926587E+02 -0.93834138412E+02 -0.89288562178E+02  0.13072972788E+03  0.00000000000E+00 0.  1.
         22    1    1    2    0    0 -0.16021508001E+03  0.23541033882E+03 -0.10999804724E+03  0.30526458996E+03  0.00000000000E+00 0. -1.
<mgrwt>
<rscale>  0 0.61459692E+03</rscale>
<asrwt>0</asrwt>
<pdfrwt beam="1">  1        1 0.23269057E-01 0.61459692E+03</pdfrwt>
<pdfrwt beam="2">  1       -1 0.96053959E-01 0.61459692E+03</pdfrwt>
<totfact> 0.22801564E+02</totfact>
</mgrwt>
</event>
<event>
 6    1  0.1773638E-005  0.7343148E+03  0.7818608E-02  0.9660284E-01
          1   -1    0    0  501    0  0.00000000000E+00  0.00000000000E+00  0.26671641883E+03  0.26671641883E+03  0.00000000000E+00 0. -1.
         -1   -1    0    0    0  501 -0.00000000000E+00 -0.00000000000E+00 -0.50542275402E+03  0.50542275402E+03  0.00000000000E+00 0.  1.
         23    2    1    2    0    0 -0.52668707356E+02  0.30556122181E+03  0.73991918880E+02  0.33177358483E+03  0.91963332476E+02 0.  0.
         11    1    3    3    0    0 -0.76790265857E+02  0.20062353569E+03  0.61050941776E+02  0.22332435043E+03  0.00000000000E+00 0. -1.
        -11    1    3    3    0    0  0.24121558501E+02  0.10493768612E+03  0.12940977104E+02  0.10844923440E+03  0.00000000000E+00 0.  1.
         22    1    1    2    0    0  0.52668707356E+02 -0.30556122181E+03 -0.31269825408E+03  0.44036558802E+03  0.00000000000E+00 0.  1.
<mgrwt>
<rscale>  0 0.73431477E+03</rscale>
<asrwt>0</asrwt>
<pdfrwt beam="1">  1        1 0.41033296E-01 0.73431477E+03</pdfrwt>
<pdfrwt beam="2">  1       -1 0.77757346E-01 0.73431477E+03</pdfrwt>
<totfact> 0.17178971E+02</totfact>
</mgrwt>
</event>
<event>
 6    1  0.1773638E-005  0.1844797E+04  0.7818608E-02  0.8682833E-01
          1   -1    0    0  501    0  0.00000000000E+00  0.00000000000E+00  0.17216328158E+04  0.17216328158E+04  0.00000000000E+00 0. -1.
         -1   -1    0    0    0  501 -0.00000000000E+00 -0.00000000000E+00 -0.49419302373E+03  0.49419302373E+03  0.00000000000E+00 0.  1.
         23    2    1    2    0    0  0.37014545544E+03  0.80321643981E+03  0.92032727213E+03  0.12796194482E+04  0.90880893956E+02 0.  0.
         13    1    3    3    0    0  0.19709943615E+03  0.32560003811E+03  0.41440361032E+03  0.56266679731E+03  0.00000000000E+00 0.  1.
        -13    1    3    3    0    0  0.17304601929E+03  0.47761640170E+03  0.50592366182E+03  0.71695265084E+03  0.00000000000E+00 0. -1.
         22    1    1    2    0    0 -0.37014545544E+03 -0.80321643981E+03  0.30711251996E+03  0.93620639139E+03  0.00000000000E+00 0.  1.
<mgrwt>
<rscale>  0 0.18447969E+04</rscale>
<asrwt>0</asrwt>
<pdfrwt beam="1">  1        1 0.26486658E+00 0.18447969E+04</pdfrwt>
<pdfrwt beam="2">  1       -1 0.76029697E-01 0.18447969E+04</pdfrwt>
<totfact> 0.75231443E+00</totfact>
</mgrwt>
</event>
<event>
 6    1  0.1773638E-005  0.2139688E+04  0.7818608E-02  0.8543959E-01
         -2   -1    0    0    0  501 -0.00000000000E+00  0.00000000000E+00  0.34376285607E+03  0.34376285607E+03  0.00000000000E+00 0.  1.
          2   -1    0    0  501    0  0.00000000000E+00 -0.00000000000E+00 -0.33295226860E+04  0.33295226860E+04  0.00000000000E+00 0. -1.
         23    2    1    2    0    0 -0.18461265103E+03  0.46363613815E+03 -0.31164267472E+04  0.31574230189E+04  0.90355686931E+02 0.  0.
         11    1    3    3    0    0 -0.50453578307E+02  0.24056890758E+03 -0.16151317250E+04  0.16337286960E+04  0.00000000000E+00 0. -1.
        -11    1    3    3    0    0 -0.13415907273E+03  0.22306723057E+03 -0.15012950222E+04  0.15236943230E+04  0.00000000000E+00 0.  1.
         22    1    1    2    0    0  0.18461265103E+03 -0.46363613815E+03  0.13066691728E+03  0.51586252315E+03  0.00000000000E+00 0.  1.
<mgrwt>
<rscale>  0 0.21396880E+04</rscale>
<asrwt>0</asrwt>
<pdfrwt beam="1">  1        2 0.51223426E+00 0.21396880E+04</pdfrwt>
<pdfrwt beam="2">  1       -2 0.52886593E-01 0.21396880E+04</pdfrwt>
<totfact> 0.33068199E+00</totfact>
</mgrwt>
</event>
<event>
 6    1  0.1773638E-005  0.2077857E+04  0.7818608E-02  0.8571061E-01
          2   -1    0    0  501    0  0.00000000000E+00  0.00000000000E+00  0.13878342390E+04  0.13878342390E+04  0.00000000000E+00 0. -1.
         -2   -1    0    0    0  501 -0.00000000000E+00 -0.00000000000E+00 -0.77773909469E+03  0.77773909469E+03  0.00000000000E+00 0.  1.
         23    2    1    2    0    0  0.40973164699E+03  0.94543342595E+03  0.42669634439E+03  0.11189790927E+04  0.91214331201E+02 0.  0.
         11    1    3    3    0    0  0.23469049754E+03  0.62674231433E+03  0.24667349770E+03  0.71325547504E+03  0.00000000000E+00 0. -1.
        -11    1    3    3    0    0  0.17504114945E+03  0.31869111162E+03  0.18002284669E+03  0.40572361770E+03  0.00000000000E+00 0.  1.
         22    1    1    2    0    0 -0.40973164699E+03 -0.94543342595E+03  0.18339879996E+03  0.10465942410E+04  0.00000000000E+00 0. -1.
<mgrwt>
<rscale>  0 0.20778575E+04</rscale>
<asrwt>0</asrwt>
<pdfrwt beam="1">  1        2 0.21351296E+00 0.20778575E+04</pdfrwt>
<pdfrwt beam="2">  1       -2 0.11965217E+00 0.20778575E+04</pdfrwt>
<totfact> 0.72623508E+00</totfact>
</mgrwt>
</event>
<event>
 6    1  0.1773638E-005  0.5387935E+04  0.7818608E-02  0.7771300E-01
         -2   -1    0    0    0  501 -0.00000000000E+00  0.00000000000E+00  0.24977107013E+04  0.24977107013E+04  0.00000000000E+00 0.  1.
          2   -1    0    0  501    0  0.00000000000E+00 -0.00000000000E+00 -0.29056455195E+04  0.29056455195E+04  0.00000000000E+00 0. -1.
         23    2    1    2    0    0 -0.18745324799E+04  0.14918338714E+04  0.10298924065E+04  0.26092933284E+04  0.91065836667E+02 0.  0.
         11    1    3    3    0    0 -0.16599276627E+04  0.13553731322E+04  0.92924755447E+03  0.23357862039E+04  0.00000000000E+00 0. -1.
        -11    1    3    3    0    0 -0.21460481720E+03  0.13646073923E+03  0.10064485208E+03  0.27350712453E+03  0.00000000000E+00 0.  1.
         22    1    1    2    0    0  0.18745324799E+04 -0.14918338714E+04 -0.14378272248E+04  0.27940628924E+04  0.00000000000E+00 0. -1.
<mgrwt>
<rscale>  0 0.53879354E+04</rscale>
<asrwt>0</asrwt>
<pdfrwt beam="1">  1        2 0.44702238E+00 0.53879354E+04</pdfrwt>
<pdfrwt beam="2">  1       -2 0.38426319E+00 0.53879354E+04</pdfrwt>
<totfact> 0.13225757E-02</totfact>
</mgrwt>
</event>
<event>
 6    1  0.1773638E-005  0.2910794E+04  0.7818608E-02  0.8269673E-01
         -2   -1    0    0    0  501 -0.00000000000E+00  0.00000000000E+00  0.12643151644E+04  0.12643151644E+04  0.00000000000E+00 0.  1.
          2   -1    0    0  501    0  0.00000000000E+00 -0.00000000000E+00 -0.16753578811E+04  0.16753578811E+04  0.00000000000E+00 0. -1.
         23    2    1    2    0    0 -0.13412445192E+04 -0.24647136519E+03 -0.71519601927E+03  0.15424636032E+04  0.89462993655E+02 0.  0.
         11    1    3    3    0    0 -0.55313967754E+03 -0.65617692352E+02 -0.32119215487E+03  0.64298801293E+03  0.00000000000E+00 0.  1.
        -11    1    3    3    0    0 -0.78810484165E+03 -0.18085367283E+03 -0.39400386440E+03  0.89947559032E+03  0.00000000000E+00 0. -1.
         22    1    1    2    0    0  0.13412445192E+04  0.24647136519E+03  0.30415330248E+03  0.13972094423E+04  0.00000000000E+00 0.  1.
<mgrwt>
<rscale>  0 0.29107940E+04</rscale>
<asrwt>0</asrwt>
<pdfrwt beam="1">  1        2 0.25774737E+00 0.29107940E+04</pdfrwt>
<pdfrwt beam="2">  1       -2 0.19451003E+00 0.29107940E+04</pdfrwt>
<totfact> 0.12622324E+00</totfact>
</mgrwt>
</event>
<event>
 6    1  0.1773638E-005  0.4580029E+03  0.7818608E-02  0.1025362E+00
         -1   -1    0    0    0  501 -0.00000000000E+00  0.00000000000E+00  0.66261946297E+02  0.66261946297E+02  0.00000000000E+00 0.  1.
          1   -1    0    0  501    0  0.00000000000E+00 -0.00000000000E+00 -0.79142950777E+03  0.79142950777E+03  0.00000000000E+00 0. -1.
         23    2    1    2    0    0 -0.83826988042E+02 -0.11471612076E+03 -0.69200794293E+03  0.71179315871E+03  0.87107723085E+02 0.  0.
         13    1    3    3    0    0 -0.69515766613E+02 -0.31609014045E+02 -0.42429032089E+03  0.43110769881E+03  0.00000000000E+00 0.  1.
        -13    1    3    3    0    0 -0.14311221429E+02 -0.83107106717E+02 -0.26771762204E+03  0.28068545989E+03  0.00000000000E+00 0. -1.
         22    1    1    2    0    0  0.83826988042E+02  0.11471612076E+03 -0.33159618546E+02  0.14589829536E+03  0.00000000000E+00 0.  1.
<mgrwt>
<rscale>  0 0.45800288E+03</rscale>
<asrwt>0</asrwt>
<pdfrwt beam="1">  1        1 0.12175838E+00 0.45800288E+03</pdfrwt>
<pdfrwt beam="2">  1       -1 0.10194146E-01 0.45800288E+03</pdfrwt>
<totfact> 0.13861940E+03</totfact>
</mgrwt>
</event>
<event>
 6    1  0.1773638E-005  0.2000281E+04  0.7818608E-02  0.8606489E-01
          2   -1    0    0  501    0  0.00000000000E+00  0.00000000000E+00  0.10083948749E+04  0.10083948749E+04  0.00000000000E+00 0. -1.
         -2   -1    0    0    0  501 -0.00000000000E+00 -0.00000000000E+00 -0.99195393934E+03  0.99195393934E+03  0.00000000000E+00 0.  1.
         23    2    1    2    0    0 -0.93203794991E+03  0.33654405720E+03  0.12667645869E+03  0.10032989093E+04  0.92763859678E+02 0.  0.
         11    1    3    3    0    0 -0.52697875403E+03  0.15060335929E+03  0.42505285216E+02  0.54972236474E+03  0.00000000000E+00 0.  1.
        -11    1    3    3    0    0 -0.40505919588E+03  0.18594069792E+03  0.84171173473E+02  0.45357654453E+03  0.00000000000E+00 0. -1.
         22    1    1    2    0    0  0.93203794991E+03 -0.33654405720E+03 -0.11023552309E+03  0.99704990500E+03  0.00000000000E+00 0.  1.
<mgrwt>
<rscale>  0 0.20002812E+04</rscale>
<asrwt>0</asrwt>
<pdfrwt beam="1">  1        2 0.15513767E+00 0.20002812E+04</pdfrwt>
<pdfrwt beam="2">  1       -2 0.15260830E+00 0.20002812E+04</pdfrwt>
<totfact> 0.66136462E+00</totfact>
</mgrwt>
</event>
<event>
 6    1  0.1773638E-005  0.3055866E+04  0.7818608E-02  0.8227956E-01
         -2   -1    0    0    0  501 -0.00000000000E+00  0.00000000000E+00  0.17492068632E+04  0.17492068632E+04  0.00000000000E+00 0.  1.
          2   -1    0    0  501    0  0.00000000000E+00 -0.00000000000E+00 -0.13346501407E+04  0.13346501407E+04  0.00000000000E+00 0. -1.
         23    2    1    2    0    0 -0.16027647688E+03 -0.12712131287E+04 -0.62997176513E+03  0.14307656183E+04  0.92490335477E+02 0.  0.
         11    1    3    3    0    0 -0.95307422806E+02 -0.86167887622E+03 -0.37972329577E+03  0.94644797634E+03  0.00000000000E+00 0.  1.
        -11    1    3    3    0    0 -0.64969054070E+02 -0.40953425248E+03 -0.25024846935E+03  0.48431764200E+03  0.00000000000E+00 0. -1.
         22    1    1    2    0    0  0.16027647688E+03  0.12712131287E+04  0.10445284877E+04  0.16530913856E+04  0.00000000000E+00 0.  1.
<mgrwt>
<rscale>  0 0.30558660E+04</rscale>
<asrwt>0</asrwt>
<pdfrwt beam="1">  1        2 0.20533079E+00 0.30558660E+04</pdfrwt>
<pdfrwt beam="2">  1       -2 0.26910875E+00 0.30558660E+04</pdfrwt>
<totfact> 0.65996865E-01</totfact>
</mgrwt>
</event>
<event>
 6    1  0.1773638E-005  0.2651729E+04  0.7818608E-02  0.8350839E-01
         -2   -1    0    0    0  501 -0.00000000000E+00  0.00000000000E+00  0.16817566715E+04  0.16817566715E+04  0.00000000000E+00 0.  1.
          2   -1    0    0  501    0  0.00000000000E+00 -0.00000000000E+00 -0.10452862646E+04  0.10452862646E+04  0.00000000000E+00 0. -1.
         23    2    1    2    0    0  0.33967946984E+03 -0.69690203882E+03  0.14226272271E+04  0.16229156155E+04  0.94510707336E+02 0.  0.
         13    1    3    3    0    0  0.33205393042E+03 -0.62285511112E+03  0.13065955498E+04  0.14850589998E+04  0.00000000000E+00 0.  1.
        -13    1    3    3    0    0  0.76255394205E+01 -0.74046927697E+02  0.11603167736E+03  0.13785661575E+03  0.00000000000E+00 0. -1.
         22    1    1    2    0    0 -0.33967946984E+03  0.69690203882E+03 -0.78615682028E+03  0.11041273206E+04  0.00000000000E+00 0. -1.
<mgrwt>
<rscale>  0 0.26517294E+04</rscale>
<asrwt>0</asrwt>
<pdfrwt beam="1">  1        2 0.16081327E+00 0.26517294E+04</pdfrwt>
<pdfrwt beam="2">  1       -2 0.25873179E+00 0.26517294E+04</pdfrwt>
<totfact> 0.11790511E+00</totfact>
</mgrwt>
</event>
<event>
 6    1  0.1773638E-005  0.2969724E+04  0.7818608E-02  0.8252430E-01
         -2   -1    0    0    0  501 -0.00000000000E+00  0.00000000000E+00  0.74200486989E+03  0.74200486989E+03  0.00000000000E+00 0.  1.
          2   -1    0    0  501    0  0.00000000000E+00 -0.00000000000E+00 -0.29714285189E+04  0.29714285189E+04  0.00000000000E+00 0. -1.
         23    2    1    2    0    0 -0.25041335122E+03 -0.10403489624E+04  0.16891470022E+03  0.10872080277E+04  0.91958194573E+02 0.  0.
         11    1    3    3    0    0 -0.13227916207E+03 -0.72890133158E+03  0.10966627539E+03  0.74888024400E+03  0.00000000000E+00 0. -1.
        -11    1    3    3    0    0 -0.11813418915E+03 -0.31144763079E+03  0.59248424838E+02  0.33832778369E+03  0.00000000000E+00 0.  1.
         22    1    1    2    0    0  0.25041335122E+03  0.10403489624E+04 -0.23983383492E+04  0.26262253611E+04  0.00000000000E+00 0. -1.
<mgrwt>
<rscale>  0 0.29697235E+04</rscale>
<asrwt>0</asrwt>
<pdfrwt beam="1">  1        2 0.45714285E+00 0.29697235E+04</pdfrwt>
<pdfrwt beam="2">  1       -2 0.11415460E+00 0.29697235E+04</pdfrwt>
<totfact> 0.93421933E-01</totfact>
</mgrwt>
</event>
<event>
 6    1  0.1773638E-005  0.2840946E+04  0.7818608E-02  0.8290668E-01
         -2   -1    0    0    0  501 -0.00000000000E+00  0.00000000000E+00  0.19405309956E+04  0.19405309956E+04  0.00000000000E+00 0.  1.
          2   -1    0    0  501    0  0.00000000000E+00 -0.00000000000E+00 -0.10397893505E+04  0.10397893505E+04  0.00000000000E+00 0. -1.
         23    2    1    2    0    0 -0.33288485153E+03  0.18505548846E+03 -0.98328179160E+03  0.10581855516E+04  0.88632509884E+02 0.  0.
         13    1    3    3    0    0 -0.48984690001E+02  0.26436092903E+02 -0.24842986420E+03  0.25458940333E+03  0.00000000000E+00 0. -1.
        -13    1    3    3    0    0 -0.28390016153E+03  0.15861939556E+03 -0.73485192740E+03  0.80359614830E+03  0.00000000000E+00 0.  1.
         22    1    1    2    0    0  0.33288485153E+03 -0.18505548846E+03  0.18840234367E+04  0.19221347945E+04  0.00000000000E+00 0.  1.
<mgrwt>
<rscale>  0 0.28409459E+04</rscale>
<asrwt>0</asrwt>
<pdfrwt beam="1">  1        2 0.15996759E+00 0.28409459E+04</pdfrwt>
<pdfrwt beam="2">  1       -2 0.29854323E+00 0.28409459E+04</pdfrwt>
<totfact> 0.66844899E-01</totfact>
</mgrwt>
</event>
<event>
 6    1  0.1773638E-005  0.1703956E+04  0.7818608E-02  0.8759111E-01
         -2   -1    0    0    0  501 -0.00000000000E+00  0.00000000000E+00  0.46796779360E+03  0.46796779360E+03  0.00000000000E+00 0.  1.
          2   -1    0    0  501    0  0.00000000000E+00 -0.00000000000E+00 -0.15511031839E+04  0.15511031839E+04  0.00000000000E+00 0. -1.
         23    2    1    2    0    0  0.72706278549E+03 -0.31079867598E+03 -0.91056564366E+03  0.12097524812E+04  0.95682617304E+02 0.  0.
         13    1    3    3    0    0  0.82814310943E+02 -0.48939440340E+02 -0.70933230571E+02  0.11951904500E+03  0.00000000000E+00 0.  1.
        -13    1    3    3    0    0  0.64424847455E+03 -0.26185923564E+03 -0.83963241309E+03  0.10902334362E+04  0.00000000000E+00 0. -1.
         22    1    1    2    0    0 -0.72706278549E+03  0.31079867598E+03 -0.17256974664E+03  0.80931849632E+03  0.00000000000E+00 0. -1.
<mgrwt>
<rscale>  0 0.17039558E+04</rscale>
<asrwt>0</asrwt>
<pdfrwt beam="1">  1        2 0.23863125E+00 0.17039558E+04</pdfrwt>
<pdfrwt beam="2">  1       -2 0.71995047E-01 0.17039558E+04</pdfrwt>
<totfact> 0.19748974E+01</totfact>
</mgrwt>
</event>
<event>
 6    1  0.1773638E-005  0.2036215E+04  0.7818608E-02  0.8589873E-01
         -2   -1    0    0    0  501 -0.00000000000E+00  0.00000000000E+00  0.89160926063E+03  0.89160926063E+03  0.00000000000E+00 0.  1.
          2   -1    0    0  501    0  0.00000000000E+00 -0.00000000000E+00 -0.11625534107E+04  0.11625534107E+04  0.00000000000E+00 0. -1.
         23    2    1    2    0    0 -0.39041678580E+03 -0.84885344687E+03  0.26706575063E+03  0.97600122973E+03  0.90977164051E+02 0.  0.
         13    1    3    3    0    0 -0.31699673982E+03 -0.70322886879E+03  0.18416299229E+03  0.79305345512E+03  0.00000000000E+00 0. -1.
        -13    1    3    3    0    0 -0.73420045979E+02 -0.14562457808E+03  0.82902758345E+02  0.18294777461E+03  0.00000000000E+00 0.  1.
         22    1    1    2    0    0  0.39041678580E+03  0.84885344687E+03 -0.53800990070E+03  0.10781614416E+04  0.00000000000E+00 0. -1.
<mgrwt>
<rscale>  0 0.20362155E+04</rscale>
<asrwt>0</asrwt>
<pdfrwt beam="1">  1        2 0.17885437E+00 0.20362155E+04</pdfrwt>
<pdfrwt beam="2">  1       -2 0.13717065E+00 0.20362155E+04</pdfrwt>
<totfact> 0.69989171E+00</totfact>
</mgrwt>
</event>
<event>
 6    1  0.1773638E-005  0.3913029E+04  0.7818608E-02  0.8022325E-01
         -2   -1    0    0    0  501 -0.00000000000E+00  0.00000000000E+00  0.25446584232E+04  0.25446584232E+04  0.00000000000E+00 0. -1.
          2   -1    0    0  501    0  0.00000000000E+00 -0.00000000000E+00 -0.15043078794E+04  0.15043078794E+04  0.00000000000E+00 0.  1.
         23    2    1    2    0    0 -0.17259224134E+04 -0.66004575179E+03 -0.14186865206E+03  0.18553139148E+04  0.87146062754E+02 0.  0.
         11    1    3    3    0    0 -0.41369209210E+03 -0.16099302068E+03 -0.71427472633E+02  0.44962404698E+03  0.00000000000E+00 0.  1.
        -11    1    3    3    0    0 -0.13122303213E+04 -0.49905273110E+03 -0.70441179430E+02  0.14056898678E+04  0.00000000000E+00 0. -1.
         22    1    1    2    0    0  0.17259224134E+04  0.66004575179E+03  0.11822191959E+04  0.21936523879E+04  0.00000000000E+00 0.  1.
<mgrwt>
<rscale>  0 0.39130294E+04</rscale>
<asrwt>0</asrwt>
<pdfrwt beam="1">  1        2 0.23143198E+00 0.39130294E+04</pdfrwt>
<pdfrwt beam="2">  1       -2 0.39148591E+00 0.39130294E+04</pdfrwt>
<totfact> 0.84542158E-02</totfact>
</mgrwt>
</event>
<event>
 6    1  0.1773638E-005  0.2926753E+04  0.7818608E-02  0.8264962E-01
         -2   -1    0    0    0  501 -0.00000000000E+00  0.00000000000E+00  0.75128220615E+03  0.75128220615E+03  0.00000000000E+00 0.  1.
          2   -1    0    0  501    0  0.00000000000E+00 -0.00000000000E+00 -0.28504221867E+04  0.28504221867E+04  0.00000000000E+00 0. -1.
         23    2    1    2    0    0 -0.12936579269E+04 -0.61598287232E+03 -0.14079974336E+04  0.20108983861E+04  0.90938525604E+02 0.  0.
         13    1    3    3    0    0 -0.84265455223E+03 -0.44852076614E+03 -0.94227614360E+03  0.13413134991E+04  0.00000000000E+00 0.  1.
        -13    1    3    3    0    0 -0.45100337468E+03 -0.16746210618E+03 -0.46572128999E+03  0.66958488702E+03  0.00000000000E+00 0. -1.
         22    1    1    2    0    0  0.12936579269E+04  0.61598287232E+03 -0.69114254698E+03  0.15908060067E+04  0.00000000000E+00 0.  1.
<mgrwt>
<rscale>  0 0.29267535E+04</rscale>
<asrwt>0</asrwt>
<pdfrwt beam="1">  1        2 0.43852650E+00 0.29267535E+04</pdfrwt>
<pdfrwt beam="2">  1       -2 0.11558188E+00 0.29267535E+04</pdfrwt>
<totfact> 0.10802572E+00</totfact>
</mgrwt>
</event>
<event>
 6    1  0.1773638E-005  0.4920879E+04  0.7818608E-02  0.7840830E-01
          1   -1    0    0  501    0  0.00000000000E+00  0.00000000000E+00  0.40543578713E+04  0.40543578713E+04  0.00000000000E+00 0. -1.
         -1   -1    0    0    0  501 -0.00000000000E+00 -0.00000000000E+00 -0.14931493043E+04  0.14931493043E+04  0.00000000000E+00 0.  1.
         23    2    1    2    0    0  0.23375408345E+03 -0.46093021968E+03  0.39919356533E+04  0.40262979084E+04  0.91798411709E+02 0.  0.
         11    1    3    3    0    0  0.18734926233E+03 -0.42816170642E+03  0.36214536659E+04  0.36514858410E+04  0.00000000000E+00 0. -1.
        -11    1    3    3    0    0  0.46404821127E+02 -0.32768513261E+02  0.37048198742E+03  0.37481206743E+03  0.00000000000E+00 0.  1.
         22    1    1    2    0    0 -0.23375408345E+03  0.46093021968E+03 -0.14307270864E+04  0.15212092672E+04  0.00000000000E+00 0.  1.
<mgrwt>
<rscale>  0 0.49208786E+04</rscale>
<asrwt>0</asrwt>
<pdfrwt beam="1">  1        1 0.62374736E+00 0.49208786E+04</pdfrwt>
<pdfrwt beam="2">  1       -1 0.22971528E+00 0.49208786E+04</pdfrwt>
<totfact> 0.58915684E-03</totfact>
</mgrwt>
</event>
<event>
 6    1  0.1773638E-005  0.7754032E+03  0.7818608E-02  0.9596319E-01
         -3   -1    0    0    0  501 -0.00000000000E+00  0.00000000000E+00  0.20053603187E+03  0.20053603187E+03  0.00000000000E+00 0. -1.
          3   -1    0    0  501    0  0.00000000000E+00 -0.00000000000E+00 -0.74955370766E+03  0.74955370766E+03  0.00000000000E+00 0.  1.
         23    2    1    2    0    0 -0.17380180870E+03  0.12802044797E+02 -0.69551574047E+03  0.72242190250E+03  0.88206002650E+02 0.  0.
         11    1    3    3    0    0 -0.15832901454E+03 -0.16463636687E+02 -0.52028324521E+03  0.54408986704E+03  0.00000000000E+00 0. -1.
        -11    1    3    3    0    0 -0.15472794168E+02  0.29265681484E+02 -0.17523249527E+03  0.17833203545E+03  0.00000000000E+00 0.  1.
         22    1    1    2    0    0  0.17380180870E+03 -0.12802044797E+02  0.14649806468E+03  0.22766783702E+03  0.00000000000E+00 0. -1.
<mgrwt>
<rscale>  0 0.77540319E+03</rscale>
<asrwt>0</asrwt>
<pdfrwt beam="1">  1        3 0.11531595E+00 0.77540319E+03</pdfrwt>
<pdfrwt beam="2">  1       -3 0.30851697E-01 0.77540319E+03</pdfrwt>
<totfact> 0.16915988E+01</totfact>
</mgrwt>
</event>
<event>
 6    1  0.1773638E-005  0.2862266E+04  0.7818608E-02  0.8284194E-01
         -2   -1    0    0    0  501 -0.00000000000E+00  0.00000000000E+00  0.72812210357E+03  0.72812210357E+03  0.00000000000E+00 0.  1.
          2   -1    0    0  501    0  0.00000000000E+00 -0.00000000000E+00 -0.28129094854E+04  0.28129094854E+04  0.00000000000E+00 0. -1.
         23    2    1    2    0    0 -0.12603484655E+03 -0.14151349899E+04 -0.12410291972E+04  0.18886334238E+04  0.91054485217E+02 0.  0.
         11    1    3    3    0    0 -0.79521174865E+02 -0.90269574632E+03 -0.84892359549E+03  0.12417143386E+04  0.00000000000E+00 0. -1.
        -11    1    3    3    0    0 -0.46513671687E+02 -0.51243924353E+03 -0.39210560172E+03  0.64691908526E+03  0.00000000000E+00 0.  1.
         22    1    1    2    0    0  0.12603484655E+03  0.14151349899E+04 -0.84375818466E+03  0.16523981652E+04  0.00000000000E+00 0.  1.
<mgrwt>
<rscale>  0 0.28622659E+04</rscale>
<asrwt>0</asrwt>
<pdfrwt beam="1">  1        2 0.43275531E+00 0.28622659E+04</pdfrwt>
<pdfrwt beam="2">  1       -2 0.11201878E+00 0.28622659E+04</pdfrwt>
<totfact> 0.12355073E+00</totfact>
</mgrwt>
</event>
<event>
 6    1  0.1773638E-005  0.1621381E+04  0.7818608E-02  0.8807520E-01
          1   -1    0    0  501    0  0.00000000000E+00  0.00000000000E+00  0.29635041209E+04  0.29635041209E+04  0.00000000000E+00 0. -1.
         -1   -1    0    0    0  501 -0.00000000000E+00 -0.00000000000E+00 -0.22177087941E+03  0.22177087941E+03  0.00000000000E+00 0.  1.
         23    2    1    2    0    0  0.78696256619E+03 -0.11419783247E+03  0.10928913446E+04  0.13546928999E+04  0.91815773882E+02 0.  0.
         13    1    3    3    0    0  0.54787350493E+03 -0.11438566922E+03  0.80540210756E+03  0.98077623013E+03  0.00000000000E+00 0. -1.
        -13    1    3    3    0    0  0.23908906126E+03  0.18783675186E+00  0.28748923708E+03  0.37391666977E+03  0.00000000000E+00 0.  1.
         22    1    1    2    0    0 -0.78696256619E+03  0.11419783247E+03  0.16488418969E+04  0.18305821005E+04  0.00000000000E+00 0.  1.
<mgrwt>
<rscale>  0 0.16213808E+04</rscale>
<asrwt>0</asrwt>
<pdfrwt beam="1">  1        1 0.45592368E+00 0.16213808E+04</pdfrwt>
<pdfrwt beam="2">  1       -1 0.34118599E-01 0.16213808E+04</pdfrwt>
<totfact> 0.49666729E+00</totfact>
</mgrwt>
</event>
<event>
 6    1  0.1773638E-005  0.8514900E+03  0.7818608E-02  0.9488339E-01
          3   -1    0    0  501    0  0.00000000000E+00  0.00000000000E+00  0.64957614793E+03  0.64957614793E+03  0.00000000000E+00 0. -1.
         -3   -1    0    0    0  501 -0.00000000000E+00 -0.00000000000E+00 -0.27904168002E+03  0.27904168002E+03  0.00000000000E+00 0.  1.
         23    2    1    2    0    0  0.90582888556E+02  0.19647631226E+03  0.58150573958E+03  0.62643066996E+03  0.86361207295E+02 0.  0.
         13    1    3    3    0    0  0.41809956909E+02  0.53460851086E+02  0.93283641751E+02  0.11536018773E+03  0.00000000000E+00 0.  1.
        -13    1    3    3    0    0  0.48772931648E+02  0.14301546117E+03  0.48822209783E+03  0.51107048223E+03  0.00000000000E+00 0. -1.
         22    1    1    2    0    0 -0.90582888556E+02 -0.19647631226E+03 -0.21097127167E+03  0.30218715798E+03  0.00000000000E+00 0.  1.
<mgrwt>
<rscale>  0 0.85149003E+03</rscale>
<asrwt>0</asrwt>
<pdfrwt beam="1">  1        3 0.99934791E-01 0.85149003E+03</pdfrwt>
<pdfrwt beam="2">  1       -3 0.42929489E-01 0.85149003E+03</pdfrwt>
<totfact> 0.12455611E+01</totfact>
</mgrwt>
</event>
<event>
 6    1  0.1773638E-005  0.2762747E+04  0.7818608E-02  0.8314928E-01
         -2   -1    0    0    0  501 -0.00000000000E+00  0.00000000000E+00  0.12999778754E+04  0.12999778754E+04  0.00000000000E+00 0.  1.
          2   -1    0    0  501    0  0.00000000000E+00 -0.00000000000E+00 -0.14678657235E+04  0.14678657235E+04  0.00000000000E+00 0. -1.
         23    2    1    2    0    0 -0.11351717210E+04 -0.61205548627E+03  0.40754005601E+03  0.13556311406E+04  0.91761308859E+02 0.  0.
         13    1    3    3    0    0 -0.33808126137E+03 -0.17418979209E+03  0.16383422206E+03  0.41410466705E+03  0.00000000000E+00 0.  1.
        -13    1    3    3    0    0 -0.79709045960E+03 -0.43786569418E+03  0.24370583395E+03  0.94152647357E+03  0.00000000000E+00 0. -1.
         22    1    1    2    0    0  0.11351717210E+04  0.61205548627E+03 -0.57542790412E+03  0.14122124582E+04  0.00000000000E+00 0. -1.
<mgrwt>
<rscale>  0 0.27627472E+04</rscale>
<asrwt>0</asrwt>
<pdfrwt beam="1">  1        2 0.22582550E+00 0.27627472E+04</pdfrwt>
<pdfrwt beam="2">  1       -2 0.19999660E+00 0.27627472E+04</pdfrwt>
<totfact> 0.15368427E+00</totfact>
</mgrwt>
</event>
<event>
 6    1  0.1773638E-005  0.1061587E+04  0.7818608E-02  0.9243462E-01
          2   -1    0    0  501    0  0.00000000000E+00  0.00000000000E+00  0.75184428633E+03  0.75184428633E+03  0.00000000000E+00 0. -1.
         -2   -1    0    0    0  501 -0.00000000000E+00 -0.00000000000E+00 -0.37473429970E+03  0.37473429970E+03  0.00000000000E+00 0.  1.
         23    2    1    2    0    0 -0.36557283949E+03  0.22634124905E+03 -0.13285658854E+03  0.45954052881E+03  0.93020226309E+02 0.  0.
         13    1    3    3    0    0 -0.33651066138E+03  0.22480451713E+03 -0.10246808380E+03  0.41746401562E+03  0.00000000000E+00 0. -1.
        -13    1    3    3    0    0 -0.29062178119E+02  0.15367319237E+01 -0.30388504736E+02  0.42076513188E+02  0.00000000000E+00 0.  1.
         22    1    1    2    0    0  0.36557283949E+03 -0.22634124905E+03  0.50996657517E+03  0.66703805723E+03  0.00000000000E+00 0. -1.
<mgrwt>
<rscale>  0 0.10615872E+04</rscale>
<asrwt>0</asrwt>
<pdfrwt beam="1">  1        2 0.11566835E+00 0.10615872E+04</pdfrwt>
<pdfrwt beam="2">  1       -2 0.57651431E-01 0.10615872E+04</pdfrwt>
<totfact> 0.10483498E+02</totfact>
</mgrwt>
</event>
<event>
 6    1  0.1773638E-005  0.1443962E+04  0.7818608E-02  0.8922597E-01
          2   -1    0    0  501    0  0.00000000000E+00  0.00000000000E+00  0.17866490953E+04  0.17866490953E+04  0.00000000000E+00 0. -1.
         -2   -1    0    0    0  501 -0.00000000000E+00 -0.00000000000E+00 -0.29175109719E+03  0.29175109719E+03  0.00000000000E+00 0.  1.
         23    2    1    2    0    0 -0.12625513723E+03 -0.69885041913E+03  0.91247675916E+03  0.11599521713E+04  0.92428003248E+02 0.  0.
         11    1    3    3    0    0 -0.10590434916E+03 -0.41078599373E+03  0.48876025929E+03  0.64718425110E+03  0.00000000000E+00 0.  1.
        -11    1    3    3    0    0 -0.20350788064E+02 -0.28806442540E+03  0.42371649987E+03  0.51276792023E+03  0.00000000000E+00 0. -1.
         22    1    1    2    0    0  0.12625513723E+03  0.69885041913E+03  0.58242123897E+03  0.91844802117E+03  0.00000000000E+00 0. -1.
<mgrwt>
<rscale>  0 0.14439624E+04</rscale>
<asrwt>0</asrwt>
<pdfrwt beam="1">  1        2 0.27486909E+00 0.14439624E+04</pdfrwt>
<pdfrwt beam="2">  1       -2 0.44884785E-01 0.14439624E+04</pdfrwt>
<totfact> 0.40086013E+01</totfact>
</mgrwt>
</event>
<event>
 6    1  0.1773638E-005  0.2090637E+04  0.7818608E-02  0.8565379E-01
          2   -1    0    0  501    0  0.00000000000E+00  0.00000000000E+00  0.24786692589E+04  0.24786692589E+04  0.00000000000E+00 0. -1.
         -2   -1    0    0    0  501 -0.00000000000E+00 -0.00000000000E+00 -0.44083767534E+03  0.44083767534E+03  0.00000000000E+00 0.  1.
         23    2    1    2    0    0 -0.23447759071E+03  0.85193187255E+03  0.24552849505E+03  0.92122817063E+03  0.87232129829E+02 0.  0.
         13    1    3    3    0    0 -0.21331973757E+03  0.69504226258E+03  0.17435815094E+03  0.74765621913E+03  0.00000000000E+00 0. -1.
        -13    1    3    3    0    0 -0.21157853136E+02  0.15688960997E+03  0.71170344118E+02  0.17357195150E+03  0.00000000000E+00 0.  1.
         22    1    1    2    0    0  0.23447759071E+03 -0.85193187255E+03  0.17923030885E+04  0.19982787636E+04  0.00000000000E+00 0. -1.
<mgrwt>
<rscale>  0 0.20906370E+04</rscale>
<asrwt>0</asrwt>
<pdfrwt beam="1">  1        2 0.38133373E+00 0.20906370E+04</pdfrwt>
<pdfrwt beam="2">  1       -2 0.67821182E-01 0.20906370E+04</pdfrwt>
<totfact> 0.65802053E+00</totfact>
</mgrwt>
</event>
<event>
 6    1  0.1773638E-005  0.2521630E+04  0.7818608E-02  0.8395320E-01
          1   -1    0    0  501    0  0.00000000000E+00  0.00000000000E+00  0.19657778298E+04  0.19657778298E+04  0.00000000000E+00 0. -1.
         -1   -1    0    0    0  501 -0.00000000000E+00 -0.00000000000E+00 -0.80866423067E+03  0.80866423067E+03  0.00000000000E+00 0.  1.
         23    2    1    2    0    0 -0.85964671957E+03 -0.57919049770E+03 -0.20738580084E+03  0.10608748083E+04  0.89400075347E+02 0.  0.
         13    1    3    3    0    0 -0.57199955282E+03 -0.41654709726E+03 -0.17450381543E+03  0.72879802021E+03  0.00000000000E+00 0.  1.
        -13    1    3    3    0    0 -0.28764716675E+03 -0.16264340044E+03 -0.32881985409E+02  0.33207678812E+03  0.00000000000E+00 0. -1.
         22    1    1    2    0    0  0.85964671957E+03  0.57919049770E+03  0.13644994000E+04  0.17135672521E+04  0.00000000000E+00 0. -1.
<mgrwt>
<rscale>  0 0.25216298E+04</rscale>
<asrwt>0</asrwt>
<pdfrwt beam="1">  1        1 0.30242736E+00 0.25216298E+04</pdfrwt>
<pdfrwt beam="2">  1       -1 0.12440988E+00 0.25216298E+04</pdfrwt>
<totfact> 0.15783131E+00</totfact>
</mgrwt>
</event>
<event>
 6    1  0.1773638E-005  0.5944448E+04  0.7818608E-02  0.7697328E-01
          2   -1    0    0  501    0  0.00000000000E+00  0.00000000000E+00  0.32454044493E+04  0.32454044493E+04  0.00000000000E+00 0.  1.
         -2   -1    0    0    0  501 -0.00000000000E+00 -0.00000000000E+00 -0.27220381529E+04  0.27220381529E+04  0.00000000000E+00 0. -1.
         23    2    1    2    0    0 -0.15252640505E+04  0.22034357631E+04  0.15505595283E+04  0.30974799680E+04  0.92669929205E+02 0.  0.
         13    1    3    3    0    0 -0.11699583424E+04  0.16924287103E+04  0.11447597313E+04  0.23544834476E+04  0.00000000000E+00 0. -1.
        -13    1    3    3    0    0 -0.35530570816E+03  0.51100705277E+03  0.40579979696E+03  0.74299652048E+03  0.00000000000E+00 0.  1.
         22    1    1    2    0    0  0.15252640505E+04 -0.22034357631E+04 -0.10271932319E+04  0.28699626342E+04  0.00000000000E+00 0. -1.
<mgrwt>
<rscale>  0 0.59444477E+04</rscale>
<asrwt>0</asrwt>
<pdfrwt beam="1">  1        2 0.49929299E+00 0.59444477E+04</pdfrwt>
<pdfrwt beam="2">  1       -2 0.41877510E+00 0.59444477E+04</pdfrwt>
<totfact> 0.45771166E-03</totfact>
</mgrwt>
</event>
<event>
 6    1  0.1773638E-005  0.6831783E+03  0.7818608E-02  0.9746440E-01
          1   -1    0    0  501    0  0.00000000000E+00  0.00000000000E+00  0.32125701799E+03  0.32125701799E+03  0.00000000000E+00 0. -1.
         -1   -1    0    0    0  501 -0.00000000000E+00 -0.00000000000E+00 -0.36320810812E+03  0.36320810812E+03  0.00000000000E+00 0.  1.
         23    2    1    2    0    0 -0.30700201504E+03 -0.53735072222E+02  0.10347784292E+03  0.34053596220E+03  0.90107615352E+02 0.  0.
         11    1    3    3    0    0 -0.19421394786E+03 -0.76517188904E+02  0.56545310692E+02  0.21626675635E+03  0.00000000000E+00 0. -1.
        -11    1    3    3    0    0 -0.11278806718E+03  0.22782116682E+02  0.46932532232E+02  0.12426920584E+03  0.00000000000E+00 0.  1.
         22    1    1    2    0    0  0.30700201504E+03  0.53735072222E+02 -0.14542893305E+03  0.34392916392E+03  0.00000000000E+00 0.  1.
<mgrwt>
<rscale>  0 0.68317832E+03</rscale>
<asrwt>0</asrwt>
<pdfrwt beam="1">  1        1 0.49424157E-01 0.68317832E+03</pdfrwt>
<pdfrwt beam="2">  1       -1 0.55878170E-01 0.68317832E+03</pdfrwt>
<totfact> 0.26336408E+02</totfact>
</mgrwt>
</event>
<event>
 6    1  0.1773638E-005  0.3581498E+04  0.7818608E-02  0.8094743E-01
         -2   -1    0    0    0  501 -0.00000000000E+00  0.00000000000E+00  0.97205349906E+03  0.97205349906E+03  0.00000000000E+00 0.  1.
          2   -1    0    0  501    0  0.00000000000E+00 -0.00000000000E+00 -0.32989760057E+04  0.32989760057E+04  0.00000000000E+00 0. -1.
         23    2    1    2    0    0  0.73784463191E+02  0.94911456665E+03  0.64268077114E+03  0.11525673461E+04  0.95447923309E+02 0.  0.
         11    1    3    3    0    0  0.29780840030E+02  0.39064138725E+03  0.20846365392E+03  0.44378450500E+03  0.00000000000E+00 0. -1.
        -11    1    3    3    0    0  0.44003623161E+02  0.55847317940E+03  0.43421711722E+03  0.70878284110E+03  0.00000000000E+00 0.  1.
         22    1    1    2    0    0 -0.73784463191E+02 -0.94911456665E+03 -0.29696032778E+04  0.31184621587E+04  0.00000000000E+00 0. -1.
<mgrwt>
<rscale>  0 0.35814975E+04</rscale>
<asrwt>0</asrwt>
<pdfrwt beam="1">  1        2 0.50753476E+00 0.35814975E+04</pdfrwt>
<pdfrwt beam="2">  1       -2 0.14954669E+00 0.35814975E+04</pdfrwt>
<totfact> 0.27469964E-01</totfact>
</mgrwt>
</event>
<event>
 6    1  0.1773638E-005  0.4511548E+03  0.7818608E-02  0.1027378E+00
          1   -1    0    0  501    0  0.00000000000E+00  0.00000000000E+00  0.39359731285E+02  0.39359731285E+02  0.00000000000E+00 0. -1.
         -1   -1    0    0    0  501 -0.00000000000E+00 -0.00000000000E+00 -0.12928231008E+04  0.12928231008E+04  0.00000000000E+00 0.  1.
         23    2    1    2    0    0  0.95100758134E+02  0.15921133425E+03 -0.98027189780E+03  0.10019920034E+04  0.93072971645E+02 0.  0.
         13    1    3    3    0    0  0.10954499865E+03  0.12528689545E+03 -0.86831520327E+03  0.88412001738E+03  0.00000000000E+00 0. -1.
        -13    1    3    3    0    0 -0.14444240511E+02  0.33924438793E+02 -0.11195669453E+03  0.11787198599E+03  0.00000000000E+00 0.  1.
         22    1    1    2    0    0 -0.95100758134E+02 -0.15921133425E+03 -0.27319147172E+03  0.33019082872E+03  0.00000000000E+00 0.  1.
<mgrwt>
<rscale>  0 0.45115483E+03</rscale>
<asrwt>0</asrwt>
<pdfrwt beam="1">  1        1 0.60553439E-02 0.45115483E+03</pdfrwt>
<pdfrwt beam="2">  1       -1 0.19889584E+00 0.45115483E+03</pdfrwt>
<totfact> 0.21465292E+02</totfact>
</mgrwt>
</event>
<event>
 6    1  0.1773638E-005  0.3880038E+04  0.7818608E-02  0.8029194E-01
          2   -1    0    0  501    0  0.00000000000E+00  0.00000000000E+00  0.67953156686E+03  0.67953156686E+03  0.00000000000E+00 0. -1.
         -2   -1    0    0    0  501 -0.00000000000E+00 -0.00000000000E+00 -0.55386297647E+04  0.55386297647E+04  0.00000000000E+00 0.  1.
         23    2    1    2    0    0  0.15756684009E+04 -0.56897849465E+03 -0.86643341189E+03  0.18882837894E+04  0.91876957712E+02 0.  0.
         11    1    3    3    0    0  0.75368499093E+03 -0.31898364182E+03 -0.40804837220E+03  0.91449171859E+03  0.00000000000E+00 0. -1.
        -11    1    3    3    0    0  0.82198340992E+03 -0.24999485283E+03 -0.45838503968E+03  0.97379207084E+03  0.00000000000E+00 0.  1.
         22    1    1    2    0    0 -0.15756684009E+04  0.56897849465E+03 -0.39926647859E+04  0.43298775421E+04  0.00000000000E+00 0. -1.
<mgrwt>
<rscale>  0 0.38800380E+04</rscale>
<asrwt>0</asrwt>
<pdfrwt beam="1">  1        2 0.10454332E+00 0.38800380E+04</pdfrwt>
<pdfrwt beam="2">  1       -2 0.85209688E+00 0.38800380E+04</pdfrwt>
<totfact> 0.10626746E-03</totfact>
</mgrwt>
</event>
<event>
 6    1  0.1773638E-005  0.2171596E+04  0.7818608E-02  0.8530344E-01
         -2   -1    0    0    0  501 -0.00000000000E+00  0.00000000000E+00  0.74390287009E+03  0.74390287009E+03  0.00000000000E+00 0. -1.
          2   -1    0    0  501    0  0.00000000000E+00 -0.00000000000E+00 -0.15848264984E+04  0.15848264984E+04  0.00000000000E+00 0.  1.
         23    2    1    2    0    0 -0.77508428791E+03  0.68171548068E+03 -0.77588608557E+03  0.12944559366E+04  0.90140468577E+02 0.  0.
         11    1    3    3    0    0 -0.73094097786E+03  0.64260299301E+03 -0.70246050077E+03  0.12002766660E+04  0.00000000000E+00 0. -1.
        -11    1    3    3    0    0 -0.44143310045E+02  0.39112487676E+02 -0.73425584800E+02  0.94179270634E+02  0.00000000000E+00 0.  1.
         22    1    1    2    0    0  0.77508428791E+03 -0.68171548068E+03 -0.65037542754E+02  0.10342734319E+04  0.00000000000E+00 0.  1.
<mgrwt>
<rscale>  0 0.21715957E+04</rscale>
<asrwt>0</asrwt>
<pdfrwt beam="1">  1        2 0.24381946E+00 0.21715957E+04</pdfrwt>
<pdfrwt beam="2">  1       -2 0.11444660E+00 0.21715957E+04</pdfrwt>
<totfact> 0.62172320E+00</totfact>
</mgrwt>
</event>
<event>
 6    1  0.1773638E-005  0.2528079E+04  0.7818608E-02  0.8393050E-01
         -1   -1    0    0    0  501 -0.00000000000E+00  0.00000000000E+00  0.12312339642E+04  0.12312339642E+04  0.00000000000E+00 0.  1.
          1   -1    0    0  501    0  0.00000000000E+00 -0.00000000000E+00 -0.12977195093E+04  0.12977195093E+04  0.00000000000E+00 0. -1.
         23    2    1    2    0    0 -0.68508202298E+03  0.10450694180E+04 -0.21248737183E+03  0.12708501391E+04  0.91660929687E+02 0.  0.
         11    1    3    3    0    0 -0.22539938216E+03  0.27019137538E+03 -0.51531352526E+02  0.35561740832E+03  0.00000000000E+00 0.  1.
        -11    1    3    3    0    0 -0.45968264082E+03  0.77487804265E+03 -0.16095601930E+03  0.91523273073E+03  0.00000000000E+00 0. -1.
         22    1    1    2    0    0  0.68508202298E+03 -0.10450694180E+04  0.14600182676E+03  0.12581033344E+04  0.00000000000E+00 0. -1.
<mgrwt>
<rscale>  0 0.25280794E+04</rscale>
<asrwt>0</asrwt>
<pdfrwt beam="1">  1        1 0.19964915E+00 0.25280794E+04</pdfrwt>
<pdfrwt beam="2">  1       -1 0.18942061E+00 0.25280794E+04</pdfrwt>
<totfact> 0.14353402E+00</totfact>
</mgrwt>
</event>
<event>
 6    1  0.1773638E-005  0.1098991E+04  0.7818608E-02  0.9206175E-01
         -1   -1    0    0    0  501 -0.00000000000E+00  0.00000000000E+00  0.56687348435E+03  0.56687348435E+03  0.00000000000E+00 0.  1.
          1   -1    0    0  501    0  0.00000000000E+00 -0.00000000000E+00 -0.53265063400E+03  0.53265063400E+03  0.00000000000E+00 0. -1.
         23    2    1    2    0    0  0.38687657054E+03 -0.18186651376E+03 -0.32228906051E+03  0.54288271471E+03  0.90013853069E+02 0.  0.
         11    1    3    3    0    0  0.21022452648E+03 -0.10336632506E+03 -0.12048172752E+03  0.26342891899E+03  0.00000000000E+00 0. -1.
        -11    1    3    3    0    0  0.17665204406E+03 -0.78500188701E+02 -0.20180733299E+03  0.27945379572E+03  0.00000000000E+00 0.  1.
         22    1    1    2    0    0 -0.38687657054E+03  0.18186651376E+03  0.35651191086E+03  0.55664140364E+03  0.00000000000E+00 0.  1.
<mgrwt>
<rscale>  0 0.10989914E+04</rscale>
<asrwt>0</asrwt>
<pdfrwt beam="1">  1        1 0.81946252E-01 0.10989914E+04</pdfrwt>
<pdfrwt beam="2">  1       -1 0.87211305E-01 0.10989914E+04</pdfrwt>
<totfact> 0.52386300E+01</totfact>
</mgrwt>
</event>
<event>
 6    1  0.1773638E-005  0.2527887E+04  0.7818608E-02  0.8393118E-01
         -2   -1    0    0    0  501 -0.00000000000E+00  0.00000000000E+00  0.14307470529E+04  0.14307470529E+04  0.00000000000E+00 0.  1.
          2   -1    0    0  501    0  0.00000000000E+00 -0.00000000000E+00 -0.11165864263E+04  0.11165864263E+04  0.00000000000E+00 0. -1.
         23    2    1    2    0    0  0.76367764738E+03  0.10015214237E+04  0.72692468467E+02  0.12649312090E+04  0.92293322492E+02 0.  0.
         13    1    3    3    0    0  0.41477245637E+03  0.49628263713E+03  0.73300965666E+02  0.65092678394E+03  0.00000000000E+00 0.  1.
        -13    1    3    3    0    0  0.34890519101E+03  0.50523878656E+03 -0.60849719911E+00  0.61400442508E+03  0.00000000000E+00 0. -1.
         22    1    1    2    0    0 -0.76367764738E+03 -0.10015214237E+04  0.24146815812E+03  0.12824022702E+04  0.00000000000E+00 0.  1.
<mgrwt>
<rscale>  0 0.25278867E+04</rscale>
<asrwt>0</asrwt>
<pdfrwt beam="1">  1        2 0.17178253E+00 0.25278867E+04</pdfrwt>
<pdfrwt beam="2">  1       -2 0.22011493E+00 0.25278867E+04</pdfrwt>
<totfact> 0.18681510E+00</totfact>
</mgrwt>
</event>
<event>
 6    1  0.1773638E-005  0.1184904E+04  0.7818608E-02  0.9126173E-01
         -2   -1    0    0    0  501 -0.00000000000E+00  0.00000000000E+00  0.90850871950E+03  0.90850871950E+03  0.00000000000E+00 0.  1.
          2   -1    0    0  501    0  0.00000000000E+00 -0.00000000000E+00 -0.38634697902E+03  0.38634697902E+03  0.00000000000E+00 0. -1.
         23    2    1    2    0    0 -0.53585782177E+03  0.20844434092E+03  0.12279757934E+03  0.59479542854E+03  0.90053916674E+02 0.  0.
         13    1    3    3    0    0 -0.13759455034E+03  0.12629537839E+02  0.30639143088E+02  0.14152922878E+03  0.00000000000E+00 0. -1.
        -13    1    3    3    0    0 -0.39826327143E+03  0.19581480308E+03  0.92158436257E+02  0.45326619976E+03  0.00000000000E+00 0.  1.
         22    1    1    2    0    0  0.53585782177E+03 -0.20844434092E+03  0.39936416114E+03  0.70006026999E+03  0.00000000000E+00 0. -1.
<mgrwt>
<rscale>  0 0.11849044E+04</rscale>
<asrwt>0</asrwt>
<pdfrwt beam="1">  1        2 0.59437997E-01 0.11849044E+04</pdfrwt>
<pdfrwt beam="2">  1       -2 0.13977057E+00 0.11849044E+04</pdfrwt>
<totfact> 0.29435420E+01</totfact>
</mgrwt>
</event>
<event>
 6    1  0.1773638E-005  0.1560508E+04  0.7818608E-02  0.8845184E-01
         -1   -1    0    0    0  501 -0.00000000000E+00  0.00000000000E+00  0.71749532732E+03  0.71749532732E+03  0.00000000000E+00 0.  1.
          1   -1    0    0  501    0  0.00000000000E+00 -0.00000000000E+00 -0.84850201237E+03  0.84850201237E+03  0.00000000000E+00 0. -1.
         23    2    1    2    0    0  0.17658455137E+03 -0.32767837105E+03  0.61906876321E+03  0.72863935369E+03  0.95467039006E+02 0.  0.
         13    1    3    3    0    0  0.98353042205E+02 -0.10420534322E+03  0.18285691080E+03  0.23231169642E+03  0.00000000000E+00 0.  1.
        -13    1    3    3    0    0  0.78231509160E+02 -0.22347302783E+03  0.43621185241E+03  0.49632765727E+03  0.00000000000E+00 0. -1.
         22    1    1    2    0    0 -0.17658455137E+03  0.32767837105E+03 -0.75007544826E+03  0.83735798600E+03  0.00000000000E+00 0. -1.
<mgrwt>
<rscale>  0 0.15605079E+04</rscale>
<asrwt>0</asrwt>
<pdfrwt beam="1">  1        1 0.13053877E+00 0.15605079E+04</pdfrwt>
<pdfrwt beam="2">  1       -1 0.11038390E+00 0.15605079E+04</pdfrwt>
<totfact> 0.14639730E+01</totfact>
</mgrwt>
</event>
<event>
 6    1  0.1773638E-005  0.3073653E+04  0.7818608E-02  0.8223006E-01
          1   -1    0    0  501    0  0.00000000000E+00  0.00000000000E+00  0.18992579985E+04  0.18992579985E+04  0.00000000000E+00 0. -1.
         -1   -1    0    0    0  501 -0.00000000000E+00 -0.00000000000E+00 -0.12435568755E+04  0.12435568755E+04  0.00000000000E+00 0.  1.
         23    2    1    2    0    0  0.46196930296E+03  0.11753250939E+03  0.18206675023E+04  0.18840948128E+04  0.88054427210E+02 0.  0.
         13    1    3    3    0    0  0.20883873532E+03  0.65379292230E+02  0.67289706435E+03  0.70758641058E+03  0.00000000000E+00 0. -1.
        -13    1    3    3    0    0  0.25313056763E+03  0.52153217161E+02  0.11477704379E+04  0.11765084022E+04  0.00000000000E+00 0.  1.
         22    1    1    2    0    0 -0.46196930296E+03 -0.11753250939E+03 -0.11649663793E+04  0.12587200612E+04  0.00000000000E+00 0.  1.
<mgrwt>
<rscale>  0 0.30736528E+04</rscale>
<asrwt>0</asrwt>
<pdfrwt beam="1">  1        1 0.29219354E+00 0.30736528E+04</pdfrwt>
<pdfrwt beam="2">  1       -1 0.19131644E+00 0.30736528E+04</pdfrwt>
<totfact> 0.51031467E-01</totfact>
</mgrwt>
</event>
<event>
 6    1  0.1773638E-005  0.1672275E+04  0.7818608E-02  0.8777337E-01
         -2   -1    0    0    0  501 -0.00000000000E+00  0.00000000000E+00  0.63274526474E+03  0.63274526474E+03  0.00000000000E+00 0.  1.
          2   -1    0    0  501    0  0.00000000000E+00 -0.00000000000E+00 -0.11049095885E+04  0.11049095885E+04  0.00000000000E+00 0. -1.
         23    2    1    2    0    0 -0.56469649287E+03 -0.53773011185E+03 -0.54292623071E+03  0.95468419624E+03  0.92828984201E+02 0.  0.
         11    1    3    3    0    0 -0.39573825215E+03 -0.32198076879E+03 -0.32932051933E+03  0.60723338523E+03  0.00000000000E+00 0. -1.
        -11    1    3    3    0    0 -0.16895824072E+03 -0.21574934306E+03 -0.21360571138E+03  0.34745081102E+03  0.00000000000E+00 0.  1.
         22    1    1    2    0    0  0.56469649287E+03  0.53773011185E+03  0.70761906945E+02  0.78297065700E+03  0.00000000000E+00 0.  1.
<mgrwt>
<rscale>  0 0.16722755E+04</rscale>
<asrwt>0</asrwt>
<pdfrwt beam="1">  1        2 0.16998609E+00 0.16722755E+04</pdfrwt>
<pdfrwt beam="2">  1       -2 0.97345427E-01 0.16722755E+04</pdfrwt>
<totfact> 0.18162314E+01</totfact>
</mgrwt>
</event>
<event>
 6    1  0.1773638E-005  0.3762145E+04  0.7818608E-02  0.8054328E-01
          1   -1    0    0  501    0  0.00000000000E+00  0.00000000000E+00  0.17315373400E+04  0.17315373400E+04  0.00000000000E+00 0. -1.
         -1   -1    0    0    0  501 -0.00000000000E+00 -0.00000000000E+00 -0.20435210778E+04  0.20435210778E+04  0.00000000000E+00 0.  1.
         23    2    1    2    0    0  0.11863115644E+04  0.53851923277E+03 -0.15151189668E+04  0.20016795887E+04  0.11746318735E+03 0.  0.
         11    1    3    3    0    0  0.88512446851E+03  0.34527640992E+03 -0.11148514572E+04  0.14647712775E+04  0.00000000000E+00 0.  1.
        -11    1    3    3    0    0  0.30118709590E+03  0.19324282284E+03 -0.40026750965E+03  0.53690831116E+03  0.00000000000E+00 0. -1.
         22    1    1    2    0    0 -0.11863115644E+04 -0.53851923277E+03  0.12031352291E+04  0.17733788290E+04  0.00000000000E+00 0. -1.
<mgrwt>
<rscale>  0 0.37621446E+04</rscale>
<asrwt>0</asrwt>
<pdfrwt beam="1">  1        1 0.26639036E+00 0.37621446E+04</pdfrwt>
<pdfrwt beam="2">  1       -1 0.31438786E+00 0.37621446E+04</pdfrwt>
<totfact> 0.96379531E-02</totfact>
</mgrwt>
</event>
<event>
 6    1  0.1773638E-005  0.1916887E+04  0.7818608E-02  0.8646496E-01
         -2   -1    0    0    0  501 -0.00000000000E+00  0.00000000000E+00  0.63356706253E+03  0.63356706253E+03  0.00000000000E+00 0.  1.
          2   -1    0    0  501    0  0.00000000000E+00 -0.00000000000E+00 -0.14499076599E+04  0.14499076599E+04  0.00000000000E+00 0. -1.
         23    2    1    2    0    0 -0.51068590343E+02  0.18127429034E+03 -0.14280899372E+04  0.14433922090E+04  0.92042548696E+02 0.  0.
         11    1    3    3    0    0 -0.57772116445E+01  0.15703601030E+03 -0.11364143775E+04  0.11472276680E+04  0.00000000000E+00 0. -1.
        -11    1    3    3    0    0 -0.45291378698E+02  0.24238280043E+02 -0.29167555971E+03  0.29616454099E+03  0.00000000000E+00 0.  1.
         22    1    1    2    0    0  0.51068590343E+02 -0.18127429034E+03  0.61174933985E+03  0.64008251348E+03  0.00000000000E+00 0.  1.
<mgrwt>
<rscale>  0 0.19168868E+04</rscale>
<asrwt>0</asrwt>
<pdfrwt beam="1">  1        2 0.22306272E+00 0.19168868E+04</pdfrwt>
<pdfrwt beam="2">  1       -2 0.97471856E-01 0.19168868E+04</pdfrwt>
<totfact> 0.11123401E+01</totfact>
</mgrwt>
</event>
<event>
 6    1  0.1773638E-005  0.1550220E+04  0.7818608E-02  0.8851727E-01
         -2   -1    0    0    0  501 -0.00000000000E+00  0.00000000000E+00  0.25288926675E+03  0.25288926675E+03  0.00000000000E+00 0.  1.
          2   -1    0    0  501    0  0.00000000000E+00 -0.00000000000E+00 -0.23757265434E+04  0.23757265434E+04  0.00000000000E+00 0. -1.
         23    2    1    2    0    0  0.86316627501E+02 -0.42497881076E+03  0.19105017601E+02  0.44321553979E+03  0.89540288327E+02 0.  0.
         11    1    3    3    0    0  0.72380979589E+02 -0.22731789496E+03  0.46883052039E+02  0.24312641186E+03  0.00000000000E+00 0.  1.
        -11    1    3    3    0    0  0.13935647911E+02 -0.19766091580E+03 -0.27778034438E+02  0.20008912793E+03  0.00000000000E+00 0. -1.
         22    1    1    2    0    0 -0.86316627501E+02  0.42497881076E+03 -0.21419422943E+04  0.21854002704E+04  0.00000000000E+00 0. -1.
<mgrwt>
<rscale>  0 0.15502203E+04</rscale>
<asrwt>0</asrwt>
<pdfrwt beam="1">  1        2 0.36549640E+00 0.15502203E+04</pdfrwt>
<pdfrwt beam="2">  1       -2 0.38906040E-01 0.15502203E+04</pdfrwt>
<totfact> 0.24712686E+01</totfact>
</mgrwt>
</event>
<event>
 6    1  0.1773638E-005  0.1125361E+04  0.7818608E-02  0.9180820E-01
         -2   -1    0    0    0  501 -0.00000000000E+00  0.00000000000E+00  0.22425602309E+03  0.22425602309E+03  0.00000000000E+00 0.  1.
          2   -1    0    0  501    0  0.00000000000E+00 -0.00000000000E+00 -0.14118212038E+04  0.14118212038E+04  0.00000000000E+00 0. -1.
         23    2    1    2    0    0  0.51281194513E+03  0.86049066315E+02 -0.30026118461E+03  0.60763718761E+03  0.93196780536E+02 0.  0.
         13    1    3    3    0    0  0.16298251964E+03  0.35005161918E+02 -0.48467081649E+02  0.17360219202E+03  0.00000000000E+00 0.  1.
        -13    1    3    3    0    0  0.34982942549E+03  0.51043904397E+02 -0.25179410296E+03  0.43403499559E+03  0.00000000000E+00 0. -1.
         22    1    1    2    0    0 -0.51281194513E+03 -0.86049066315E+02 -0.88730399608E+03  0.10284400393E+04  0.00000000000E+00 0. -1.
<mgrwt>
<rscale>  0 0.11253611E+04</rscale>
<asrwt>0</asrwt>
<pdfrwt beam="1">  1        2 0.21720326E+00 0.11253611E+04</pdfrwt>
<pdfrwt beam="2">  1       -2 0.34500927E-01 0.11253611E+04</pdfrwt>
<totfact> 0.11112203E+02</totfact>
</mgrwt>
</event>
<event>
 6    1  0.1773638E-005  0.4038798E+03  0.7818608E-02  0.1042444E+00
          2   -1    0    0  501    0  0.00000000000E+00  0.00000000000E+00  0.53122127169E+03  0.53122127169E+03  0.00000000000E+00 0. -1.
         -2   -1    0    0    0  501 -0.00000000000E+00 -0.00000000000E+00 -0.76765968364E+02  0.76765968364E+02  0.00000000000E+00 0.  1.
         23    2    1    2    0    0  0.30799794457E+02 -0.10103294827E+03  0.21537036081E+01  0.14351655090E+03  0.97139476877E+02 0.  0.
         13    1    3    3    0    0  0.79878843788E-01 -0.79160403244E+02 -0.38533298738E+02  0.88040848100E+02  0.00000000000E+00 0.  1.
        -13    1    3    3    0    0  0.30719915613E+02 -0.21872545027E+02  0.40687002346E+02  0.55475702800E+02  0.00000000000E+00 0. -1.
         22    1    1    2    0    0 -0.30799794457E+02  0.10103294827E+03  0.45230159972E+03  0.46447068915E+03  0.00000000000E+00 0. -1.
<mgrwt>
<rscale>  0 0.40387976E+03</rscale>
<asrwt>0</asrwt>
<pdfrwt beam="1">  1        2 0.81726347E-01 0.40387976E+03</pdfrwt>
<pdfrwt beam="2">  1       -2 0.11810149E-01 0.40387976E+03</pdfrwt>
<totfact> 0.29654872E+03</totfact>
</mgrwt>
</event>
<event>
 6    1  0.1773638E-005  0.1491041E+04  0.7818608E-02  0.8890432E-01
         -1   -1    0    0    0  501 -0.00000000000E+00  0.00000000000E+00  0.39795046280E+03  0.39795046280E+03  0.00000000000E+00 0.  1.
          1   -1    0    0  501    0  0.00000000000E+00 -0.00000000000E+00 -0.13966587536E+04  0.13966587536E+04  0.00000000000E+00 0. -1.
         23    2    1    2    0    0  0.13036379717E+03 -0.21692799909E+03 -0.13416710868E+04  0.13683745910E+04  0.91187936338E+02 0.  0.
         11    1    3    3    0    0  0.11827395686E+03 -0.14187252168E+03 -0.77940494404E+03  0.80099226467E+03  0.00000000000E+00 0.  1.
        -11    1    3    3    0    0  0.12089840316E+02 -0.75055477415E+02 -0.56226614277E+03  0.56738232633E+03  0.00000000000E+00 0. -1.
         22    1    1    2    0    0 -0.13036379717E+03  0.21692799909E+03  0.34296279603E+03  0.42623462537E+03  0.00000000000E+00 0.  1.
<mgrwt>
<rscale>  0 0.14910412E+04</rscale>
<asrwt>0</asrwt>
<pdfrwt beam="1">  1        1 0.21487057E+00 0.14910412E+04</pdfrwt>
<pdfrwt beam="2">  1       -1 0.61223149E-01 0.14910412E+04</pdfrwt>
<totfact> 0.20232244E+01</totfact>
</mgrwt>
</event>
<event>
 6    1  0.1773638E-005  0.3160882E+04  0.7818608E-02  0.8199225E-01
          1   -1    0    0  501    0  0.00000000000E+00  0.00000000000E+00  0.30831535012E+04  0.30831535012E+04  0.00000000000E+00 0.  1.
         -1   -1    0    0    0  501 -0.00000000000E+00 -0.00000000000E+00 -0.81014235239E+03  0.81014235239E+03  0.00000000000E+00 0. -1.
         23    2    1    2    0    0  0.14960609122E+04 -0.37906572539E+03  0.72522431412E+03  0.17075389680E+04  0.88599909900E+02 0.  0.
         13    1    3    3    0    0  0.97073177038E+03 -0.22711072470E+03  0.42580786455E+03  0.10840718559E+04  0.00000000000E+00 0. -1.
        -13    1    3    3    0    0  0.52532914186E+03 -0.15195500069E+03  0.29941644957E+03  0.62346711204E+03  0.00000000000E+00 0.  1.
         22    1    1    2    0    0 -0.14960609122E+04  0.37906572539E+03  0.15477868346E+04  0.21857568856E+04  0.00000000000E+00 0. -1.
<mgrwt>
<rscale>  0 0.31608817E+04</rscale>
<asrwt>0</asrwt>
<pdfrwt beam="1">  1        1 0.47433130E+00 0.31608817E+04</pdfrwt>
<pdfrwt beam="2">  1       -1 0.12463729E+00 0.31608817E+04</pdfrwt>
<totfact> 0.24552765E-01</totfact>
</mgrwt>
</event>
<event>
 6    1  0.1773638E-005  0.2207602E+04  0.7818608E-02  0.8515271E-01
         -2   -1    0    0    0  501 -0.00000000000E+00  0.00000000000E+00  0.97241294232E+03  0.97241294232E+03  0.00000000000E+00 0.  1.
          2   -1    0    0  501    0  0.00000000000E+00 -0.00000000000E+00 -0.12529420109E+04  0.12529420109E+04  0.00000000000E+00 0. -1.
         23    2    1    2    0    0  0.48281698534E+03  0.15939795539E+03  0.84541395298E+03  0.98993290497E+03  0.81990578358E+02 0.  0.
         11    1    3    3    0    0  0.14911843629E+03  0.89702871560E+02  0.27662860465E+03  0.32681232859E+03  0.00000000000E+00 0.  1.
        -11    1    3    3    0    0  0.33369854905E+03  0.69695083835E+02  0.56878534833E+03  0.66312057638E+03  0.00000000000E+00 0. -1.
         22    1    1    2    0    0 -0.48281698534E+03 -0.15939795539E+03 -0.11259430216E+04  0.12354220483E+04  0.00000000000E+00 0. -1.
<mgrwt>
<rscale>  0 0.22076023E+04</rscale>
<asrwt>0</asrwt>
<pdfrwt beam="1">  1        2 0.19276031E+00 0.22076023E+04</pdfrwt>
<pdfrwt beam="2">  1       -2 0.14960199E+00 0.22076023E+04</pdfrwt>
<totfact> 0.48563278E+00</totfact>
</mgrwt>
</event>
<event>
 6    1  0.1773638E-005  0.1419421E+04  0.7818608E-02  0.8939879E-01
         -1   -1    0    0    0  501 -0.00000000000E+00  0.00000000000E+00  0.23886951003E+03  0.23886951003E+03  0.00000000000E+00 0.  1.
          1   -1    0    0  501    0  0.00000000000E+00 -0.00000000000E+00 -0.21086373623E+04  0.21086373623E+04  0.00000000000E+00 0. -1.
         23    2    1    2    0    0 -0.26805422654E+03  0.42483018846E+03 -0.17610368022E+04  0.18335455911E+04  0.91132092604E+02 0.  0.
         13    1    3    3    0    0 -0.17744440994E+02  0.88571202569E+02 -0.35832150637E+03  0.36953217051E+03  0.00000000000E+00 0. -1.
        -13    1    3    3    0    0 -0.25030978555E+03  0.33625898590E+03 -0.14027152958E+04  0.14640134205E+04  0.00000000000E+00 0.  1.
         22    1    1    2    0    0  0.26805422654E+03 -0.42483018846E+03 -0.10873105003E+03  0.51396128126E+03  0.00000000000E+00 0.  1.
<mgrwt>
<rscale>  0 0.14194213E+04</rscale>
<asrwt>0</asrwt>
<pdfrwt beam="1">  1        1 0.32440574E+00 0.14194213E+04</pdfrwt>
<pdfrwt beam="2">  1       -1 0.36749157E-01 0.14194213E+04</pdfrwt>
<totfact> 0.17418574E+01</totfact>
</mgrwt>
</event>
<event>
 6    1  0.1773638E-005  0.1133821E+04  0.7818608E-02  0.9172841E-01
          2   -1    0    0  501    0  0.00000000000E+00  0.00000000000E+00  0.43311356011E+03  0.43311356011E+03  0.00000000000E+00 0. -1.
         -2   -1    0    0    0  501 -0.00000000000E+00 -0.00000000000E+00 -0.74203959084E+03  0.74203959084E+03  0.00000000000E+00 0.  1.
         23    2    1    2    0    0  0.28691304423E+02  0.55804742219E+03 -0.81769647367E+02  0.57196152396E+03  0.90628876767E+02 0.  0.
         11    1    3    3    0    0  0.34617343319E+02  0.16344593610E+03 -0.57044350708E+02  0.17654175833E+03  0.00000000000E+00 0.  1.
        -11    1    3    3    0    0 -0.59260388959E+01  0.39460148609E+03 -0.24725296659E+02  0.39541976563E+03  0.00000000000E+00 0. -1.
         22    1    1    2    0    0 -0.28691304423E+02 -0.55804742219E+03 -0.22715638337E+03  0.60319162699E+03  0.00000000000E+00 0.  1.
<mgrwt>
<rscale>  0 0.11338208E+04</rscale>
<asrwt>0</asrwt>
<pdfrwt beam="1">  1        2 0.66632856E-01 0.11338208E+04</pdfrwt>
<pdfrwt beam="2">  1       -2 0.11415994E+00 0.11338208E+04</pdfrwt>
<totfact> 0.43208526E+01</totfact>
</mgrwt>
</event>
<event>
 6    1  0.1773638E-005  0.1694893E+04  0.7818608E-02  0.8764283E-01
          1   -1    0    0  501    0  0.00000000000E+00  0.00000000000E+00  0.13326652602E+04  0.13326652602E+04  0.00000000000E+00 0. -1.
         -1   -1    0    0    0  501 -0.00000000000E+00 -0.00000000000E+00 -0.53889392846E+03  0.53889392846E+03  0.00000000000E+00 0.  1.
         23    2    1    2    0    0 -0.17797502806E+03 -0.62186694675E+03  0.99862324059E+03  0.11930623835E+04  0.88067384649E+02 0.  0.
         13    1    3    3    0    0 -0.13530407200E+03 -0.46105554840E+03  0.66709647597E+03  0.82212962412E+03  0.00000000000E+00 0. -1.
        -13    1    3    3    0    0 -0.42670956067E+02 -0.16081139835E+03  0.33152676462E+03  0.37093275939E+03  0.00000000000E+00 0.  1.
         22    1    1    2    0    0  0.17797502806E+03  0.62186694675E+03 -0.20485190882E+03  0.67849680516E+03  0.00000000000E+00 0.  1.
<mgrwt>
<rscale>  0 0.16948926E+04</rscale>
<asrwt>0</asrwt>
<pdfrwt beam="1">  1        1 0.20502542E+00 0.16948926E+04</pdfrwt>
<pdfrwt beam="2">  1       -1 0.82906759E-01 0.16948926E+04</pdfrwt>
<totfact> 0.11793820E+01</totfact>
</mgrwt>
</event>
<event>
 6    1  0.1773638E-005  0.4532863E+04  0.7818608E-02  0.7904909E-01
         -2   -1    0    0    0  501 -0.00000000000E+00  0.00000000000E+00  0.14291603324E+04  0.14291603324E+04  0.00000000000E+00 0.  1.
          2   -1    0    0  501    0  0.00000000000E+00 -0.00000000000E+00 -0.35942163849E+04  0.35942163849E+04  0.00000000000E+00 0. -1.
         23    2    1    2    0    0 -0.18834109546E+04  0.53072753562E+03  0.18232161056E+03  0.19673841724E+04  0.91928076861E+02 0.  0.
         11    1    3    3    0    0 -0.36458825294E+03  0.68833061642E+02  0.19279434116E+02  0.37152965042E+03  0.00000000000E+00 0. -1.
        -11    1    3    3    0    0 -0.15188227017E+04  0.46189447398E+03  0.16304217645E+03  0.15958545220E+04  0.00000000000E+00 0.  1.
         22    1    1    2    0    0  0.18834109546E+04 -0.53072753562E+03 -0.23473776631E+04  0.30559925448E+04  0.00000000000E+00 0. -1.
<mgrwt>
<rscale>  0 0.45328629E+04</rscale>
<asrwt>0</asrwt>
<pdfrwt beam="1">  1        2 0.55295636E+00 0.45328629E+04</pdfrwt>
<pdfrwt beam="2">  1       -2 0.21987082E+00 0.45328629E+04</pdfrwt>
<totfact> 0.52041302E-02</totfact>
</mgrwt>
</event>
<event>
 6    1  0.1773638E-005  0.2483125E+04  0.7818608E-02  0.8409022E-01
         -2   -1    0    0    0  501 -0.00000000000E+00  0.00000000000E+00  0.17289889971E+04  0.17289889971E+04  0.00000000000E+00 0.  1.
          2   -1    0    0  501    0  0.00000000000E+00 -0.00000000000E+00 -0.89154815113E+03  0.89154815113E+03  0.00000000000E+00 0. -1.
         23    2    1    2    0    0 -0.39390578049E+03  0.83394772212E+03  0.12938230207E+04  0.15915010670E+04  0.90923429923E+02 0.  0.
         11    1    3    3    0    0 -0.10184095386E+03  0.18840393103E+03  0.24040123007E+03  0.32196330929E+03  0.00000000000E+00 0. -1.
        -11    1    3    3    0    0 -0.29206482662E+03  0.64554379108E+03  0.10534217907E+04  0.12695377577E+04  0.00000000000E+00 0.  1.
         22    1    1    2    0    0  0.39390578049E+03 -0.83394772212E+03 -0.45638217474E+03  0.10290360813E+04  0.00000000000E+00 0. -1.
<mgrwt>
<rscale>  0 0.24831246E+04</rscale>
<asrwt>0</asrwt>
<pdfrwt beam="1">  1        2 0.13716125E+00 0.24831246E+04</pdfrwt>
<pdfrwt beam="2">  1       -2 0.26599831E+00 0.24831246E+04</pdfrwt>
<totfact> 0.13605501E+00</totfact>
</mgrwt>
</event>
<event>
 6    1  0.1773638E-005  0.2335093E+04  0.7818608E-02  0.8464212E-01
         -2   -1    0    0    0  501 -0.00000000000E+00  0.00000000000E+00  0.61531968931E+03  0.61531968931E+03  0.00000000000E+00 0.  1.
          2   -1    0    0  501    0  0.00000000000E+00 -0.00000000000E+00 -0.22153761043E+04  0.22153761043E+04  0.00000000000E+00 0. -1.
         23    2    1    2    0    0  0.64574584694E+03 -0.67200429203E+03  0.47862911393E+02  0.93749332858E+03  0.89584683430E+02 0.  0.
         11    1    3    3    0    0  0.75296796576E+02 -0.42273459633E+02  0.10425862367E+02  0.86979029484E+02  0.00000000000E+00 0. -1.
        -11    1    3    3    0    0  0.57044905036E+03 -0.62973083240E+03  0.37437049026E+02  0.85051429910E+03  0.00000000000E+00 0.  1.
         22    1    1    2    0    0 -0.64574584694E+03  0.67200429203E+03 -0.16479193264E+04  0.18932024650E+04  0.00000000000E+00 0. -1.
<mgrwt>
<rscale>  0 0.23350927E+04</rscale>
<asrwt>0</asrwt>
<pdfrwt beam="1">  1        2 0.34082709E+00 0.23350927E+04</pdfrwt>
<pdfrwt beam="2">  1       -2 0.94664570E-01 0.23350927E+04</pdfrwt>
<totfact> 0.42997297E+00</totfact>
</mgrwt>
</event>
<event>
 6    1  0.1773638E-005  0.1841457E+04  0.7818608E-02  0.8684558E-01
          1   -1    0    0  501    0  0.00000000000E+00  0.00000000000E+00  0.80488858569E+03  0.80488858569E+03  0.00000000000E+00 0. -1.
         -1   -1    0    0    0  501 -0.00000000000E+00 -0.00000000000E+00 -0.10532407056E+04  0.10532407056E+04  0.00000000000E+00 0.  1.
         23    2    1    2    0    0 -0.37199829563E+03 -0.81353588329E+03 -0.33450900411E+03  0.95943781248E+03  0.91658479392E+02 0.  0.
         13    1    3    3    0    0 -0.17476904102E+03 -0.44745384175E+03 -0.13996870416E+03  0.50035027364E+03  0.00000000000E+00 0. -1.
        -13    1    3    3    0    0 -0.19722925461E+03 -0.36608204155E+03 -0.19454029994E+03  0.45908753884E+03  0.00000000000E+00 0.  1.
         22    1    1    2    0    0  0.37199829563E+03  0.81353588329E+03  0.86156884219E+02  0.89869147879E+03  0.00000000000E+00 0. -1.
<mgrwt>
<rscale>  0 0.18414575E+04</rscale>
<asrwt>0</asrwt>
<pdfrwt beam="1">  1        1 0.12382901E+00 0.18414575E+04</pdfrwt>
<pdfrwt beam="2">  1       -1 0.16203703E+00 0.18414575E+04</pdfrwt>
<totfact> 0.58065488E+00</totfact>
</mgrwt>
</event>
<event>
 6    1  0.1773638E-005  0.1654402E+04  0.7818608E-02  0.8787806E-01
         -2   -1    0    0    0  501 -0.00000000000E+00  0.00000000000E+00  0.38717505898E+03  0.38717505898E+03  0.00000000000E+00 0.  1.
          2   -1    0    0  501    0  0.00000000000E+00 -0.00000000000E+00 -0.17673188056E+04  0.17673188056E+04  0.00000000000E+00 0. -1.
         23    2    1    2    0    0 -0.65906154067E+03 -0.49549509425E+03 -0.67847314929E+03  0.10718031747E+04  0.92513394345E+02 0.  0.
         13    1    3    3    0    0 -0.22584120550E+03 -0.19891891806E+03 -0.29708113083E+03  0.42288318051E+03  0.00000000000E+00 0.  1.
        -13    1    3    3    0    0 -0.43322033517E+03 -0.29657617619E+03 -0.38139201846E+03  0.64891999417E+03  0.00000000000E+00 0. -1.
         22    1    1    2    0    0  0.65906154067E+03  0.49549509425E+03 -0.70167059729E+03  0.10826906899E+04  0.00000000000E+00 0.  1.
<mgrwt>
<rscale>  0 0.16544023E+04</rscale>
<asrwt>0</asrwt>
<pdfrwt beam="1">  1        2 0.27189521E+00 0.16544023E+04</pdfrwt>
<pdfrwt beam="2">  1       -2 0.59565392E-01 0.16544023E+04</pdfrwt>
<totfact> 0.22594411E+01</totfact>
</mgrwt>
</event>
<event>
 6    1  0.1773638E-005  0.2920173E+04  0.7818608E-02  0.8266901E-01
          2   -1    0    0  501    0  0.00000000000E+00  0.00000000000E+00  0.21510869443E+04  0.21510869443E+04  0.00000000000E+00 0. -1.
         -2   -1    0    0    0  501 -0.00000000000E+00 -0.00000000000E+00 -0.99105841470E+03  0.99105841470E+03  0.00000000000E+00 0.  1.
         23    2    1    2    0    0  0.15008571434E+01 -0.13077892035E+04  0.12758616926E+04  0.18292355468E+04  0.89245580656E+02 0.  0.
         11    1    3    3    0    0  0.13454909275E+02 -0.50215945661E+03  0.54845205775E+03  0.74373705978E+03  0.00000000000E+00 0. -1.
        -11    1    3    3    0    0 -0.11954052131E+02 -0.80562974689E+03  0.72740963481E+03  0.10854984870E+04  0.00000000000E+00 0.  1.
         22    1    1    2    0    0 -0.15008571434E+01  0.13077892035E+04 -0.11583316298E+03  0.13129098122E+04  0.00000000000E+00 0.  1.
<mgrwt>
<rscale>  0 0.29201732E+04</rscale>
<asrwt>0</asrwt>
<pdfrwt beam="1">  1        2 0.33093645E+00 0.29201732E+04</pdfrwt>
<pdfrwt beam="2">  1       -2 0.15247053E+00 0.29201732E+04</pdfrwt>
<totfact> 0.13598052E+00</totfact>
</mgrwt>
</event>
<event>
 6    1  0.1773638E-005  0.1644501E+04  0.7818608E-02  0.8793667E-01
         -1   -1    0    0    0  501 -0.00000000000E+00  0.00000000000E+00  0.28025470366E+03  0.28025470366E+03  0.00000000000E+00 0.  1.
          1   -1    0    0  501    0  0.00000000000E+00 -0.00000000000E+00 -0.24124325357E+04  0.24124325357E+04  0.00000000000E+00 0. -1.
         23    2    1    2    0    0 -0.25719602649E+02  0.57424240959E+03 -0.11237761849E+03  0.59268515708E+03  0.90725538601E+02 0.  0.
         11    1    3    3    0    0 -0.43009767185E+02  0.12703938641E+03 -0.33604974098E+02  0.13826836246E+03  0.00000000000E+00 0.  1.
        -11    1    3    3    0    0  0.17290164536E+02  0.44720302318E+03 -0.78772644396E+02  0.45441679462E+03  0.00000000000E+00 0. -1.
         22    1    1    2    0    0  0.25719602649E+02 -0.57424240959E+03 -0.20198002135E+04  0.21000020822E+04  0.00000000000E+00 0. -1.
<mgrwt>
<rscale>  0 0.16445006E+04</rscale>
<asrwt>0</asrwt>
<pdfrwt beam="1">  1        1 0.37114345E+00 0.16445006E+04</pdfrwt>
<pdfrwt beam="2">  1       -1 0.43116110E-01 0.16445006E+04</pdfrwt>
<totfact> 0.79093976E+00</totfact>
</mgrwt>
</event>
<event>
 6    1  0.1773638E-005  0.1966044E+04  0.7818608E-02  0.8622663E-01
         -1   -1    0    0    0  501 -0.00000000000E+00  0.00000000000E+00  0.69007714940E+03  0.69007714940E+03  0.00000000000E+00 0.  1.
          1   -1    0    0  501    0  0.00000000000E+00 -0.00000000000E+00 -0.14003243878E+04  0.14003243878E+04  0.00000000000E+00 0. -1.
         23    2    1    2    0    0 -0.80414259897E+03 -0.55187427561E+03 -0.24334811170E+03  0.10091035533E+04  0.88663082735E+02 0.  0.
         13    1    3    3    0    0 -0.75862453798E+02 -0.80010888217E+02 -0.11329034214E+02  0.11083862660E+03  0.00000000000E+00 0. -1.
        -13    1    3    3    0    0 -0.72828014517E+03 -0.47186338739E+03 -0.23201907749E+03  0.89826492669E+03  0.00000000000E+00 0.  1.
         22    1    1    2    0    0  0.80414259897E+03  0.55187427561E+03 -0.46689912674E+03  0.10812979840E+04  0.00000000000E+00 0. -1.
<mgrwt>
<rscale>  0 0.19660436E+04</rscale>
<asrwt>0</asrwt>
<pdfrwt beam="1">  1        1 0.21543452E+00 0.19660436E+04</pdfrwt>
<pdfrwt beam="2">  1       -1 0.10616572E+00 0.19660436E+04</pdfrwt>
<totfact> 0.59272811E+00</totfact>
</mgrwt>
</event>
<event>
 6    1  0.1773638E-005  0.3538344E+04  0.7818608E-02  0.8104763E-01
         -2   -1    0    0    0  501 -0.00000000000E+00  0.00000000000E+00  0.17688638745E+04  0.17688638745E+04  0.00000000000E+00 0.  1.
          2   -1    0    0  501    0  0.00000000000E+00 -0.00000000000E+00 -0.17694801524E+04  0.17694801524E+04  0.00000000000E+00 0. -1.
         23    2    1    2    0    0 -0.82196772235E+03  0.14206321402E+04  0.65681349133E+03  0.17702827962E+04  0.93116066256E+02 0.  0.
         11    1    3    3    0    0 -0.66771468788E+03  0.10938206679E+04  0.48621800449E+03  0.13706547726E+04  0.00000000000E+00 0. -1.
        -11    1    3    3    0    0 -0.15425303447E+03  0.32681147231E+03  0.17059548684E+03  0.39962802355E+03  0.00000000000E+00 0.  1.
         22    1    1    2    0    0  0.82196772235E+03 -0.14206321402E+04 -0.65742976917E+03  0.17680612307E+04  0.00000000000E+00 0. -1.
<mgrwt>
<rscale>  0 0.35383440E+04</rscale>
<asrwt>0</asrwt>
<pdfrwt beam="1">  1        2 0.27222772E+00 0.35383440E+04</pdfrwt>
<pdfrwt beam="2">  1       -2 0.27213290E+00 0.35383440E+04</pdfrwt>
<totfact> 0.34569012E-01</totfact>
</mgrwt>
</event>
<event>
 6    1  0.1773638E-005  0.3402649E+04  0.7818608E-02  0.8137257E-01
          2   -1    0    0  501    0  0.00000000000E+00  0.00000000000E+00  0.10615036823E+04  0.10615036823E+04  0.00000000000E+00 0.  1.
         -2   -1    0    0    0  501 -0.00000000000E+00 -0.00000000000E+00 -0.27267968025E+04  0.27267968025E+04  0.00000000000E+00 0. -1.
         23    2    1    2    0    0 -0.16960866336E+04 -0.74685474252E+02 -0.93297534066E+03  0.19393610269E+04  0.91599222833E+02 0.  0.
         11    1    3    3    0    0 -0.10615570037E+04 -0.66322506144E+02 -0.53870658281E+03  0.11922695708E+04  0.00000000000E+00 0.  1.
        -11    1    3    3    0    0 -0.63452962984E+03 -0.83629681084E+01 -0.39426875785E+03  0.74709145612E+03  0.00000000000E+00 0. -1.
         22    1    1    2    0    0  0.16960866336E+04  0.74685474252E+02 -0.73231777953E+03  0.18489394579E+04  0.00000000000E+00 0.  1.
<mgrwt>
<rscale>  0 0.34026489E+04</rscale>
<asrwt>0</asrwt>
<pdfrwt beam="1">  1        2 0.16330826E+00 0.34026489E+04</pdfrwt>
<pdfrwt beam="2">  1       -2 0.41950720E+00 0.34026489E+04</pdfrwt>
<totfact> 0.10522570E-01</totfact>
</mgrwt>
</event>
<event>
 6    1  0.1773638E-005  0.1510805E+04  0.7818608E-02  0.8877299E-01
          2   -1    0    0  501    0  0.00000000000E+00  0.00000000000E+00  0.11571469029E+04  0.11571469029E+04  0.00000000000E+00 0. -1.
         -2   -1    0    0    0  501 -0.00000000000E+00 -0.00000000000E+00 -0.49313778440E+03  0.49313778440E+03  0.00000000000E+00 0.  1.
         23    2    1    2    0    0 -0.59047150713E+03  0.12294669781E+02 -0.17679702972E+03  0.62278152988E+03  0.88271652340E+02 0.  0.
         11    1    3    3    0    0 -0.35656421905E+02 -0.20903390092E+02 -0.13544409354E+02  0.43494633751E+02  0.00000000000E+00 0.  1.
        -11    1    3    3    0    0 -0.55481508522E+03  0.33198059873E+02 -0.16325262037E+03  0.57928689613E+03  0.00000000000E+00 0. -1.
         22    1    1    2    0    0  0.59047150713E+03 -0.12294669781E+02  0.84080614824E+03  0.10275031574E+04  0.00000000000E+00 0. -1.
<mgrwt>
<rscale>  0 0.15108049E+04</rscale>
<asrwt>0</asrwt>
<pdfrwt beam="1">  1        2 0.17802260E+00 0.15108049E+04</pdfrwt>
<pdfrwt beam="2">  1       -2 0.75867352E-01 0.15108049E+04</pdfrwt>
<totfact> 0.30209305E+01</totfact>
</mgrwt>
</event>
<event>
 6    1  0.1773638E-005  0.1620579E+04  0.7818608E-02  0.8808005E-01
         -2   -1    0    0    0  501 -0.00000000000E+00  0.00000000000E+00  0.63165058342E+03  0.63165058342E+03  0.00000000000E+00 0.  1.
          2   -1    0    0  501    0  0.00000000000E+00 -0.00000000000E+00 -0.10394492382E+04  0.10394492382E+04  0.00000000000E+00 0. -1.
         23    2    1    2    0    0 -0.68655930782E+03  0.42429819916E+03 -0.23877485999E+03  0.84650192676E+03  0.90329581427E+02 0.  0.
         13    1    3    3    0    0 -0.12937004649E+03  0.57124767975E+02 -0.71963563323E+02  0.15867766853E+03  0.00000000000E+00 0. -1.
        -13    1    3    3    0    0 -0.55718926133E+03  0.36717343118E+03 -0.16681129667E+03  0.68782425822E+03  0.00000000000E+00 0.  1.
         22    1    1    2    0    0  0.68655930782E+03 -0.42429819916E+03 -0.16902379476E+03  0.82459789483E+03  0.00000000000E+00 0. -1.
<mgrwt>
<rscale>  0 0.16205786E+04</rscale>
<asrwt>0</asrwt>
<pdfrwt beam="1">  1        2 0.15991527E+00 0.16205786E+04</pdfrwt>
<pdfrwt beam="2">  1       -2 0.97177014E-01 0.16205786E+04</pdfrwt>
<totfact> 0.20116901E+01</totfact>
</mgrwt>
</event>
<event>
 6    1  0.1773638E-005  0.2834586E+04  0.7818608E-02  0.8292611E-01
          2   -1    0    0  501    0  0.00000000000E+00  0.00000000000E+00  0.19424543132E+04  0.19424543132E+04  0.00000000000E+00 0. -1.
         -2   -1    0    0    0  501 -0.00000000000E+00 -0.00000000000E+00 -0.10341139481E+04  0.10341139481E+04  0.00000000000E+00 0.  1.
         23    2    1    2    0    0  0.39953895273E+03  0.13512056487E+04  0.59875728510E+03  0.15339214704E+04  0.94956364118E+02 0.  0.
         11    1    3    3    0    0  0.17541623970E+03  0.75226152210E+03  0.31215715633E+03  0.83313284957E+03  0.00000000000E+00 0. -1.
        -11    1    3    3    0    0  0.22412271303E+03  0.59894412661E+03  0.28660012877E+03  0.70078862085E+03  0.00000000000E+00 0.  1.
         22    1    1    2    0    0 -0.39953895273E+03 -0.13512056487E+04  0.30958307995E+03  0.14426467909E+04  0.00000000000E+00 0. -1.
<mgrwt>
<rscale>  0 0.28345858E+04</rscale>
<asrwt>0</asrwt>
<pdfrwt beam="1">  1        2 0.29883912E+00 0.28345858E+04</pdfrwt>
<pdfrwt beam="2">  1       -2 0.15909445E+00 0.28345858E+04</pdfrwt>
<totfact> 0.15966012E+00</totfact>
</mgrwt>
</event>
<event>
 6    1  0.1773638E-005  0.4262633E+03  0.7818608E-02  0.1035047E+00
          3   -1    0    0  501    0  0.00000000000E+00  0.00000000000E+00  0.67778687023E+02  0.67778687023E+02  0.00000000000E+00 0.  1.
         -3   -1    0    0    0  501 -0.00000000000E+00 -0.00000000000E+00 -0.67019754053E+03  0.67019754053E+03  0.00000000000E+00 0. -1.
         23    2    1    2    0    0  0.45172844198E+02  0.70244297427E+02 -0.63604829792E+03  0.64794408492E+03  0.91100234477E+02 0.  0.
         13    1    3    3    0    0  0.16247304237E+02  0.87584188280E+02 -0.42695705517E+03  0.43615053810E+03  0.00000000000E+00 0. -1.
        -13    1    3    3    0    0  0.28925539961E+02 -0.17339890853E+02 -0.20909124275E+03  0.21179354682E+03  0.00000000000E+00 0.  1.
         22    1    1    2    0    0 -0.45172844198E+02 -0.70244297427E+02  0.33629444419E+02  0.90032142626E+02  0.00000000000E+00 0.  1.
<mgrwt>
<rscale>  0 0.42626334E+03</rscale>
<asrwt>0</asrwt>
<pdfrwt beam="1">  1        3 0.10427491E-01 0.42626334E+03</pdfrwt>
<pdfrwt beam="2">  1       -3 0.10310731E+00 0.42626334E+03</pdfrwt>
<totfact> 0.15072400E+02</totfact>
</mgrwt>
</event>
<event>
 6    1  0.1773638E-005  0.3832181E+04  0.7818608E-02  0.8039284E-01
         -2   -1    0    0    0  501 -0.00000000000E+00  0.00000000000E+00  0.10305252814E+04  0.10305252814E+04  0.00000000000E+00 0.  1.
          2   -1    0    0  501    0  0.00000000000E+00 -0.00000000000E+00 -0.35626513754E+04  0.35626513754E+04  0.00000000000E+00 0. -1.
         23    2    1    2    0    0  0.15609788427E+04 -0.75992987248E+03 -0.29870456233E+03  0.17643394228E+04  0.97574714173E+02 0.  0.
         11    1    3    3    0    0  0.58815319542E+03 -0.24409826319E+03 -0.13761747723E+03  0.65149575088E+03  0.00000000000E+00 0.  1.
        -11    1    3    3    0    0  0.97282564729E+03 -0.51583160928E+03 -0.16108708510E+03  0.11128436719E+04  0.00000000000E+00 0. -1.
         22    1    1    2    0    0 -0.15609788427E+04  0.75992987248E+03 -0.22334215316E+04  0.28288372340E+04  0.00000000000E+00 0. -1.
<mgrwt>
<rscale>  0 0.38321807E+04</rscale>
<asrwt>0</asrwt>
<pdfrwt beam="1">  1        2 0.54810021E+00 0.38321807E+04</pdfrwt>
<pdfrwt beam="2">  1       -2 0.15854235E+00 0.38321807E+04</pdfrwt>
<totfact> 0.15133262E-01</totfact>
</mgrwt>
</event>
<event>
 6    1  0.1773638E-005  0.9757204E+03  0.7818608E-02  0.9335583E-01
          2   -1    0    0  501    0  0.00000000000E+00  0.00000000000E+00  0.94048119746E+03  0.94048119746E+03  0.00000000000E+00 0. -1.
         -2   -1    0    0    0  501 -0.00000000000E+00 -0.00000000000E+00 -0.25306999988E+03  0.25306999988E+03  0.00000000000E+00 0.  1.
         23    2    1    2    0    0 -0.64492141497E+01  0.43215468838E+03  0.61212788504E+03  0.75484076415E+03  0.91020681873E+02 0.  0.
         13    1    3    3    0    0 -0.16839034382E+02  0.17025841847E+03  0.31628079991E+03  0.35959008125E+03  0.00000000000E+00 0. -1.
        -13    1    3    3    0    0  0.10389820232E+02  0.26189626990E+03  0.29584708512E+03  0.39525068290E+03  0.00000000000E+00 0.  1.
         22    1    1    2    0    0  0.64492141497E+01 -0.43215468838E+03  0.75283312546E+02  0.43871043320E+03  0.00000000000E+00 0.  1.
<mgrwt>
<rscale>  0 0.97572040E+03</rscale>
<asrwt>0</asrwt>
<pdfrwt beam="1">  1        2 0.14468941E+00 0.97572040E+03</pdfrwt>
<pdfrwt beam="2">  1       -2 0.38933847E-01 0.97572040E+03</pdfrwt>
<totfact> 0.17152236E+02</totfact>
</mgrwt>
</event>
<event>
 6    1  0.1773638E-005  0.5479665E+03  0.7818608E-02  0.1001966E+00
          2   -1    0    0  501    0  0.00000000000E+00  0.00000000000E+00  0.11200504521E+03  0.11200504521E+03  0.00000000000E+00 0. -1.
         -2   -1    0    0    0  501 -0.00000000000E+00 -0.00000000000E+00 -0.67020935187E+03  0.67020935187E+03  0.00000000000E+00 0.  1.
         23    2    1    2    0    0  0.85843296064E+02 -0.14887323592E+03  0.20207668736E+01  0.19622425649E+03  0.94697220038E+02 0.  0.
         13    1    3    3    0    0 -0.69701721969E+01 -0.43428591519E+02  0.29668925144E+02  0.53055357703E+02  0.00000000000E+00 0. -1.
        -13    1    3    3    0    0  0.92813468261E+02 -0.10544464440E+03 -0.27648158271E+02  0.14316889879E+03  0.00000000000E+00 0.  1.
         22    1    1    2    0    0 -0.85843296064E+02  0.14887323592E+03 -0.56022507353E+03  0.58599014059E+03  0.00000000000E+00 0.  1.
<mgrwt>
<rscale>  0 0.54796653E+03</rscale>
<asrwt>0</asrwt>
<pdfrwt beam="1">  1        2 0.17231546E-01 0.54796653E+03</pdfrwt>
<pdfrwt beam="2">  1       -2 0.10310913E+00 0.54796653E+03</pdfrwt>
<totfact> 0.26366907E+02</totfact>
</mgrwt>
</event>
<event>
 6    1  0.1773638E-005  0.1512241E+04  0.7818608E-02  0.8876353E-01
          2   -1    0    0  501    0  0.00000000000E+00  0.00000000000E+00  0.99490214785E+03  0.99490214785E+03  0.00000000000E+00 0.  1.
         -2   -1    0    0    0  501 -0.00000000000E+00 -0.00000000000E+00 -0.57464770032E+03  0.57464770032E+03  0.00000000000E+00 0. -1.
         23    2    1    2    0    0  0.34605059512E+03 -0.51622247892E+03  0.65542672579E+03  0.90506308187E+03  0.57604922984E+02 0.  0.
         13    1    3    3    0    0  0.19378588458E+03 -0.30406005308E+03  0.41912815236E+03  0.55287782831E+03  0.00000000000E+00 0.  1.
        -13    1    3    3    0    0  0.15226471054E+03 -0.21216242584E+03  0.23629857344E+03  0.35218525356E+03  0.00000000000E+00 0. -1.
         22    1    1    2    0    0 -0.34605059512E+03  0.51622247892E+03 -0.23517227826E+03  0.66448676630E+03  0.00000000000E+00 0. -1.
<mgrwt>
<rscale>  0 0.15122410E+04</rscale>
<asrwt>0</asrwt>
<pdfrwt beam="1">  1        2 0.15306187E+00 0.15122410E+04</pdfrwt>
<pdfrwt beam="2">  1       -2 0.88407338E-01 0.15122410E+04</pdfrwt>
<totfact> 0.26985311E+01</totfact>
</mgrwt>
</event>
<event>
 6    1  0.1773638E-005  0.1108819E+04  0.7818608E-02  0.9196639E-01
         -1   -1    0    0    0  501 -0.00000000000E+00  0.00000000000E+00  0.18418405520E+03  0.18418405520E+03  0.00000000000E+00 0.  1.
          1   -1    0    0  501    0  0.00000000000E+00 -0.00000000000E+00 -0.16688192903E+04  0.16688192903E+04  0.00000000000E+00 0. -1.
         23    2    1    2    0    0 -0.25112828560E+03 -0.35999478706E+03 -0.13029226170E+04  0.13779442564E+04  0.91985679948E+02 0.  0.
         13    1    3    3    0    0 -0.42639020691E+02 -0.91316546403E+02 -0.41658729336E+03  0.42860444552E+03  0.00000000000E+00 0.  1.
        -13    1    3    3    0    0 -0.20848926491E+03 -0.26867824065E+03 -0.88633532367E+03  0.94933981091E+03  0.00000000000E+00 0. -1.
         22    1    1    2    0    0  0.25112828560E+03  0.35999478706E+03 -0.18171261806E+03  0.47505908906E+03  0.00000000000E+00 0.  1.
<mgrwt>
<rscale>  0 0.11088190E+04</rscale>
<asrwt>0</asrwt>
<pdfrwt beam="1">  1        1 0.25674143E+00 0.11088190E+04</pdfrwt>
<pdfrwt beam="2">  1       -1 0.28336008E-01 0.11088190E+04</pdfrwt>
<totfact> 0.56241037E+01</totfact>
</mgrwt>
</event>
<event>
 6    1  0.1773638E-005  0.3762483E+04  0.7818608E-02  0.8054254E-01
         -2   -1    0    0    0  501 -0.00000000000E+00  0.00000000000E+00  0.20308953539E+04  0.20308953539E+04  0.00000000000E+00 0. -1.
          2   -1    0    0  501    0  0.00000000000E+00 -0.00000000000E+00 -0.17426153346E+04  0.17426153346E+04  0.00000000000E+00 0.  1.
         23    2    1    2    0    0  0.18379761120E+04  0.11161585864E+03  0.52493324693E+03  0.19170034737E+04  0.93451144154E+02 0.  0.
         13    1    3    3    0    0  0.17422188972E+03 -0.12937773126E+02  0.35324613435E+02  0.17823714861E+03  0.00000000000E+00 0. -1.
        -13    1    3    3    0    0  0.16637542223E+04  0.12455363176E+03  0.48960863349E+03  0.17387663251E+04  0.00000000000E+00 0.  1.
         22    1    1    2    0    0 -0.18379761120E+04 -0.11161585864E+03 -0.23665322761E+03  0.18565072147E+04  0.00000000000E+00 0.  1.
<mgrwt>
<rscale>  0 0.37624829E+04</rscale>
<asrwt>0</asrwt>
<pdfrwt beam="1">  1        2 0.26809467E+00 0.37624829E+04</pdfrwt>
<pdfrwt beam="2">  1       -2 0.31244544E+00 0.37624829E+04</pdfrwt>
<totfact> 0.19905742E-01</totfact>
</mgrwt>
</event>
<event>
 6    1  0.1773638E-005  0.6162444E+03  0.7818608E-02  0.9872266E-01
          1   -1    0    0  501    0  0.00000000000E+00  0.00000000000E+00  0.90442228056E+03  0.90442228056E+03  0.00000000000E+00 0. -1.
         -1   -1    0    0    0  501 -0.00000000000E+00 -0.00000000000E+00 -0.10497228997E+03  0.10497228997E+03  0.00000000000E+00 0.  1.
         23    2    1    2    0    0  0.13698352268E+03 -0.94222396039E+02 -0.28317837746E+01  0.19006655875E+03  0.92059395792E+02 0.  0.
         11    1    3    3    0    0  0.18698770050E+02  0.17978443635E+02 -0.73777704284E+01  0.26968498910E+02  0.00000000000E+00 0. -1.
        -11    1    3    3    0    0  0.11828475263E+03 -0.11220083967E+03  0.45459866538E+01  0.16309805984E+03  0.00000000000E+00 0.  1.
         22    1    1    2    0    0 -0.13698352268E+03  0.94222396039E+02  0.80228177437E+03  0.81932801178E+03  0.00000000000E+00 0. -1.
<mgrwt>
<rscale>  0 0.61624436E+03</rscale>
<asrwt>0</asrwt>
<pdfrwt beam="1">  1        1 0.13914188E+00 0.61624436E+03</pdfrwt>
<pdfrwt beam="2">  1       -1 0.16149584E-01 0.61624436E+03</pdfrwt>
<totfact> 0.53274297E+02</totfact>
</mgrwt>
</event>
<event>
 6    1  0.1773638E-005  0.1639536E+04  0.7818608E-02  0.8796621E-01
          1   -1    0    0  501    0  0.00000000000E+00  0.00000000000E+00  0.11516709830E+04  0.11516709830E+04  0.00000000000E+00 0. -1.
         -1   -1    0    0    0  501 -0.00000000000E+00 -0.00000000000E+00 -0.58351673856E+03  0.58351673856E+03  0.00000000000E+00 0.  1.
         23    2    1    2    0    0 -0.99061566313E+02 -0.72646572993E+03 -0.97068297405E+02  0.74519444842E+03  0.91251635108E+02 0.  0.
         11    1    3    3    0    0 -0.11282509484E+03 -0.62876014068E+03 -0.99438117068E+02  0.64649575069E+03  0.00000000000E+00 0. -1.
        -11    1    3    3    0    0  0.13763528527E+02 -0.97705589250E+02  0.23698196622E+01  0.98698697729E+02  0.00000000000E+00 0.  1.
         22    1    1    2    0    0  0.99061566313E+02  0.72646572993E+03  0.66522254182E+03  0.98999327313E+03  0.00000000000E+00 0. -1.
<mgrwt>
<rscale>  0 0.16395357E+04</rscale>
<asrwt>0</asrwt>
<pdfrwt beam="1">  1        1 0.17718015E+00 0.16395357E+04</pdfrwt>
<pdfrwt beam="2">  1       -1 0.89771806E-01 0.16395357E+04</pdfrwt>
<totfact> 0.13477616E+01</totfact>
</mgrwt>
</event>
<event>
 6    1  0.1773638E-005  0.2839440E+04  0.7818608E-02  0.8291127E-01
          1   -1    0    0  501    0  0.00000000000E+00  0.00000000000E+00  0.20189514476E+04  0.20189514476E+04  0.00000000000E+00 0. -1.
         -1   -1    0    0    0  501 -0.00000000000E+00 -0.00000000000E+00 -0.99834277024E+03  0.99834277024E+03  0.00000000000E+00 0.  1.
         23    2    1    2    0    0  0.11744713902E+04 -0.66384203929E+03  0.97568120703E+03  0.16674469016E+04  0.91411446712E+02 0.  0.
         13    1    3    3    0    0  0.64524440013E+03 -0.32780641334E+03  0.56262420666E+03  0.91670244815E+03  0.00000000000E+00 0. -1.
        -13    1    3    3    0    0  0.52922699002E+03 -0.33603562595E+03  0.41305700037E+03  0.75074445348E+03  0.00000000000E+00 0.  1.
         22    1    1    2    0    0 -0.11744713902E+04  0.66384203929E+03  0.44927470314E+02  0.13498473162E+04  0.00000000000E+00 0.  1.
<mgrwt>
<rscale>  0 0.28394405E+04</rscale>
<asrwt>0</asrwt>
<pdfrwt beam="1">  1        1 0.31060791E+00 0.28394405E+04</pdfrwt>
<pdfrwt beam="2">  1       -1 0.15359120E+00 0.28394405E+04</pdfrwt>
<totfact> 0.81664935E-01</totfact>
</mgrwt>
</event>
<event>
 6    1  0.1773638E-005  0.3418237E+04  0.7818608E-02  0.8133445E-01
          2   -1    0    0  501    0  0.00000000000E+00  0.00000000000E+00  0.96128059539E+03  0.96128059539E+03  0.00000000000E+00 0. -1.
         -2   -1    0    0    0  501 -0.00000000000E+00 -0.00000000000E+00 -0.30387448091E+04  0.30387448091E+04  0.00000000000E+00 0.  1.
         23    2    1    2    0    0 -0.10420233928E+04  0.13491922950E+03 -0.26151227661E+04  0.28197319373E+04  0.89471597610E+02 0.  0.
         13    1    3    3    0    0 -0.16368482630E+03  0.53615679676E+02 -0.40782447293E+03  0.44270550503E+03  0.00000000000E+00 0.  1.
        -13    1    3    3    0    0 -0.87833856649E+03  0.81303549821E+02 -0.22072982932E+04  0.23770264323E+04  0.00000000000E+00 0. -1.
         22    1    1    2    0    0  0.10420233928E+04 -0.13491922950E+03  0.53765855244E+03  0.11802934672E+04  0.00000000000E+00 0. -1.
<mgrwt>
<rscale>  0 0.34182372E+04</rscale>
<asrwt>0</asrwt>
<pdfrwt beam="1">  1        2 0.14788932E+00 0.34182372E+04</pdfrwt>
<pdfrwt beam="2">  1       -2 0.46749920E+00 0.34182372E+04</pdfrwt>
<totfact> 0.58703376E-02</totfact>
</mgrwt>
</event>
<event>
 6    1  0.1773638E-005  0.5166155E+04  0.7818608E-02  0.7803375E-01
         -2   -1    0    0    0  501 -0.00000000000E+00  0.00000000000E+00  0.25327040064E+04  0.25327040064E+04  0.00000000000E+00 0.  1.
          2   -1    0    0  501    0  0.00000000000E+00 -0.00000000000E+00 -0.26344525328E+04  0.26344525328E+04  0.00000000000E+00 0. -1.
         23    2    1    2    0    0  0.13649599060E+04 -0.55705491468E+03  0.20697015586E+04  0.25425382442E+04  0.86084021025E+02 0.  0.
         11    1    3    3    0    0  0.92419393463E+03 -0.36074655430E+03  0.13270008659E+04  0.16568656564E+04  0.00000000000E+00 0.  1.
        -11    1    3    3    0    0  0.44076597132E+03 -0.19630836039E+03  0.74270069274E+03  0.88567258782E+03  0.00000000000E+00 0. -1.
         22    1    1    2    0    0 -0.13649599060E+04  0.55705491468E+03 -0.21714500850E+04  0.26246182950E+04  0.00000000000E+00 0. -1.
<mgrwt>
<rscale>  0 0.51661547E+04</rscale>
<asrwt>0</asrwt>
<pdfrwt beam="1">  1        2 0.40530039E+00 0.51661547E+04</pdfrwt>
<pdfrwt beam="2">  1       -2 0.38964677E+00 0.51661547E+04</pdfrwt>
<totfact> 0.18103592E-02</totfact>
</mgrwt>
</event>
<event>
 6    1  0.1773638E-005  0.1092019E+04  0.7818608E-02  0.9213006E-01
         -2   -1    0    0    0  501 -0.00000000000E+00  0.00000000000E+00  0.14702592376E+03  0.14702592376E+03  0.00000000000E+00 0.  1.
          2   -1    0    0  501    0  0.00000000000E+00 -0.00000000000E+00 -0.20277114573E+04  0.20277114573E+04  0.00000000000E+00 0. -1.
         23    2    1    2    0    0  0.51561497638E+02  0.18142085203E+03 -0.19592693780E+04  0.19704152476E+04  0.90706332973E+02 0.  0.
         11    1    3    3    0    0  0.96298089653E+01  0.16331350330E+03 -0.15404547668E+04  0.15491174656E+04  0.00000000000E+00 0.  1.
        -11    1    3    3    0    0  0.41931688673E+02  0.18107348725E+02 -0.41881461122E+03  0.42129778206E+03  0.00000000000E+00 0. -1.
         22    1    1    2    0    0 -0.51561497638E+02 -0.18142085203E+03  0.78583844493E+02  0.20432213342E+03  0.00000000000E+00 0.  1.
<mgrwt>
<rscale>  0 0.10920186E+04</rscale>
<asrwt>0</asrwt>
<pdfrwt beam="1">  1        2 0.31195559E+00 0.10920186E+04</pdfrwt>
<pdfrwt beam="2">  1       -2 0.22619374E-01 0.10920186E+04</pdfrwt>
<totfact> 0.11033069E+02</totfact>
</mgrwt>
</event>
<event>
 6    1  0.1773638E-005  0.1048564E+04  0.7818608E-02  0.9256827E-01
         -2   -1    0    0    0  501 -0.00000000000E+00  0.00000000000E+00  0.13230848362E+04  0.13230848362E+04  0.00000000000E+00 0.  1.
          2   -1    0    0  501    0  0.00000000000E+00 -0.00000000000E+00 -0.20775072406E+03  0.20775072406E+03  0.00000000000E+00 0. -1.
         23    2    1    2    0    0  0.41464133871E+03  0.20932989534E+03  0.22000080638E+03  0.52218885639E+03  0.92381827606E+02 0.  0.
         11    1    3    3    0    0  0.24758092703E+03  0.95558671832E+02  0.16583231877E+03  0.31293471067E+03  0.00000000000E+00 0. -1.
        -11    1    3    3    0    0  0.16706041168E+03  0.11377122351E+03  0.54168487612E+02  0.20925414571E+03  0.00000000000E+00 0.  1.
         22    1    1    2    0    0 -0.41464133871E+03 -0.20932989534E+03  0.89533330577E+03  0.10086467039E+04  0.00000000000E+00 0.  1.
<mgrwt>
<rscale>  0 0.10485644E+04</rscale>
<asrwt>0</asrwt>
<pdfrwt beam="1">  1        2 0.31961651E-01 0.10485644E+04</pdfrwt>
<pdfrwt beam="2">  1       -2 0.20355151E+00 0.10485644E+04</pdfrwt>
<totfact> 0.20822070E+01</totfact>
</mgrwt>
</event>
<event>
 6    1  0.1773638E-005  0.3004173E+04  0.7818608E-02  0.8242540E-01
          2   -1    0    0  501    0  0.00000000000E+00  0.00000000000E+00  0.13151232466E+04  0.13151232466E+04  0.00000000000E+00 0.  1.
         -2   -1    0    0    0  501 -0.00000000000E+00 -0.00000000000E+00 -0.17156289778E+04  0.17156289778E+04  0.00000000000E+00 0. -1.
         23    2    1    2    0    0 -0.11150999745E+04 -0.87628281027E+03  0.29456352616E+03  0.14513723496E+04  0.91621555796E+02 0.  0.
         11    1    3    3    0    0 -0.39736645616E+03 -0.32100366634E+03  0.61886913573E+02  0.51456140971E+03  0.00000000000E+00 0.  1.
        -11    1    3    3    0    0 -0.71773351833E+03 -0.55527914393E+03  0.23267661259E+03  0.93681093987E+03  0.00000000000E+00 0. -1.
         22    1    1    2    0    0  0.11150999745E+04  0.87628281027E+03 -0.69506925736E+03  0.15793798749E+04  0.00000000000E+00 0. -1.
<mgrwt>
<rscale>  0 0.30041728E+04</rscale>
<asrwt>0</asrwt>
<pdfrwt beam="1">  1        2 0.20232665E+00 0.30041728E+04</pdfrwt>
<pdfrwt beam="2">  1       -2 0.26394292E+00 0.30041728E+04</pdfrwt>
<totfact> 0.73162201E-01</totfact>
</mgrwt>
</event>
<event>
 6    1  0.2336775E-005  0.3938487E+04  0.7818608E-02  0.8017072E-01
         -1   -1    0    0    0  501 -0.00000000000E+00  0.00000000000E+00  0.19965686597E+04  0.19965686597E+04  0.00000000000E+00 0.  1.
          1   -1    0    0  501    0  0.00000000000E+00 -0.00000000000E+00 -0.19422919892E+04  0.19422919892E+04  0.00000000000E+00 0. -1.
         23    2    1    2    0    0  0.19768589052E+03  0.18427475944E+04 -0.63547892183E+03  0.19613467590E+04  0.90825332560E+02 0.  0.
         13    1    3    3    0    0  0.73474791675E+02  0.54947606630E+03 -0.14909956901E+03  0.57406722074E+03  0.00000000000E+00 0.  1.
        -13    1    3    3    0    0  0.12421109885E+03  0.12932715281E+04 -0.48637935282E+03  0.13872795382E+04  0.00000000000E+00 0. -1.
         22    1    1    2    0    0 -0.19768589052E+03 -0.18427475944E+04  0.68975559228E+03  0.19775138899E+04  0.00000000000E+00 0. -1.
<mgrwt>
<rscale>  0 0.39384867E+04</rscale>
<asrwt>0</asrwt>
<pdfrwt beam="1">  1        1 0.29881415E+00 0.39384867E+04</pdfrwt>
<pdfrwt beam="2">  1       -1 0.30716441E+00 0.39384867E+04</pdfrwt>
<totfact> 0.76106622E-02</totfact>
</mgrwt>
</event>
<event>
 6    1  0.1773638E-005  0.9758301E+03  0.7818608E-02  0.9335459E-01
         -2   -1    0    0    0  501 -0.00000000000E+00  0.00000000000E+00  0.51603800932E+03  0.51603800932E+03  0.00000000000E+00 0.  1.
          2   -1    0    0  501    0  0.00000000000E+00 -0.00000000000E+00 -0.46132469240E+03  0.46132469240E+03  0.00000000000E+00 0. -1.
         23    2    1    2    0    0  0.44167362611E+03 -0.98033297326E+02 -0.14289487013E+03  0.48366733514E+03  0.93962906441E+02 0.  0.
         13    1    3    3    0    0  0.15091435771E+03 -0.74398228829E+02 -0.74648555384E+02  0.18407239510E+03  0.00000000000E+00 0. -1.
        -13    1    3    3    0    0  0.29075926840E+03 -0.23635068497E+02 -0.68246314746E+02  0.29959494004E+03  0.00000000000E+00 0.  1.
         22    1    1    2    0    0 -0.44167362611E+03  0.98033297326E+02  0.19760818705E+03  0.49369536657E+03  0.00000000000E+00 0.  1.
<mgrwt>
<rscale>  0 0.97583006E+03</rscale>
<asrwt>0</asrwt>
<pdfrwt beam="1">  1        2 0.70973030E-01 0.97583006E+03</pdfrwt>
<pdfrwt beam="2">  1       -2 0.79390463E-01 0.97583006E+03</pdfrwt>
<totfact> 0.95090330E+01</totfact>
</mgrwt>
</event>
<event>
 6    1  0.1773638E-005  0.2478697E+04  0.7818608E-02  0.8410614E-01
         -1   -1    0    0    0  501 -0.00000000000E+00  0.00000000000E+00  0.55728011088E+03  0.55728011088E+03  0.00000000000E+00 0.  1.
          1   -1    0    0  501    0  0.00000000000E+00 -0.00000000000E+00 -0.27562174570E+04  0.27562174570E+04  0.00000000000E+00 0. -1.
         23    2    1    2    0    0  0.89684114202E+03  0.82848255769E+03 -0.13713303768E+04  0.18384922533E+04  0.93805014034E+02 0.  0.
         11    1    3    3    0    0  0.22849708034E+03  0.24846198496E+03 -0.33208211889E+03  0.47352170740E+03  0.00000000000E+00 0.  1.
        -11    1    3    3    0    0  0.66834406168E+03  0.58002057273E+03 -0.10392482579E+04  0.13649705459E+04  0.00000000000E+00 0. -1.
         22    1    1    2    0    0 -0.89684114202E+03 -0.82848255769E+03 -0.82760696933E+03  0.14750053146E+04  0.00000000000E+00 0.  1.
<mgrwt>
<rscale>  0 0.24786974E+04</rscale>
<asrwt>0</asrwt>
<pdfrwt beam="1">  1        1 0.42403346E+00 0.24786974E+04</pdfrwt>
<pdfrwt beam="2">  1       -1 0.85735400E-01 0.24786974E+04</pdfrwt>
<totfact> 0.10706319E+00</totfact>
</mgrwt>
</event>
<event>
 6    1  0.1773638E-005  0.1131517E+04  0.7818608E-02  0.9175006E-01
         -2   -1    0    0    0  501 -0.00000000000E+00  0.00000000000E+00  0.50712992387E+03  0.50712992387E+03  0.00000000000E+00 0.  1.
          2   -1    0    0  501    0  0.00000000000E+00 -0.00000000000E+00 -0.63116510422E+03  0.63116510422E+03  0.00000000000E+00 0. -1.
         23    2    1    2    0    0 -0.51695630960E+03  0.83035362956E+02 -0.26820557992E+03  0.59522615432E+03  0.90671076746E+02 0.  0.
         11    1    3    3    0    0 -0.19081770885E+03  0.22048098112E+01 -0.13511844194E+03  0.23382312236E+03  0.00000000000E+00 0. -1.
        -11    1    3    3    0    0 -0.32613860074E+03  0.80830553145E+02 -0.13308713798E+03  0.36140303196E+03  0.00000000000E+00 0.  1.
         22    1    1    2    0    0  0.51695630960E+03 -0.83035362956E+02  0.14417039957E+03  0.54306887376E+03  0.00000000000E+00 0.  1.
<mgrwt>
<rscale>  0 0.11315171E+04</rscale>
<asrwt>0</asrwt>
<pdfrwt beam="1">  1        2 0.97102323E-01 0.11315171E+04</pdfrwt>
<pdfrwt beam="2">  1       -2 0.78019988E-01 0.11315171E+04</pdfrwt>
<totfact> 0.67604749E+01</totfact>
</mgrwt>
</event>
<event>
 6    1  0.1773638E-005  0.2748068E+04  0.7818608E-02  0.8319575E-01
          1   -1    0    0  501    0  0.00000000000E+00  0.00000000000E+00  0.24150575253E+04  0.24150575253E+04  0.00000000000E+00 0. -1.
         -1   -1    0    0    0  501 -0.00000000000E+00 -0.00000000000E+00 -0.78174910921E+03  0.78174910921E+03  0.00000000000E+00 0.  1.
         23    2    1    2    0    0 -0.68657261275E+03 -0.42540919640E+03  0.21085067796E+04  0.22597002256E+04  0.89940720376E+02 0.  0.
         11    1    3    3    0    0 -0.32243009424E+03 -0.23503572761E+03  0.11320819273E+04  0.12003384727E+04  0.00000000000E+00 0.  1.
        -11    1    3    3    0    0 -0.36414251851E+03 -0.19037346879E+03  0.97642485235E+03  0.10593617530E+04  0.00000000000E+00 0. -1.
         22    1    1    2    0    0  0.68657261275E+03  0.42540919640E+03 -0.47519836347E+03  0.93710640891E+03  0.00000000000E+00 0.  1.
<mgrwt>
<rscale>  0 0.27480677E+04</rscale>
<asrwt>0</asrwt>
<pdfrwt beam="1">  1        1 0.37154731E+00 0.27480677E+04</pdfrwt>
<pdfrwt beam="2">  1       -1 0.12026909E+00 0.27480677E+04</pdfrwt>
<totfact> 0.83014552E-01</totfact>
</mgrwt>
</event>
<event>
 6    1  0.1773638E-005  0.3503768E+04  0.7818608E-02  0.8112898E-01
          1   -1    0    0  501    0  0.00000000000E+00  0.00000000000E+00  0.21977896415E+04  0.21977896415E+04  0.00000000000E+00 0. -1.
         -1   -1    0    0    0  501 -0.00000000000E+00 -0.00000000000E+00 -0.13964470130E+04  0.13964470130E+04  0.00000000000E+00 0.  1.
         23    2    1    2    0    0 -0.43398908152E+03 -0.97491231492E+02  0.21379071535E+04  0.21856005082E+04  0.91386658712E+02 0.  0.
         13    1    3    3    0    0 -0.19188466109E+03 -0.38941397839E+02  0.72853025679E+03  0.75438219139E+03  0.00000000000E+00 0.  1.
        -13    1    3    3    0    0 -0.24210442043E+03 -0.58549833653E+02  0.14093768967E+04  0.14312183169E+04  0.00000000000E+00 0. -1.
         22    1    1    2    0    0  0.43398908152E+03  0.97491231492E+02 -0.13365645250E+04  0.14086361463E+04  0.00000000000E+00 0.  1.
<mgrwt>
<rscale>  0 0.35037676E+04</rscale>
<asrwt>0</asrwt>
<pdfrwt beam="1">  1        1 0.33812148E+00 0.35037676E+04</pdfrwt>
<pdfrwt beam="2">  1       -1 0.21483800E+00 0.35037676E+04</pdfrwt>
<totfact> 0.21256156E-01</totfact>
</mgrwt>
</event>
<event>
 6    1  0.1773638E-005  0.2068604E+04  0.7818608E-02  0.8575201E-01
         -1   -1    0    0    0  501 -0.00000000000E+00  0.00000000000E+00  0.75388193824E+03  0.75388193824E+03  0.00000000000E+00 0.  1.
          1   -1    0    0  501    0  0.00000000000E+00 -0.00000000000E+00 -0.14190293904E+04  0.14190293904E+04  0.00000000000E+00 0. -1.
         23    2    1    2    0    0 -0.17959484316E+03  0.30200118810E+02 -0.14005212964E+04  0.14153223598E+04  0.92255762962E+02 0.  0.
         11    1    3    3    0    0 -0.15371367862E+03  0.56509383606E+02 -0.10261863178E+04  0.10391725383E+04  0.00000000000E+00 0.  1.
        -11    1    3    3    0    0 -0.25881164540E+02 -0.26309264796E+02 -0.37433497854E+03  0.37614982154E+03  0.00000000000E+00 0. -1.
         22    1    1    2    0    0  0.17959484316E+03 -0.30200118810E+02  0.73537384422E+03  0.75758896879E+03  0.00000000000E+00 0.  1.
<mgrwt>
<rscale>  0 0.20686040E+04</rscale>
<asrwt>0</asrwt>
<pdfrwt beam="1">  1        1 0.21831221E+00 0.20686040E+04</pdfrwt>
<pdfrwt beam="2">  1       -1 0.11598184E+00 0.20686040E+04</pdfrwt>
<totfact> 0.46203834E+00</totfact>
</mgrwt>
</event>
<event>
 6    1  0.1773638E-005  0.3471179E+04  0.7818608E-02  0.8120654E-01
         -1   -1    0    0    0  501 -0.00000000000E+00  0.00000000000E+00  0.10405328697E+04  0.10405328697E+04  0.00000000000E+00 0.  1.
          1   -1    0    0  501    0  0.00000000000E+00 -0.00000000000E+00 -0.28949307006E+04  0.28949307006E+04  0.00000000000E+00 0. -1.
         23    2    1    2    0    0  0.52892542316E+02 -0.48197087018E+03  0.96016202715E+03  0.10794452343E+04  0.90539243625E+02 0.  0.
         13    1    3    3    0    0  0.60339685655E+02 -0.20320723726E+03  0.46804534461E+03  0.51380979316E+03  0.00000000000E+00 0.  1.
        -13    1    3    3    0    0 -0.74471433387E+01 -0.27876363292E+03  0.49211668254E+03  0.56563544109E+03  0.00000000000E+00 0. -1.
         22    1    1    2    0    0 -0.52892542316E+02  0.48197087018E+03 -0.28145598581E+04  0.28560183360E+04  0.00000000000E+00 0. -1.
<mgrwt>
<rscale>  0 0.34711788E+04</rscale>
<asrwt>0</asrwt>
<pdfrwt beam="1">  1        1 0.44537396E+00 0.34711788E+04</pdfrwt>
<pdfrwt beam="2">  1       -1 0.16008198E+00 0.34711788E+04</pdfrwt>
<totfact> 0.16992460E-01</totfact>
</mgrwt>
</event>
<event>
 6    1  0.1773638E-005  0.3476271E+04  0.7818608E-02  0.8119437E-01
          2   -1    0    0  501    0  0.00000000000E+00  0.00000000000E+00  0.22064369578E+04  0.22064369578E+04  0.00000000000E+00 0. -1.
         -2   -1    0    0    0  501 -0.00000000000E+00 -0.00000000000E+00 -0.13692278957E+04  0.13692278957E+04  0.00000000000E+00 0.  1.
         23    2    1    2    0    0 -0.17211300188E+04 -0.22352283739E+03  0.34604667781E+03  0.17719211111E+04  0.87778815593E+02 0.  0.
         13    1    3    3    0    0 -0.35542808346E+03 -0.78406114173E+02  0.88746380300E+02  0.37463657225E+03  0.00000000000E+00 0.  1.
        -13    1    3    3    0    0 -0.13657019353E+04 -0.14511672322E+03  0.25730029751E+03  0.13972845389E+04  0.00000000000E+00 0. -1.
         22    1    1    2    0    0  0.17211300188E+04  0.22352283739E+03  0.49116238435E+03  0.18037437424E+04  0.00000000000E+00 0.  1.
<mgrwt>
<rscale>  0 0.34762710E+04</rscale>
<asrwt>0</asrwt>
<pdfrwt beam="1">  1        2 0.33945184E+00 0.34762710E+04</pdfrwt>
<pdfrwt beam="2">  1       -2 0.21065044E+00 0.34762710E+04</pdfrwt>
<totfact> 0.47815677E-01</totfact>
</mgrwt>
</event>
<event>
 6    1  0.1773638E-005  0.3950595E+04  0.7818608E-02  0.8014588E-01
          1   -1    0    0  501    0  0.00000000000E+00  0.00000000000E+00  0.12706974168E+04  0.12706974168E+04  0.00000000000E+00 0. -1.
         -1   -1    0    0    0  501 -0.00000000000E+00 -0.00000000000E+00 -0.30705979077E+04  0.30705979077E+04  0.00000000000E+00 0.  1.
         23    2    1    2    0    0  0.57157162007E+03 -0.18848085971E+04 -0.10532751903E+04  0.22349603786E+04  0.80384719753E+02 0.  0.
         13    1    3    3    0    0  0.28624848436E+03 -0.91741113937E+03 -0.46922649957E+03  0.10694647733E+04  0.00000000000E+00 0. -1.
        -13    1    3    3    0    0  0.28532313571E+03 -0.96739745770E+03 -0.58404869073E+03  0.11654956053E+04  0.00000000000E+00 0.  1.
         22    1    1    2    0    0 -0.57157162007E+03  0.18848085971E+04 -0.74662530061E+03  0.21063349458E+04  0.00000000000E+00 0. -1.
<mgrwt>
<rscale>  0 0.39505953E+04</rscale>
<asrwt>0</asrwt>
<pdfrwt beam="1">  1        1 0.19549191E+00 0.39505953E+04</pdfrwt>
<pdfrwt beam="2">  1       -1 0.47239968E+00 0.39505953E+04</pdfrwt>
<totfact> 0.16962159E-02</totfact>
</mgrwt>
</event>
<event>
 6    1  0.1773638E-005  0.3146886E+04  0.7818608E-02  0.8202987E-01
          1   -1    0    0  501    0  0.00000000000E+00  0.00000000000E+00  0.20485233515E+04  0.20485233515E+04  0.00000000000E+00 0. -1.
         -1   -1    0    0    0  501 -0.00000000000E+00 -0.00000000000E+00 -0.12085400859E+04  0.12085400859E+04  0.00000000000E+00 0.  1.
         23    2    1    2    0    0 -0.14401002059E+04  0.40264744933E+03  0.92266972505E+03  0.17594484595E+04  0.91246306430E+02 0.  0.
         11    1    3    3    0    0 -0.36677655119E+03  0.88904612373E+02  0.27751088060E+03  0.46844568251E+03  0.00000000000E+00 0.  1.
        -11    1    3    3    0    0 -0.10733236547E+04  0.31374283695E+03  0.64515884445E+03  0.12910027769E+04  0.00000000000E+00 0. -1.
         22    1    1    2    0    0  0.14401002059E+04 -0.40264744933E+03 -0.82686459433E+02  0.14976149779E+04  0.00000000000E+00 0.  1.
<mgrwt>
<rscale>  0 0.31468858E+04</rscale>
<asrwt>0</asrwt>
<pdfrwt beam="1">  1        1 0.31515744E+00 0.31468858E+04</pdfrwt>
<pdfrwt beam="2">  1       -1 0.18592924E+00 0.31468858E+04</pdfrwt>
<totfact> 0.43827060E-01</totfact>
</mgrwt>
</event>
<event>
 6    1  0.1773638E-005  0.4162850E+04  0.7818608E-02  0.7972477E-01
          1   -1    0    0  501    0  0.00000000000E+00  0.00000000000E+00  0.18168749784E+04  0.18168749784E+04  0.00000000000E+00 0. -1.
         -1   -1    0    0    0  501 -0.00000000000E+00 -0.00000000000E+00 -0.23844958414E+04  0.23844958414E+04  0.00000000000E+00 0.  1.
         23    2    1    2    0    0 -0.66146091359E+03 -0.61226727085E+03 -0.21763656895E+04  0.23573367453E+04  0.89817399712E+02 0.  0.
         13    1    3    3    0    0 -0.54839750363E+03 -0.50692222383E+03 -0.17077776554E+04  0.18639244843E+04  0.00000000000E+00 0.  1.
        -13    1    3    3    0    0 -0.11306340996E+03 -0.10534504701E+03 -0.46858803412E+03  0.49341226102E+03  0.00000000000E+00 0. -1.
         22    1    1    2    0    0  0.66146091359E+03  0.61226727085E+03  0.16087448264E+04  0.18440340744E+04  0.00000000000E+00 0. -1.
<mgrwt>
<rscale>  0 0.41628504E+04</rscale>
<asrwt>0</asrwt>
<pdfrwt beam="1">  1        1 0.27951923E+00 0.41628504E+04</pdfrwt>
<pdfrwt beam="2">  1       -1 0.36684551E+00 0.41628504E+04</pdfrwt>
<totfact> 0.36748213E-02</totfact>
</mgrwt>
</event>
<event>
 6    1  0.1773638E-005  0.1753776E+04  0.7818608E-02  0.8731275E-01
          2   -1    0    0  501    0  0.00000000000E+00  0.00000000000E+00  0.14675387860E+04  0.14675387860E+04  0.00000000000E+00 0.  1.
         -2   -1    0    0    0  501 -0.00000000000E+00 -0.00000000000E+00 -0.52396054163E+03  0.52396054163E+03  0.00000000000E+00 0. -1.
         23    2    1    2    0    0  0.54578703750E+03 -0.68332431760E+03  0.45907864982E+03  0.99172161711E+03  0.89123205781E+02 0.  0.
         11    1    3    3    0    0  0.15722724792E+03 -0.25845618089E+03  0.17824778497E+03  0.35113000125E+03  0.00000000000E+00 0.  1.
        -11    1    3    3    0    0  0.38855978957E+03 -0.42486813670E+03  0.28083086484E+03  0.64059161586E+03  0.00000000000E+00 0. -1.
         22    1    1    2    0    0 -0.54578703750E+03  0.68332431760E+03  0.48449959455E+03  0.99977771051E+03  0.00000000000E+00 0.  1.
<mgrwt>
<rscale>  0 0.17537758E+04</rscale>
<asrwt>0</asrwt>
<pdfrwt beam="1">  1        2 0.22577520E+00 0.17537758E+04</pdfrwt>
<pdfrwt beam="2">  1       -2 0.80609315E-01 0.17537758E+04</pdfrwt>
<totfact> 0.17051142E+01</totfact>
</mgrwt>
</event>
<event>
 6    1  0.1773638E-005  0.3440946E+04  0.7818608E-02  0.8127929E-01
         -2   -1    0    0    0  501 -0.00000000000E+00  0.00000000000E+00  0.13788449674E+04  0.13788449674E+04  0.00000000000E+00 0. -1.
          2   -1    0    0  501    0  0.00000000000E+00 -0.00000000000E+00 -0.21467443675E+04  0.21467443675E+04  0.00000000000E+00 0.  1.
         23    2    1    2    0    0 -0.16951043615E+04  0.21305618131E+03 -0.18620244961E+03  0.17208336520E+04  0.88461137600E+02 0.  0.
         13    1    3    3    0    0 -0.83128698981E+03  0.60117791101E+02 -0.94905751865E+02  0.83884403197E+03  0.00000000000E+00 0. -1.
        -13    1    3    3    0    0 -0.86381737171E+03  0.15293839021E+03 -0.91296697740E+02  0.88198962006E+03  0.00000000000E+00 0.  1.
         22    1    1    2    0    0  0.16951043615E+04 -0.21305618131E+03 -0.58169695050E+03  0.18047556829E+04  0.00000000000E+00 0.  1.
<mgrwt>
<rscale>  0 0.34409462E+04</rscale>
<asrwt>0</asrwt>
<pdfrwt beam="1">  1        2 0.33026837E+00 0.34409462E+04</pdfrwt>
<pdfrwt beam="2">  1       -2 0.21212999E+00 0.34409462E+04</pdfrwt>
<totfact> 0.50682416E-01</totfact>
</mgrwt>
</event>
<event>
 6    1  0.1773638E-005  0.1986990E+04  0.7818608E-02  0.8612727E-01
          2   -1    0    0  501    0  0.00000000000E+00  0.00000000000E+00  0.18870005034E+04  0.18870005034E+04  0.00000000000E+00 0. -1.
         -2   -1    0    0    0  501 -0.00000000000E+00 -0.00000000000E+00 -0.52306950568E+03  0.52306950568E+03  0.00000000000E+00 0.  1.
         23    2    1    2    0    0  0.13540933390E+03  0.95202562307E+03  0.97536434104E+03  0.13729236735E+04  0.94315114271E+02 0.  0.
         13    1    3    3    0    0  0.75833847607E+02  0.39894289921E+03  0.47267409862E+03  0.62315889850E+03  0.00000000000E+00 0.  1.
        -13    1    3    3    0    0  0.59575486291E+02  0.55308272386E+03  0.50269024242E+03  0.74976477500E+03  0.00000000000E+00 0. -1.
         22    1    1    2    0    0 -0.13540933390E+03 -0.95202562307E+03  0.38856665666E+03  0.10371463356E+04  0.00000000000E+00 0.  1.
<mgrwt>
<rscale>  0 0.19869901E+04</rscale>
<asrwt>0</asrwt>
<pdfrwt beam="1">  1        2 0.29030777E+00 0.19869901E+04</pdfrwt>
<pdfrwt beam="2">  1       -2 0.80472233E-01 0.19869901E+04</pdfrwt>
<totfact> 0.97941025E+00</totfact>
</mgrwt>
</event>
<event>
 6    1  0.1773638E-005  0.3931177E+04  0.7818608E-02  0.8018576E-01
         -2   -1    0    0    0  501 -0.00000000000E+00  0.00000000000E+00  0.14931366052E+04  0.14931366052E+04  0.00000000000E+00 0.  1.
          2   -1    0    0  501    0  0.00000000000E+00 -0.00000000000E+00 -0.25875317632E+04  0.25875317632E+04  0.00000000000E+00 0. -1.
         23    2    1    2    0    0  0.11979820858E+04  0.58024476499E+03  0.95231525931E+03  0.16391793560E+04  0.90330188231E+02 0.  0.
         13    1    3    3    0    0  0.25305736870E+03  0.10785929083E+03  0.23978560190E+03  0.36492299647E+03  0.00000000000E+00 0.  1.
        -13    1    3    3    0    0  0.94492471712E+03  0.47238547416E+03  0.71252965741E+03  0.12742563596E+04  0.00000000000E+00 0. -1.
         22    1    1    2    0    0 -0.11979820858E+04 -0.58024476499E+03 -0.20467104173E+04  0.24414890124E+04  0.00000000000E+00 0. -1.
<mgrwt>
<rscale>  0 0.39311771E+04</rscale>
<asrwt>0</asrwt>
<pdfrwt beam="1">  1        2 0.39808180E+00 0.39311771E+04</pdfrwt>
<pdfrwt beam="2">  1       -2 0.22971333E+00 0.39311771E+04</pdfrwt>
<totfact> 0.21076813E-01</totfact>
</mgrwt>
</event>
<event>
 6    1  0.1773638E-005  0.4847000E+04  0.7818608E-02  0.7852552E-01
          1   -1    0    0  501    0  0.00000000000E+00  0.00000000000E+00  0.21278320684E+04  0.21278320684E+04  0.00000000000E+00 0. -1.
         -1   -1    0    0    0  501 -0.00000000000E+00 -0.00000000000E+00 -0.27602514925E+04  0.27602514925E+04  0.00000000000E+00 0.  1.
         23    2    1    2    0    0  0.13485624757E+04 -0.10095249051E+04  0.14398485245E+04  0.22174926645E+04  0.79678468076E+02 0.  0.
         13    1    3    3    0    0  0.55076140134E+02 -0.61150186724E+02  0.62326359714E+02  0.10323420782E+03  0.00000000000E+00 0.  1.
        -13    1    3    3    0    0  0.12934863356E+04 -0.94837471841E+03  0.13775221648E+04  0.21142584566E+04  0.00000000000E+00 0. -1.
         22    1    1    2    0    0 -0.13485624757E+04  0.10095249051E+04 -0.20722679487E+04  0.26705908964E+04  0.00000000000E+00 0.  1.
<mgrwt>
<rscale>  0 0.48469997E+04</rscale>
<asrwt>0</asrwt>
<pdfrwt beam="1">  1        1 0.32735878E+00 0.48469997E+04</pdfrwt>
<pdfrwt beam="2">  1       -1 0.42465407E+00 0.48469997E+04</pdfrwt>
<totfact> 0.86399118E-03</totfact>
</mgrwt>
</event>
<event>
 6    1  0.1773638E-005  0.1592786E+04  0.7818608E-02  0.8824992E-01
         -2   -1    0    0    0  501 -0.00000000000E+00  0.00000000000E+00  0.77332641998E+03  0.77332641998E+03  0.00000000000E+00 0. -1.
          2   -1    0    0  501    0  0.00000000000E+00 -0.00000000000E+00 -0.82014732722E+03  0.82014732722E+03  0.00000000000E+00 0.  1.
         23    2    1    2    0    0  0.34543379195E+03 -0.65263990088E+03  0.26698504205E+03  0.79114119854E+03  0.96747291999E+02 0.  0.
         11    1    3    3    0    0  0.29709057050E+03 -0.54549357695E+03  0.26005265809E+03  0.67338951176E+03  0.00000000000E+00 0. -1.
        -11    1    3    3    0    0  0.48343221452E+02 -0.10714632393E+03  0.69323839636E+01  0.11775168678E+03  0.00000000000E+00 0.  1.
         22    1    1    2    0    0 -0.34543379195E+03  0.65263990088E+03 -0.31380594929E+03  0.80233254866E+03  0.00000000000E+00 0. -1.
<mgrwt>
<rscale>  0 0.15927857E+04</rscale>
<asrwt>0</asrwt>
<pdfrwt beam="1">  1        2 0.12617651E+00 0.15927857E+04</pdfrwt>
<pdfrwt beam="2">  1       -2 0.11897330E+00 0.15927857E+04</pdfrwt>
<totfact> 0.17339958E+01</totfact>
</mgrwt>
</event>
<event>
 6    1  0.1773638E-005  0.3185543E+04  0.7818608E-02  0.8192646E-01
         -2   -1    0    0    0  501 -0.00000000000E+00  0.00000000000E+00  0.23430809984E+04  0.23430809984E+04  0.00000000000E+00 0.  1.
          2   -1    0    0  501    0  0.00000000000E+00 -0.00000000000E+00 -0.10827287500E+04  0.10827287500E+04  0.00000000000E+00 0. -1.
         23    2    1    2    0    0  0.10076681001E+04  0.98286655608E+03  0.14292988075E+04  0.20080775428E+04  0.89770094401E+02 0.  0.
         11    1    3    3    0    0  0.46661510884E+03  0.39526353514E+03  0.63678465567E+03  0.88286897085E+03  0.00000000000E+00 0. -1.
        -11    1    3    3    0    0  0.54105299126E+03  0.58760302095E+03  0.79251415182E+03  0.11252085720E+04  0.00000000000E+00 0.  1.
         22    1    1    2    0    0 -0.10076681001E+04 -0.98286655608E+03 -0.16894655905E+03  0.14177322056E+04  0.00000000000E+00 0. -1.
<mgrwt>
<rscale>  0 0.31855431E+04</rscale>
<asrwt>0</asrwt>
<pdfrwt beam="1">  1        2 0.16657365E+00 0.31855431E+04</pdfrwt>
<pdfrwt beam="2">  1       -2 0.36047400E+00 0.31855431E+04</pdfrwt>
<totfact> 0.25128703E-01</totfact>
</mgrwt>
</event>
<event>
 6    1  0.1773638E-005  0.1474520E+04  0.7818608E-02  0.8901576E-01
          4   -1    0    0  501    0  0.00000000000E+00  0.00000000000E+00  0.18909189112E+04  0.18909189112E+04  0.00000000000E+00 0. -1.
         -4   -1    0    0    0  501 -0.00000000000E+00 -0.00000000000E+00 -0.28745406033E+03  0.28745406033E+03  0.00000000000E+00 0.  1.
         23    2    1    2    0    0 -0.24091353652E+03  0.60866408464E+03  0.31313107419E+03  0.73148923216E+03  0.92272027961E+02 0.  0.
         11    1    3    3    0    0 -0.37300453475E+02  0.19816714497E+03  0.75514941201E+02  0.21532312352E+03  0.00000000000E+00 0.  1.
        -11    1    3    3    0    0 -0.20361308304E+03  0.41049693966E+03  0.23761613299E+03  0.51616610864E+03  0.00000000000E+00 0. -1.
         22    1    1    2    0    0  0.24091353652E+03 -0.60866408464E+03  0.12903337767E+04  0.14468837394E+04  0.00000000000E+00 0. -1.
<mgrwt>
<rscale>  0 0.14745200E+04</rscale>
<asrwt>0</asrwt>
<pdfrwt beam="1">  1        4 0.29091059E+00 0.14745200E+04</pdfrwt>
<pdfrwt beam="2">  1       -4 0.44223703E-01 0.14745200E+04</pdfrwt>
<totfact> 0.34090247E-01</totfact>
</mgrwt>
</event>
<event>
 6    1  0.1773638E-005  0.4202124E+04  0.7818608E-02  0.7964968E-01
         -1   -1    0    0    0  501 -0.00000000000E+00  0.00000000000E+00  0.11285359811E+04  0.11285359811E+04  0.00000000000E+00 0.  1.
          1   -1    0    0  501    0  0.00000000000E+00 -0.00000000000E+00 -0.39116707512E+04  0.39116707512E+04  0.00000000000E+00 0. -1.
         23    2    1    2    0    0 -0.97578239814E+03 -0.12366741720E+04 -0.30579713975E+04  0.34411290394E+04  0.93089751729E+02 0.  0.
         13    1    3    3    0    0 -0.47334633195E+03 -0.52803462769E+03 -0.13466328173E+04  0.15219386527E+04  0.00000000000E+00 0.  1.
        -13    1    3    3    0    0 -0.50243606619E+03 -0.70863954433E+03 -0.17113385802E+04  0.19191903867E+04  0.00000000000E+00 0. -1.
         22    1    1    2    0    0  0.97578239814E+03  0.12366741720E+04  0.27483662737E+03  0.15990776929E+04  0.00000000000E+00 0.  1.
<mgrwt>
<rscale>  0 0.42021238E+04</rscale>
<asrwt>0</asrwt>
<pdfrwt beam="1">  1        1 0.60179550E+00 0.42021238E+04</pdfrwt>
<pdfrwt beam="2">  1       -1 0.17362092E+00 0.42021238E+04</pdfrwt>
<totfact> 0.20352318E-02</totfact>
</mgrwt>
</event>
<event>
 6    1  0.1773638E-005  0.3275933E+04  0.7818608E-02  0.8169046E-01
          2   -1    0    0  501    0  0.00000000000E+00  0.00000000000E+00  0.19489772018E+04  0.19489772018E+04  0.00000000000E+00 0. -1.
         -2   -1    0    0    0  501 -0.00000000000E+00 -0.00000000000E+00 -0.13765859211E+04  0.13765859211E+04  0.00000000000E+00 0.  1.
         23    2    1    2    0    0  0.11574116113E+04 -0.26347201060E+03 -0.85747385938E+03  0.14671946295E+04  0.91539734074E+02 0.  0.
         11    1    3    3    0    0  0.90774294943E+03 -0.17202285578E+03 -0.64375099198E+03  0.11260570433E+04  0.00000000000E+00 0. -1.
        -11    1    3    3    0    0  0.24966866188E+03 -0.91449154823E+02 -0.21372286740E+03  0.34113758617E+03  0.00000000000E+00 0.  1.
         22    1    1    2    0    0 -0.11574116113E+04  0.26347201060E+03  0.14298651401E+04  0.18583684934E+04  0.00000000000E+00 0. -1.
<mgrwt>
<rscale>  0 0.32759332E+04</rscale>
<asrwt>0</asrwt>
<pdfrwt beam="1">  1        2 0.29984265E+00 0.32759332E+04</pdfrwt>
<pdfrwt beam="2">  1       -2 0.21178245E+00 0.32759332E+04</pdfrwt>
<totfact> 0.66570199E-01</totfact>
</mgrwt>
</event>
<event>
 6    1  0.1773638E-005  0.6992882E+03  0.7818608E-02  0.9718450E-01
          2   -1    0    0  501    0  0.00000000000E+00  0.00000000000E+00  0.74234999958E+03  0.74234999958E+03  0.00000000000E+00 0. -1.
         -2   -1    0    0    0  501 -0.00000000000E+00 -0.00000000000E+00 -0.16468108634E+03  0.16468108634E+03  0.00000000000E+00 0.  1.
         23    2    1    2    0    0 -0.30030402392E+03 -0.13121654861E+03  0.42658438032E+03  0.54616154508E+03  0.94434688424E+02 0.  0.
         11    1    3    3    0    0 -0.64322132108E+02 -0.19071642803E+02  0.15704128161E+03  0.17077186058E+03  0.00000000000E+00 0. -1.
        -11    1    3    3    0    0 -0.23598189182E+03 -0.11214490581E+03  0.26954309871E+03  0.37538968450E+03  0.00000000000E+00 0.  1.
         22    1    1    2    0    0  0.30030402392E+03  0.13121654861E+03  0.15108453292E+03  0.36086954083E+03  0.00000000000E+00 0.  1.
<mgrwt>
<rscale>  0 0.69928822E+03</rscale>
<asrwt>0</asrwt>
<pdfrwt beam="1">  1        2 0.11420769E+00 0.69928822E+03</pdfrwt>
<pdfrwt beam="2">  1       -2 0.25335552E-01 0.69928822E+03</pdfrwt>
<totfact> 0.53481718E+02</totfact>
</mgrwt>
</event>
<event>
 6    1  0.1773638E-005  0.1635290E+04  0.7818608E-02  0.8799156E-01
          2   -1    0    0  501    0  0.00000000000E+00  0.00000000000E+00  0.20453765175E+04  0.20453765175E+04  0.00000000000E+00 0. -1.
         -2   -1    0    0    0  501 -0.00000000000E+00 -0.00000000000E+00 -0.32685595866E+03  0.32685595866E+03  0.00000000000E+00 0.  1.
         23    2    1    2    0    0  0.40503652381E+03 -0.60897857719E+03  0.33994661381E+03  0.81166347256E+03  0.91238146357E+02 0.  0.
         13    1    3    3    0    0  0.95000550254E+02 -0.10071381080E+03  0.94856415414E+02  0.16782763711E+03  0.00000000000E+00 0. -1.
        -13    1    3    3    0    0  0.31003597356E+03 -0.50826476639E+03  0.24509019839E+03  0.64383583545E+03  0.00000000000E+00 0.  1.
         22    1    1    2    0    0 -0.40503652381E+03  0.60897857719E+03  0.13785739451E+04  0.15605690036E+04  0.00000000000E+00 0. -1.
<mgrwt>
<rscale>  0 0.16352902E+04</rscale>
<asrwt>0</asrwt>
<pdfrwt beam="1">  1        2 0.31467330E+00 0.16352902E+04</pdfrwt>
<pdfrwt beam="2">  1       -2 0.50285533E-01 0.16352902E+04</pdfrwt>
<totfact> 0.22554316E+01</totfact>
</mgrwt>
</event>
<event>
 6    1  0.1773638E-005  0.4271749E+04  0.7818608E-02  0.7951863E-01
         -2   -1    0    0    0  501 -0.00000000000E+00  0.00000000000E+00  0.14420497864E+04  0.14420497864E+04  0.00000000000E+00 0.  1.
          2   -1    0    0  501    0  0.00000000000E+00 -0.00000000000E+00 -0.31635239905E+04  0.31635239905E+04  0.00000000000E+00 0. -1.
         23    2    1    2    0    0  0.10473332063E+04 -0.16260966265E+04  0.11306729214E+03  0.19397456532E+04  0.93444652686E+02 0.  0.
         13    1    3    3    0    0  0.67411806611E+02 -0.11670375736E+03  0.30971532027E+02  0.13828721723E+03  0.00000000000E+00 0.  1.
        -13    1    3    3    0    0  0.97992139965E+03 -0.15093928691E+04  0.82095760113E+02  0.18014584360E+04  0.00000000000E+00 0. -1.
         22    1    1    2    0    0 -0.10473332063E+04  0.16260966265E+04 -0.18345414962E+04  0.26658281237E+04  0.00000000000E+00 0. -1.
<mgrwt>
<rscale>  0 0.42717486E+04</rscale>
<asrwt>0</asrwt>
<pdfrwt beam="1">  1        2 0.48669600E+00 0.42717486E+04</pdfrwt>
<pdfrwt beam="2">  1       -2 0.22185381E+00 0.42717486E+04</pdfrwt>
<totfact> 0.10159546E-01</totfact>
</mgrwt>
</event>
<event>
 6    1  0.1773638E-005  0.5556220E+03  0.7818608E-02  0.1000201E+00
         -1   -1    0    0    0  501 -0.00000000000E+00  0.00000000000E+00  0.14318072709E+03  0.14318072709E+03  0.00000000000E+00 0.  1.
          1   -1    0    0  501    0  0.00000000000E+00 -0.00000000000E+00 -0.53903170672E+03  0.53903170672E+03  0.00000000000E+00 0. -1.
         23    2    1    2    0    0  0.28169429352E+02  0.18497340436E+03  0.36437012488E+02  0.21116935171E+03  0.90863425831E+02 0.  0.
         11    1    3    3    0    0  0.37555532447E+02  0.32165943636E+02  0.30213239041E+02  0.57947439639E+02  0.00000000000E+00 0.  1.
        -11    1    3    3    0    0 -0.93861030946E+01  0.15280746072E+03  0.62237734471E+01  0.15322191207E+03  0.00000000000E+00 0. -1.
         22    1    1    2    0    0 -0.28169429352E+02 -0.18497340436E+03 -0.43228799211E+03  0.47104308210E+03  0.00000000000E+00 0. -1.
<mgrwt>
<rscale>  0 0.55562200E+03</rscale>
<asrwt>0</asrwt>
<pdfrwt beam="1">  1        1 0.82927954E-01 0.55562200E+03</pdfrwt>
<pdfrwt beam="2">  1       -1 0.22027804E-01 0.55562200E+03</pdfrwt>
<totfact> 0.69910718E+02</totfact>
</mgrwt>
</event>
<event>
 6    1  0.1773638E-005  0.2957538E+04  0.7818608E-02  0.8255961E-01
          2   -1    0    0  501    0  0.00000000000E+00  0.00000000000E+00  0.31851402112E+04  0.31851402112E+04  0.00000000000E+00 0. -1.
         -2   -1    0    0    0  501 -0.00000000000E+00 -0.00000000000E+00 -0.68655013661E+03  0.68655013661E+03  0.00000000000E+00 0.  1.
         23    2    1    2    0    0 -0.82074616210E+03 -0.12137901569E+04  0.14977077189E+04  0.20972393630E+04  0.91508069740E+02 0.  0.
         13    1    3    3    0    0 -0.56449644793E+03 -0.77785874787E+03  0.10231734028E+04  0.14037821354E+04  0.00000000000E+00 0. -1.
        -13    1    3    3    0    0 -0.25624971418E+03 -0.43593140902E+03  0.47453431609E+03  0.69345722762E+03  0.00000000000E+00 0.  1.
         22    1    1    2    0    0  0.82074616210E+03  0.12137901569E+04  0.10008823556E+04  0.17744509848E+04  0.00000000000E+00 0.  1.
<mgrwt>
<rscale>  0 0.29575385E+04</rscale>
<asrwt>0</asrwt>
<pdfrwt beam="1">  1        2 0.49002156E+00 0.29575385E+04</pdfrwt>
<pdfrwt beam="2">  1       -2 0.10562310E+00 0.29575385E+04</pdfrwt>
<totfact> 0.82493672E-01</totfact>
</mgrwt>
</event>
<event>
 6    1  0.1773638E-005  0.2954664E+04  0.7818608E-02  0.8256797E-01
         -2   -1    0    0    0  501 -0.00000000000E+00  0.00000000000E+00  0.91365554274E+03  0.91365554274E+03  0.00000000000E+00 0.  1.
          2   -1    0    0  501    0  0.00000000000E+00 -0.00000000000E+00 -0.23887667329E+04  0.23887667329E+04  0.00000000000E+00 0. -1.
         23    2    1    2    0    0  0.44948533589E+03  0.13708251553E+04 -0.38999054289E+03  0.14972393229E+04  0.91838407419E+02 0.  0.
         11    1    3    3    0    0  0.18940321267E+03  0.67667584086E+03 -0.22499342367E+03  0.73782505465E+03  0.00000000000E+00 0. -1.
        -11    1    3    3    0    0  0.26008212323E+03  0.69414931443E+03 -0.16499711922E+03  0.75941426830E+03  0.00000000000E+00 0.  1.
         22    1    1    2    0    0 -0.44948533589E+03 -0.13708251553E+04 -0.10851206473E+04  0.18051829527E+04  0.00000000000E+00 0.  1.
<mgrwt>
<rscale>  0 0.29546641E+04</rscale>
<asrwt>0</asrwt>
<pdfrwt beam="1">  1        2 0.36750256E+00 0.29546641E+04</pdfrwt>
<pdfrwt beam="2">  1       -2 0.14056240E+00 0.29546641E+04</pdfrwt>
<totfact> 0.12320342E+00</totfact>
</mgrwt>
</event>
<event>
 6    1  0.1773638E-005  0.3201960E+04  0.7818608E-02  0.8188300E-01
          1   -1    0    0  501    0  0.00000000000E+00  0.00000000000E+00  0.15093221398E+04  0.15093221398E+04  0.00000000000E+00 0. -1.
         -1   -1    0    0    0  501 -0.00000000000E+00 -0.00000000000E+00 -0.16982038176E+04  0.16982038176E+04  0.00000000000E+00 0.  1.
         23    2    1    2    0    0  0.63799111453E+03  0.13245436099E+04  0.53703402791E+03  0.15678912273E+04  0.91809132177E+02 0.  0.
         13    1    3    3    0    0  0.37686009446E+03  0.78954774823E+03  0.36723571875E+03  0.94882624893E+03  0.00000000000E+00 0. -1.
        -13    1    3    3    0    0  0.26113102008E+03  0.53499586163E+03  0.16979830916E+03  0.61906497833E+03  0.00000000000E+00 0.  1.
         22    1    1    2    0    0 -0.63799111453E+03 -0.13245436099E+04 -0.72591570574E+03  0.16396347302E+04  0.00000000000E+00 0. -1.
<mgrwt>
<rscale>  0 0.32019598E+04</rscale>
<asrwt>0</asrwt>
<pdfrwt beam="1">  1        1 0.23220341E+00 0.32019598E+04</pdfrwt>
<pdfrwt beam="2">  1       -1 0.26126213E+00 0.32019598E+04</pdfrwt>
<totfact> 0.31742718E-01</totfact>
</mgrwt>
</event>
<event>
 6    1  0.1773638E-005  0.1342965E+04  0.7818608E-02  0.8996171E-01
          1   -1    0    0  501    0  0.00000000000E+00  0.00000000000E+00  0.17990095967E+04  0.17990095967E+04  0.00000000000E+00 0. -1.
         -1   -1    0    0    0  501 -0.00000000000E+00 -0.00000000000E+00 -0.25063155051E+03  0.25063155051E+03  0.00000000000E+00 0.  1.
         23    2    1    2    0    0 -0.19074501842E+03  0.54453972489E+03  0.26069027535E+03  0.63859650966E+03  0.83300110730E+02 0.  0.
         13    1    3    3    0    0 -0.88163593921E+02  0.37135978371E+03  0.17062253041E+03  0.41808247527E+03  0.00000000000E+00 0. -1.
        -13    1    3    3    0    0 -0.10258142450E+03  0.17317994118E+03  0.90067744948E+02  0.22051403438E+03  0.00000000000E+00 0.  1.
         22    1    1    2    0    0  0.19074501842E+03 -0.54453972489E+03  0.12876877709E+04  0.14110446376E+04  0.00000000000E+00 0. -1.
<mgrwt>
<rscale>  0 0.13429647E+04</rscale>
<asrwt>0</asrwt>
<pdfrwt beam="1">  1        1 0.27677070E+00 0.13429647E+04</pdfrwt>
<pdfrwt beam="2">  1       -1 0.38558701E-01 0.13429647E+04</pdfrwt>
<totfact> 0.26038891E+01</totfact>
</mgrwt>
</event>
<event>
 6    1  0.1773638E-005  0.5392530E+04  0.7818608E-02  0.7770653E-01
         -1   -1    0    0    0  501 -0.00000000000E+00  0.00000000000E+00  0.15283631366E+04  0.15283631366E+04  0.00000000000E+00 0.  1.
          1   -1    0    0  501    0  0.00000000000E+00 -0.00000000000E+00 -0.47566216834E+04  0.47566216834E+04  0.00000000000E+00 0. -1.
         23    2    1    2    0    0  0.24286788669E+04 -0.65160378058E+03 -0.48282938981E+03  0.25620223193E+04  0.88122754516E+02 0.  0.
         13    1    3    3    0    0  0.21997819925E+04 -0.60394921086E+03 -0.41548232930E+03  0.23187110708E+04  0.00000000000E+00 0.  1.
        -13    1    3    3    0    0  0.22889687435E+03 -0.47654569724E+02 -0.67347060509E+02  0.24331124853E+03  0.00000000000E+00 0. -1.
         22    1    1    2    0    0 -0.24286788669E+04  0.65160378058E+03 -0.27454291570E+04  0.37229625007E+04  0.00000000000E+00 0. -1.
<mgrwt>
<rscale>  0 0.53925301E+04</rscale>
<asrwt>0</asrwt>
<pdfrwt beam="1">  1        1 0.73178795E+00 0.53925301E+04</pdfrwt>
<pdfrwt beam="2">  1       -1 0.23513279E+00 0.53925301E+04</pdfrwt>
<totfact> 0.10272311E-03</totfact>
</mgrwt>
</event>
<event>
 6    1  0.1773638E-005  0.1096616E+04  0.7818608E-02  0.9208496E-01
          1   -1    0    0  501    0  0.00000000000E+00  0.00000000000E+00  0.86828556811E+03  0.86828556811E+03  0.00000000000E+00 0. -1.
         -1   -1    0    0    0  501 -0.00000000000E+00 -0.00000000000E+00 -0.34624748090E+03  0.34624748090E+03  0.00000000000E+00 0.  1.
         23    2    1    2    0    0  0.54058751431E+03 -0.66429580332E+02  0.25548130743E+03  0.60815011174E+03  0.89039935921E+02 0.  0.
         11    1    3    3    0    0  0.27688948330E+03 -0.11196054487E+02  0.17172846185E+03  0.32601196636E+03  0.00000000000E+00 0. -1.
        -11    1    3    3    0    0  0.26369803101E+03 -0.55233525845E+02  0.83752845581E+02  0.28213814538E+03  0.00000000000E+00 0.  1.
         22    1    1    2    0    0 -0.54058751431E+03  0.66429580332E+02  0.26655677977E+03  0.60638293727E+03  0.00000000000E+00 0. -1.
<mgrwt>
<rscale>  0 0.10966161E+04</rscale>
<asrwt>0</asrwt>
<pdfrwt beam="1">  1        1 0.13358239E+00 0.10966161E+04</pdfrwt>
<pdfrwt beam="2">  1       -1 0.53268843E-01 0.10966161E+04</pdfrwt>
<totfact> 0.68476077E+01</totfact>
</mgrwt>
</event>
<event>
 6    1  0.1773638E-005  0.1239863E+04  0.7818608E-02  0.9078663E-01
         -1   -1    0    0    0  501 -0.00000000000E+00  0.00000000000E+00  0.17341129025E+03  0.17341129025E+03  0.00000000000E+00 0.  1.
          1   -1    0    0  501    0  0.00000000000E+00 -0.00000000000E+00 -0.22162059034E+04  0.22162059034E+04  0.00000000000E+00 0. -1.
         23    2    1    2    0    0 -0.52067097137E+03 -0.16976659849E+03 -0.48049306699E+03  0.73410969457E+03  0.90135996437E+02 0.  0.
         13    1    3    3    0    0 -0.43990997757E+03 -0.10718129804E+03 -0.39635356071E+03  0.60175141387E+03  0.00000000000E+00 0.  1.
        -13    1    3    3    0    0 -0.80760993798E+02 -0.62585300456E+02 -0.84139506286E+02  0.13235828070E+03  0.00000000000E+00 0. -1.
         22    1    1    2    0    0  0.52067097137E+03  0.16976659849E+03 -0.15623015461E+04  0.16555074991E+04  0.00000000000E+00 0. -1.
<mgrwt>
<rscale>  0 0.12398631E+04</rscale>
<asrwt>0</asrwt>
<pdfrwt beam="1">  1        1 0.34095474E+00 0.12398631E+04</pdfrwt>
<pdfrwt beam="2">  1       -1 0.26678661E-01 0.12398631E+04</pdfrwt>
<totfact> 0.26325406E+01</totfact>
</mgrwt>
</event>
<event>
 6    1  0.1773638E-005  0.3918084E+04  0.7818608E-02  0.8021279E-01
         -2   -1    0    0    0  501 -0.00000000000E+00  0.00000000000E+00  0.18391540189E+04  0.18391540189E+04  0.00000000000E+00 0. -1.
          2   -1    0    0  501    0  0.00000000000E+00 -0.00000000000E+00 -0.20867447260E+04  0.20867447260E+04  0.00000000000E+00 0.  1.
         23    2    1    2    0    0  0.57604800931E+03  0.12281840058E+04  0.12908553496E+04  0.18747811153E+04  0.90716237130E+02 0.  0.
         11    1    3    3    0    0  0.42447563829E+03  0.84357398935E+03  0.94208154630E+03  0.13339093983E+04  0.00000000000E+00 0. -1.
        -11    1    3    3    0    0  0.15157237102E+03  0.38461001642E+03  0.34877380328E+03  0.54087171699E+03  0.00000000000E+00 0.  1.
         22    1    1    2    0    0 -0.57604800931E+03 -0.12281840058E+04 -0.15384460567E+04  0.20511176296E+04  0.00000000000E+00 0.  1.
<mgrwt>
<rscale>  0 0.39180837E+04</rscale>
<asrwt>0</asrwt>
<pdfrwt beam="1">  1        2 0.32103765E+00 0.39180837E+04</pdfrwt>
<pdfrwt beam="2">  1       -2 0.28294677E+00 0.39180837E+04</pdfrwt>
<totfact> 0.19178933E-01</totfact>
</mgrwt>
</event>
<event>
 6    1  0.1773638E-005  0.1948698E+04  0.7818608E-02  0.8630989E-01
          1   -1    0    0  501    0  0.00000000000E+00  0.00000000000E+00  0.52057149146E+03  0.52057149146E+03  0.00000000000E+00 0. -1.
         -1   -1    0    0    0  501 -0.00000000000E+00 -0.00000000000E+00 -0.18236811425E+04  0.18236811425E+04  0.00000000000E+00 0.  1.
         23    2    1    2    0    0  0.23473694780E+02  0.32632265261E+03 -0.17542595321E+04  0.17869612353E+04  0.93629390407E+02 0.  0.
         13    1    3    3    0    0 -0.33487850895E+02  0.93307794141E+02 -0.58646530775E+03  0.59478511902E+03  0.00000000000E+00 0.  1.
        -13    1    3    3    0    0  0.56961545675E+02  0.23301485847E+03 -0.11677942243E+04  0.11921761163E+04  0.00000000000E+00 0. -1.
         22    1    1    2    0    0 -0.23473694780E+02 -0.32632265261E+03  0.45114988098E+03  0.55729139869E+03  0.00000000000E+00 0. -1.
<mgrwt>
<rscale>  0 0.19486985E+04</rscale>
<asrwt>0</asrwt>
<pdfrwt beam="1">  1        1 0.80087922E-01 0.19486985E+04</pdfrwt>
<pdfrwt beam="2">  1       -1 0.28056633E+00 0.19486985E+04</pdfrwt>
<totfact> 0.17239710E+00</totfact>
</mgrwt>
</event>
<event>
 6    1  0.1773638E-005  0.2203903E+04  0.7818608E-02  0.8516805E-01
          1   -1    0    0  501    0  0.00000000000E+00  0.00000000000E+00  0.80794854889E+03  0.80794854889E+03  0.00000000000E+00 0. -1.
         -1   -1    0    0    0  501 -0.00000000000E+00 -0.00000000000E+00 -0.15029389137E+04  0.15029389137E+04  0.00000000000E+00 0.  1.
         23    2    1    2    0    0  0.64037041516E+02  0.62396227389E+03  0.59941553629E+03  0.87251466713E+03  0.92483497292E+02 0.  0.
         11    1    3    3    0    0 -0.85657640572E+01  0.11071337353E+02  0.28583311971E+02  0.31826915463E+02  0.00000000000E+00 0.  1.
        -11    1    3    3    0    0  0.72602805573E+02  0.61289093654E+03  0.57083222432E+03  0.84068775166E+03  0.00000000000E+00 0. -1.
         22    1    1    2    0    0 -0.64037041516E+02 -0.62396227389E+03 -0.12944059011E+04  0.14383727955E+04  0.00000000000E+00 0.  1.
<mgrwt>
<rscale>  0 0.22039032E+04</rscale>
<asrwt>0</asrwt>
<pdfrwt beam="1">  1        1 0.12429978E+00 0.22039032E+04</pdfrwt>
<pdfrwt beam="2">  1       -1 0.23122137E+00 0.22039032E+04</pdfrwt>
<totfact> 0.18372400E+00</totfact>
</mgrwt>
</event>
<event>
 6    1  0.1773638E-005  0.1680551E+04  0.7818608E-02  0.8772535E-01
         -2   -1    0    0    0  501 -0.00000000000E+00  0.00000000000E+00  0.72012890113E+03  0.72012890113E+03  0.00000000000E+00 0.  1.
          2   -1    0    0  501    0  0.00000000000E+00 -0.00000000000E+00 -0.98046797722E+03  0.98046797722E+03  0.00000000000E+00 0. -1.
         23    2    1    2    0    0  0.63655569629E+02 -0.40099185486E+03  0.61112105148E+03  0.73919724596E+03  0.89984052315E+02 0.  0.
         11    1    3    3    0    0  0.72191897281E+02 -0.31005241887E+03  0.41668948422E+03  0.52437991833E+03  0.00000000000E+00 0. -1.
        -11    1    3    3    0    0 -0.85363276525E+01 -0.90939435983E+02  0.19443156726E+03  0.21481732764E+03  0.00000000000E+00 0.  1.
         22    1    1    2    0    0 -0.63655569629E+02  0.40099185486E+03 -0.87146012757E+03  0.96139963239E+03  0.00000000000E+00 0. -1.
<mgrwt>
<rscale>  0 0.16805515E+04</rscale>
<asrwt>0</asrwt>
<pdfrwt beam="1">  1        2 0.15084123E+00 0.16805515E+04</pdfrwt>
<pdfrwt beam="2">  1       -2 0.11078906E+00 0.16805515E+04</pdfrwt>
<totfact> 0.15959619E+01</totfact>
</mgrwt>
</event>
<event>
 6    1  0.1773638E-005  0.2751885E+04  0.7818608E-02  0.8318364E-01
          2   -1    0    0  501    0  0.00000000000E+00  0.00000000000E+00  0.29618266577E+04  0.29618266577E+04  0.00000000000E+00 0. -1.
         -2   -1    0    0    0  501 -0.00000000000E+00 -0.00000000000E+00 -0.63920597660E+03  0.63920597660E+03  0.00000000000E+00 0.  1.
         23    2    1    2    0    0  0.13627988245E+04  0.11982682767E+03  0.98735897457E+03  0.16893572096E+04  0.86434554624E+02 0.  0.
         13    1    3    3    0    0  0.23786102180E+03  0.18202135472E+02  0.21377802206E+03  0.32032830993E+03  0.00000000000E+00 0.  1.
        -13    1    3    3    0    0  0.11249378027E+04  0.10162469220E+03  0.77358095251E+03  0.13690288996E+04  0.00000000000E+00 0. -1.
         22    1    1    2    0    0 -0.13627988245E+04 -0.11982682767E+03  0.13352617065E+04  0.19116754247E+04  0.00000000000E+00 0. -1.
<mgrwt>
<rscale>  0 0.27518847E+04</rscale>
<asrwt>0</asrwt>
<pdfrwt beam="1">  1        2 0.45566563E+00 0.27518847E+04</pdfrwt>
<pdfrwt beam="2">  1       -2 0.98339383E-01 0.27518847E+04</pdfrwt>
<totfact> 0.13804715E+00</totfact>
</mgrwt>
</event>
<event>
 6    1  0.1773638E-005  0.4122228E+04  0.7818608E-02  0.7980333E-01
         -2   -1    0    0    0  501 -0.00000000000E+00  0.00000000000E+00  0.26356498681E+04  0.26356498681E+04  0.00000000000E+00 0.  1.
          2   -1    0    0  501    0  0.00000000000E+00 -0.00000000000E+00 -0.16118188446E+04  0.16118188446E+04  0.00000000000E+00 0. -1.
         23    2    1    2    0    0  0.18634908557E+03 -0.16548467458E+04  0.17616504125E+04  0.24260348862E+04  0.94812230579E+02 0.  0.
         11    1    3    3    0    0  0.74963038805E+02 -0.81858802248E+03  0.80512143205E+03  0.11506199755E+04  0.00000000000E+00 0. -1.
        -11    1    3    3    0    0  0.11138604677E+03 -0.83625872335E+03  0.95652898046E+03  0.12754149106E+04  0.00000000000E+00 0.  1.
         22    1    1    2    0    0 -0.18634908557E+03  0.16548467458E+04 -0.73781938901E+03  0.18214338266E+04  0.00000000000E+00 0. -1.
<mgrwt>
<rscale>  0 0.41222276E+04</rscale>
<asrwt>0</asrwt>
<pdfrwt beam="1">  1        2 0.24797213E+00 0.41222276E+04</pdfrwt>
<pdfrwt beam="2">  1       -2 0.40548459E+00 0.41222276E+04</pdfrwt>
<totfact> 0.58604685E-02</totfact>
</mgrwt>
</event>
<event>
 6    1  0.1773638E-005  0.2725587E+04  0.7818608E-02  0.8326750E-01
         -2   -1    0    0    0  501 -0.00000000000E+00  0.00000000000E+00  0.12853905919E+04  0.12853905919E+04  0.00000000000E+00 0.  1.
          2   -1    0    0  501    0  0.00000000000E+00 -0.00000000000E+00 -0.14448570094E+04  0.14448570094E+04  0.00000000000E+00 0. -1.
         23    2    1    2    0    0  0.76671989203E+03 -0.11248127053E+04 -0.84814562828E+02  0.13669296215E+04  0.90774804816E+02 0.  0.
         11    1    3    3    0    0  0.67089273105E+03 -0.95055094927E+03 -0.98258407481E+02  0.11676039047E+04  0.00000000000E+00 0.  1.
        -11    1    3    3    0    0  0.95827160979E+02 -0.17426175599E+03  0.13443844653E+02  0.19932571671E+03  0.00000000000E+00 0. -1.
         22    1    1    2    0    0 -0.76671989203E+03  0.11248127053E+04 -0.74651854594E+02  0.13633179798E+04  0.00000000000E+00 0.  1.
<mgrwt>
<rscale>  0 0.27255866E+04</rscale>
<asrwt>0</asrwt>
<pdfrwt beam="1">  1        2 0.22228569E+00 0.27255866E+04</pdfrwt>
<pdfrwt beam="2">  1       -2 0.19775240E+00 0.27255866E+04</pdfrwt>
<totfact> 0.16436671E+00</totfact>
</mgrwt>
</event>
<event>
 6    1  0.1773638E-005  0.1976543E+04  0.7818608E-02  0.8617667E-01
          1   -1    0    0  501    0  0.00000000000E+00  0.00000000000E+00  0.13290465949E+04  0.13290465949E+04  0.00000000000E+00 0. -1.
         -1   -1    0    0    0  501 -0.00000000000E+00 -0.00000000000E+00 -0.73487297412E+03  0.73487297412E+03  0.00000000000E+00 0.  1.
         23    2    1    2    0    0  0.58784435930E+03  0.32478675510E+03 -0.45587693722E+03  0.81746315125E+03  0.96823523602E+02 0.  0.
         11    1    3    3    0    0  0.44546099641E+03  0.26720380958E+03 -0.39359533529E+03  0.65172897982E+03  0.00000000000E+00 0. -1.
        -11    1    3    3    0    0  0.14238336289E+03  0.57582945516E+02 -0.62281601935E+02  0.16573417143E+03  0.00000000000E+00 0.  1.
         22    1    1    2    0    0 -0.58784435930E+03 -0.32478675510E+03  0.10500505580E+04  0.12464564178E+04  0.00000000000E+00 0. -1.
<mgrwt>
<rscale>  0 0.19765429E+04</rscale>
<asrwt>0</asrwt>
<pdfrwt beam="1">  1        1 0.20446871E+00 0.19765429E+04</pdfrwt>
<pdfrwt beam="2">  1       -1 0.11305738E+00 0.19765429E+04</pdfrwt>
<totfact> 0.57318421E+00</totfact>
</mgrwt>
</event>
<event>
 6    1  0.1773638E-005  0.2082958E+04  0.7818608E-02  0.8568788E-01
          1   -1    0    0  501    0  0.00000000000E+00  0.00000000000E+00  0.22748367196E+04  0.22748367196E+04  0.00000000000E+00 0. -1.
         -1   -1    0    0    0  501 -0.00000000000E+00 -0.00000000000E+00 -0.47681612754E+03  0.47681612754E+03  0.00000000000E+00 0.  1.
         23    2    1    2    0    0  0.12572517099E+03 -0.80028624442E+03  0.40551233163E+02  0.81646204541E+03  0.93279030116E+02 0.  0.
         11    1    3    3    0    0  0.11821098454E+03 -0.56704911120E+03 -0.20715404302E+01  0.57924331905E+03  0.00000000000E+00 0.  1.
        -11    1    3    3    0    0  0.75141864532E+01 -0.23323713321E+03  0.42622773593E+02  0.23721872636E+03  0.00000000000E+00 0. -1.
         22    1    1    2    0    0 -0.12572517099E+03  0.80028624442E+03  0.17574693589E+04  0.19351908017E+04  0.00000000000E+00 0. -1.
<mgrwt>
<rscale>  0 0.20829583E+04</rscale>
<asrwt>0</asrwt>
<pdfrwt beam="1">  1        1 0.34997487E+00 0.20829583E+04</pdfrwt>
<pdfrwt beam="2">  1       -1 0.73356329E-01 0.20829583E+04</pdfrwt>
<totfact> 0.33400465E+00</totfact>
</mgrwt>
</event>
<event>
 6    1  0.1773638E-005  0.1870116E+04  0.7818608E-02  0.8669876E-01
         -1   -1    0    0    0  501 -0.00000000000E+00  0.00000000000E+00  0.42757657819E+03  0.42757657819E+03  0.00000000000E+00 0. -1.
          1   -1    0    0  501    0  0.00000000000E+00 -0.00000000000E+00 -0.20448573761E+04  0.20448573761E+04  0.00000000000E+00 0.  1.
         23    2    1    2    0    0 -0.44306610177E+03 -0.65945389820E+03 -0.16421329572E+03  0.81635660696E+03  0.91022463486E+02 0.  0.
         11    1    3    3    0    0 -0.37736868987E+03 -0.52222107682E+03 -0.16128797687E+03  0.66418054221E+03  0.00000000000E+00 0. -1.
        -11    1    3    3    0    0 -0.65697411893E+02 -0.13723282137E+03 -0.29253188520E+01  0.15217606475E+03  0.00000000000E+00 0.  1.
         22    1    1    2    0    0  0.44306610177E+03  0.65945389820E+03 -0.14530675022E+04  0.16560773473E+04  0.00000000000E+00 0.  1.
<mgrwt>
<rscale>  0 0.18701156E+04</rscale>
<asrwt>0</asrwt>
<pdfrwt beam="1">  1        1 0.31459343E+00 0.18701156E+04</pdfrwt>
<pdfrwt beam="2">  1       -1 0.65781014E-01 0.18701156E+04</pdfrwt>
<totfact> 0.61044548E+00</totfact>
</mgrwt>
</event>
<event>
 6    1  0.1773638E-005  0.2136566E+04  0.7818608E-02  0.8545304E-01
          1   -1    0    0  501    0  0.00000000000E+00  0.00000000000E+00  0.15804734299E+04  0.15804734299E+04  0.00000000000E+00 0. -1.
         -1   -1    0    0    0  501 -0.00000000000E+00 -0.00000000000E+00 -0.72208042960E+03  0.72208042960E+03  0.00000000000E+00 0.  1.
         23    2    1    2    0    0 -0.10191393690E+03  0.75392413158E+03  0.12351750023E+04  0.14535822913E+04  0.91957297542E+02 0.  0.
         13    1    3    3    0    0 -0.29403657865E+01  0.33545848134E+03  0.57516922483E+03  0.66585334395E+03  0.00000000000E+00 0. -1.
        -13    1    3    3    0    0 -0.98973571110E+02  0.41846565023E+03  0.66000577745E+03  0.78772894733E+03  0.00000000000E+00 0.  1.
         22    1    1    2    0    0  0.10191393690E+03 -0.75392413158E+03 -0.37678200195E+03  0.84897156825E+03  0.00000000000E+00 0.  1.
<mgrwt>
<rscale>  0 0.21365663E+04</rscale>
<asrwt>0</asrwt>
<pdfrwt beam="1">  1        1 0.24314976E+00 0.21365663E+04</pdfrwt>
<pdfrwt beam="2">  1       -1 0.11108930E+00 0.21365663E+04</pdfrwt>
<totfact> 0.39335906E+00</totfact>
</mgrwt>
</event>
<event>
 6    1  0.1773638E-005  0.9330179E+03  0.7818608E-02  0.9385223E-01
         -1   -1    0    0    0  501 -0.00000000000E+00  0.00000000000E+00  0.19977877532E+03  0.19977877532E+03  0.00000000000E+00 0.  1.
          1   -1    0    0  501    0  0.00000000000E+00 -0.00000000000E+00 -0.10893579247E+04  0.10893579247E+04  0.00000000000E+00 0. -1.
         23    2    1    2    0    0 -0.23927538030E+02  0.12980903788E+03 -0.10608378720E+04  0.10729135202E+04  0.91342858138E+02 0.  0.
         11    1    3    3    0    0  0.34972684046E+02  0.45443574521E+02 -0.41077793875E+03  0.41476104212E+03  0.00000000000E+00 0.  1.
        -11    1    3    3    0    0 -0.58900222076E+02  0.84365463357E+02 -0.65005993328E+03  0.65815247810E+03  0.00000000000E+00 0. -1.
         22    1    1    2    0    0  0.23927538030E+02 -0.12980903788E+03  0.17125872266E+03  0.21622317979E+03  0.00000000000E+00 0.  1.
<mgrwt>
<rscale>  0 0.93301788E+03</rscale>
<asrwt>0</asrwt>
<pdfrwt beam="1">  1        1 0.16759353E+00 0.93301788E+03</pdfrwt>
<pdfrwt beam="2">  1       -1 0.30735196E-01 0.93301788E+03</pdfrwt>
<totfact> 0.12689724E+02</totfact>
</mgrwt>
</event>
<event>
 6    1  0.1773638E-005  0.1076847E+04  0.7818608E-02  0.9228057E-01
         -1   -1    0    0    0  501 -0.00000000000E+00  0.00000000000E+00  0.51967491673E+03  0.51967491673E+03  0.00000000000E+00 0.  1.
          1   -1    0    0  501    0  0.00000000000E+00 -0.00000000000E+00 -0.55784846760E+03  0.55784846760E+03  0.00000000000E+00 0. -1.
         23    2    1    2    0    0 -0.41081953058E+03  0.18240561008E+03 -0.30880109272E+03  0.55284847575E+03  0.90767995342E+02 0.  0.
         13    1    3    3    0    0 -0.24612419537E+03  0.14867007172E+03 -0.22437785827E+03  0.36472638108E+03  0.00000000000E+00 0.  1.
        -13    1    3    3    0    0 -0.16469533521E+03  0.33735538356E+02 -0.84423234449E+02  0.18812209467E+03  0.00000000000E+00 0. -1.
         22    1    1    2    0    0  0.41081953058E+03 -0.18240561008E+03  0.27062754185E+03  0.52467490859E+03  0.00000000000E+00 0.  1.
<mgrwt>
<rscale>  0 0.10768470E+04</rscale>
<asrwt>0</asrwt>
<pdfrwt beam="1">  1        1 0.85822841E-01 0.10768470E+04</pdfrwt>
<pdfrwt beam="2">  1       -1 0.79949988E-01 0.10768470E+04</pdfrwt>
<totfact> 0.59298119E+01</totfact>
</mgrwt>
</event>
<event>
 6    1  0.1773638E-005  0.9894553E+03  0.7818608E-02  0.9320186E-01
         -2   -1    0    0    0  501 -0.00000000000E+00  0.00000000000E+00  0.34598726707E+03  0.34598726707E+03  0.00000000000E+00 0. -1.
          2   -1    0    0  501    0  0.00000000000E+00 -0.00000000000E+00 -0.70741178591E+03  0.70741178591E+03  0.00000000000E+00 0.  1.
         23    2    1    2    0    0 -0.20032329296E+02 -0.43503203308E+03  0.57333585346E+02  0.44923639786E+03  0.94191491845E+02 0.  0.
         13    1    3    3    0    0 -0.15517308006E+02 -0.40749318373E+03  0.27999574497E+02  0.40874864869E+03  0.00000000000E+00 0. -1.
        -13    1    3    3    0    0 -0.45150212905E+01 -0.27538849349E+02  0.29334010849E+02  0.40487749174E+02  0.00000000000E+00 0.  1.
         22    1    1    2    0    0  0.20032329296E+02  0.43503203308E+03 -0.41875810419E+03  0.60416265512E+03  0.00000000000E+00 0.  1.
<mgrwt>
<rscale>  0 0.98945535E+03</rscale>
<asrwt>0</asrwt>
<pdfrwt beam="1">  1        2 0.10883258E+00 0.98945535E+03</pdfrwt>
<pdfrwt beam="2">  1       -2 0.53228811E-01 0.98945535E+03</pdfrwt>
<totfact> 0.13441544E+02</totfact>
</mgrwt>
</event>
<event>
 6    1  0.1773638E-005  0.1821755E+04  0.7818608E-02  0.8694815E-01
          1   -1    0    0  501    0  0.00000000000E+00  0.00000000000E+00  0.15338764629E+04  0.15338764629E+04  0.00000000000E+00 0. -1.
         -1   -1    0    0    0  501 -0.00000000000E+00 -0.00000000000E+00 -0.54091541835E+03  0.54091541835E+03  0.00000000000E+00 0.  1.
         23    2    1    2    0    0  0.88859770447E+03 -0.94501572872E+02  0.68427709950E+03  0.11293701734E+04  0.93302797898E+02 0.  0.
         11    1    3    3    0    0  0.62887569755E+03 -0.10649469201E+03  0.50522919568E+03  0.81368439985E+03  0.00000000000E+00 0.  1.
        -11    1    3    3    0    0  0.25972200692E+03  0.11993119134E+02  0.17904790382E+03  0.31568577359E+03  0.00000000000E+00 0. -1.
         22    1    1    2    0    0 -0.88859770447E+03  0.94501572872E+02  0.30868394504E+03  0.94542170780E+03  0.00000000000E+00 0. -1.
<mgrwt>
<rscale>  0 0.18217546E+04</rscale>
<asrwt>0</asrwt>
<pdfrwt beam="1">  1        1 0.23598099E+00 0.18217546E+04</pdfrwt>
<pdfrwt beam="2">  1       -1 0.83217757E-01 0.18217546E+04</pdfrwt>
<totfact> 0.83664336E+00</totfact>
</mgrwt>
</event>
<event>
 6    1  0.1773638E-005  0.1386117E+04  0.7818608E-02  0.8963930E-01
          2   -1    0    0  501    0  0.00000000000E+00  0.00000000000E+00  0.11444954825E+04  0.11444954825E+04  0.00000000000E+00 0. -1.
         -2   -1    0    0    0  501 -0.00000000000E+00 -0.00000000000E+00 -0.41968709201E+03  0.41968709201E+03  0.00000000000E+00 0.  1.
         23    2    1    2    0    0  0.37641778319E+03  0.25678941142E+03 -0.22250455163E+03  0.51297709525E+03  0.77498873810E+02 0.  0.
         13    1    3    3    0    0  0.20980985127E+02  0.40211655386E+02 -0.30099456360E+02  0.54434880719E+02  0.00000000000E+00 0. -1.
        -13    1    3    3    0    0  0.35543679806E+03  0.21657775603E+03 -0.19240509527E+03  0.45854221453E+03  0.00000000000E+00 0.  1.
         22    1    1    2    0    0 -0.37641778319E+03 -0.25678941142E+03  0.94731294216E+03  0.10512054793E+04  0.00000000000E+00 0. -1.
<mgrwt>
<rscale>  0 0.13861169E+04</rscale>
<asrwt>0</asrwt>
<pdfrwt beam="1">  1        2 0.17607623E+00 0.13861169E+04</pdfrwt>
<pdfrwt beam="2">  1       -2 0.64567245E-01 0.13861169E+04</pdfrwt>
<totfact> 0.44150525E+01</totfact>
</mgrwt>
</event>
<event>
 6    1  0.1773638E-005  0.1786033E+04  0.7818608E-02  0.8713762E-01
          2   -1    0    0  501    0  0.00000000000E+00  0.00000000000E+00  0.14444538786E+04  0.14444538786E+04  0.00000000000E+00 0. -1.
         -2   -1    0    0    0  501 -0.00000000000E+00 -0.00000000000E+00 -0.55209694753E+03  0.55209694753E+03  0.00000000000E+00 0.  1.
         23    2    1    2    0    0  0.54921792726E+03  0.68090080258E+03  0.26023361548E+03  0.91727045443E+03  0.91636877769E+02 0.  0.
         13    1    3    3    0    0  0.23377208201E+03  0.25225645923E+03  0.62709571780E+02  0.34959290316E+03  0.00000000000E+00 0.  1.
        -13    1    3    3    0    0  0.31544584525E+03  0.42864434335E+03  0.19752404370E+03  0.56767755127E+03  0.00000000000E+00 0. -1.
         22    1    1    2    0    0 -0.54921792726E+03 -0.68090080258E+03  0.63212331557E+03  0.10792803717E+04  0.00000000000E+00 0.  1.
<mgrwt>
<rscale>  0 0.17860331E+04</rscale>
<asrwt>0</asrwt>
<pdfrwt beam="1">  1        2 0.22222367E+00 0.17860331E+04</pdfrwt>
<pdfrwt beam="2">  1       -2 0.84937992E-01 0.17860331E+04</pdfrwt>
<totfact> 0.15569656E+01</totfact>
</mgrwt>
</event>
<event>
 6    1  0.1773638E-005  0.2568886E+04  0.7818608E-02  0.8378847E-01
         -1   -1    0    0    0  501 -0.00000000000E+00  0.00000000000E+00  0.13609878564E+04  0.13609878564E+04  0.00000000000E+00 0.  1.
          1   -1    0    0  501    0  0.00000000000E+00 -0.00000000000E+00 -0.12122035312E+04  0.12122035312E+04  0.00000000000E+00 0. -1.
         23    2    1    2    0    0 -0.12791227606E+04 -0.83983711234E+02  0.13015902579E+03  0.12911792183E+04  0.83630743546E+02 0.  0.
         11    1    3    3    0    0 -0.97451075013E+03 -0.30719132145E+02  0.11210853792E+03  0.98141896837E+03  0.00000000000E+00 0.  1.
        -11    1    3    3    0    0 -0.30461201046E+03 -0.53264579090E+02  0.18050487871E+02  0.30976024990E+03  0.00000000000E+00 0. -1.
         22    1    1    2    0    0  0.12791227606E+04  0.83983711234E+02  0.18625299370E+02  0.12820121693E+04  0.00000000000E+00 0. -1.
<mgrwt>
<rscale>  0 0.25688864E+04</rscale>
<asrwt>0</asrwt>
<pdfrwt beam="1">  1        1 0.18649285E+00 0.25688864E+04</pdfrwt>
<pdfrwt beam="2">  1       -1 0.20938275E+00 0.25688864E+04</pdfrwt>
<totfact> 0.12000573E+00</totfact>
</mgrwt>
</event>
<event>
 6    1  0.1773638E-005  0.2011983E+04  0.7818608E-02  0.8601039E-01
          2   -1    0    0  501    0  0.00000000000E+00  0.00000000000E+00  0.30265889817E+04  0.30265889817E+04  0.00000000000E+00 0.  1.
         -2   -1    0    0    0  501 -0.00000000000E+00 -0.00000000000E+00 -0.33437595579E+03  0.33437595579E+03  0.00000000000E+00 0. -1.
         23    2    1    2    0    0  0.55665444431E+03 -0.83546952663E+03  0.13535484675E+04  0.16876758709E+04  0.91010390722E+02 0.  0.
         13    1    3    3    0    0  0.63390245401E+02 -0.89676463704E+02  0.19990112027E+03  0.22808035698E+03  0.00000000000E+00 0. -1.
        -13    1    3    3    0    0  0.49326419891E+03 -0.74579306292E+03  0.11536473472E+04  0.14595955139E+04  0.00000000000E+00 0.  1.
         22    1    1    2    0    0 -0.55665444431E+03  0.83546952663E+03  0.13386645585E+04  0.16732890666E+04  0.00000000000E+00 0. -1.
<mgrwt>
<rscale>  0 0.20119827E+04</rscale>
<asrwt>0</asrwt>
<pdfrwt beam="1">  1        2 0.46562906E+00 0.20119827E+04</pdfrwt>
<pdfrwt beam="2">  1       -2 0.51442457E-01 0.20119827E+04</pdfrwt>
<totfact> 0.55651461E+00</totfact>
</mgrwt>
</event>
<event>
 6    1  0.1773638E-005  0.3830265E+04  0.7818608E-02  0.8039691E-01
          1   -1    0    0  501    0  0.00000000000E+00  0.00000000000E+00  0.31291747660E+04  0.31291747660E+04  0.00000000000E+00 0. -1.
         -1   -1    0    0    0  501 -0.00000000000E+00 -0.00000000000E+00 -0.11721083903E+04  0.11721083903E+04  0.00000000000E+00 0.  1.
         23    2    1    2    0    0 -0.37809487986E+03 -0.11672922091E+04  0.26288247603E+04  0.29024314247E+04  0.88666314353E+02 0.  0.
         13    1    3    3    0    0 -0.30190864481E+03 -0.89003283151E+03  0.19265441064E+04  0.21435669957E+04  0.00000000000E+00 0. -1.
        -13    1    3    3    0    0 -0.76186235055E+02 -0.27725937763E+03  0.70228065385E+03  0.75886442905E+03  0.00000000000E+00 0.  1.
         22    1    1    2    0    0  0.37809487986E+03  0.11672922091E+04 -0.67175838454E+03  0.13988517316E+04  0.00000000000E+00 0.  1.
<mgrwt>
<rscale>  0 0.38302647E+04</rscale>
<asrwt>0</asrwt>
<pdfrwt beam="1">  1        1 0.48141150E+00 0.38302647E+04</pdfrwt>
<pdfrwt beam="2">  1       -1 0.18032437E+00 0.38302647E+04</pdfrwt>
<totfact> 0.78814380E-02</totfact>
</mgrwt>
</event>
<event>
 6    1  0.1773638E-005  0.2496071E+04  0.7818608E-02  0.8404387E-01
         -1   -1    0    0    0  501 -0.00000000000E+00  0.00000000000E+00  0.36771951777E+03  0.36771951777E+03  0.00000000000E+00 0. -1.
          1   -1    0    0  501    0  0.00000000000E+00 -0.00000000000E+00 -0.42358161707E+04  0.42358161707E+04  0.00000000000E+00 0.  1.
         23    2    1    2    0    0  0.50744178087E+03  0.11165781476E+04 -0.15271412624E+04  0.19607500254E+04  0.90201473542E+02 0.  0.
         13    1    3    3    0    0  0.31772972879E+03  0.59487679654E+03 -0.85741664798E+03  0.10908684118E+04  0.00000000000E+00 0. -1.
        -13    1    3    3    0    0  0.18971205208E+03  0.52170135109E+03 -0.66972461447E+03  0.86988161359E+03  0.00000000000E+00 0.  1.
         22    1    1    2    0    0 -0.50744178087E+03 -0.11165781476E+04 -0.23409553905E+04  0.26427856631E+04  0.00000000000E+00 0.  1.
<mgrwt>
<rscale>  0 0.24960707E+04</rscale>
<asrwt>0</asrwt>
<pdfrwt beam="1">  1        1 0.65166403E+00 0.24960707E+04</pdfrwt>
<pdfrwt beam="2">  1       -1 0.56572233E-01 0.24960707E+04</pdfrwt>
<totfact> 0.16516576E-01</totfact>
</mgrwt>
</event>
<event>
 6    1  0.1773638E-005  0.9063219E+03  0.7818608E-02  0.9417713E-01
          1   -1    0    0  501    0  0.00000000000E+00  0.00000000000E+00  0.18645020097E+03  0.18645020097E+03  0.00000000000E+00 0. -1.
         -1   -1    0    0    0  501 -0.00000000000E+00 -0.00000000000E+00 -0.11013925038E+04  0.11013925038E+04  0.00000000000E+00 0.  1.
         23    2    1    2    0    0  0.33037333908E+03 -0.30126184114E+03 -0.51251828136E+03  0.68630273674E+03  0.91821662048E+02 0.  0.
         13    1    3    3    0    0  0.10971983061E+03 -0.92076895282E+02 -0.23177487433E+03  0.27246318695E+03  0.00000000000E+00 0.  1.
        -13    1    3    3    0    0  0.22065350847E+03 -0.20918494586E+03 -0.28074340703E+03  0.41383954978E+03  0.00000000000E+00 0. -1.
         22    1    1    2    0    0 -0.33037333908E+03  0.30126184114E+03 -0.40242402148E+03  0.60153996806E+03  0.00000000000E+00 0. -1.
<mgrwt>
<rscale>  0 0.90632192E+03</rscale>
<asrwt>0</asrwt>
<pdfrwt beam="1">  1        1 0.28684646E-01 0.90632192E+03</pdfrwt>
<pdfrwt beam="2">  1       -1 0.16944500E+00 0.90632192E+03</pdfrwt>
<totfact> 0.40880623E+01</totfact>
</mgrwt>
</event>
<event>
 6    1  0.1773638E-005  0.1372754E+04  0.7818608E-02  0.8973780E-01
          2   -1    0    0  501    0  0.00000000000E+00  0.00000000000E+00  0.15737683889E+04  0.15737683889E+04  0.00000000000E+00 0. -1.
         -2   -1    0    0    0  501 -0.00000000000E+00 -0.00000000000E+00 -0.29935378592E+03  0.29935378592E+03  0.00000000000E+00 0.  1.
         23    2    1    2    0    0 -0.39298544407E+03  0.21885078089E+03 -0.61417105258E+02  0.46359048795E+03  0.93866160846E+02 0.  0.
         11    1    3    3    0    0 -0.20303955798E+03  0.10695123216E+03  0.15733538282E+02  0.23002428652E+03  0.00000000000E+00 0. -1.
        -11    1    3    3    0    0 -0.18994588609E+03  0.11189954873E+03 -0.77150643540E+02  0.23356620142E+03  0.00000000000E+00 0.  1.
         22    1    1    2    0    0  0.39298544407E+03 -0.21885078089E+03  0.13358317082E+04  0.14095316868E+04  0.00000000000E+00 0. -1.
<mgrwt>
<rscale>  0 0.13727542E+04</rscale>
<asrwt>0</asrwt>
<pdfrwt beam="1">  1        2 0.24211821E+00 0.13727542E+04</pdfrwt>
<pdfrwt beam="2">  1       -2 0.46054429E-01 0.13727542E+04</pdfrwt>
<totfact> 0.50279709E+01</totfact>
</mgrwt>
</event>
<event>
 6    1  0.1773638E-005  0.5943486E+04  0.7818608E-02  0.7697449E-01
         -1   -1    0    0    0  501 -0.00000000000E+00  0.00000000000E+00  0.28415891146E+04  0.28415891146E+04  0.00000000000E+00 0.  1.
          1   -1    0    0  501    0  0.00000000000E+00 -0.00000000000E+00 -0.31078578349E+04  0.31078578349E+04  0.00000000000E+00 0. -1.
         23    2    1    2    0    0 -0.27757197958E+04 -0.90109919598E+02  0.92352272239E+03  0.29281320272E+04  0.91229205310E+02 0.  0.
         11    1    3    3    0    0 -0.94530643235E+03 -0.15538844142E+02  0.35718294886E+03  0.10106559086E+04  0.00000000000E+00 0. -1.
        -11    1    3    3    0    0 -0.18304133634E+04 -0.74571075457E+02  0.56633977353E+03  0.19174761186E+04  0.00000000000E+00 0.  1.
         22    1    1    2    0    0  0.27757197958E+04  0.90109919598E+02 -0.11897914427E+04  0.30213149223E+04  0.00000000000E+00 0.  1.
<mgrwt>
<rscale>  0 0.59434855E+04</rscale>
<asrwt>0</asrwt>
<pdfrwt beam="1">  1        1 0.47813197E+00 0.59434855E+04</pdfrwt>
<pdfrwt beam="2">  1       -1 0.43716756E+00 0.59434855E+04</pdfrwt>
<totfact> 0.13291918E-03</totfact>
</mgrwt>
</event>
<event>
 6    1  0.1773638E-005  0.5401279E+04  0.7818608E-02  0.7769421E-01
          2   -1    0    0  501    0  0.00000000000E+00  0.00000000000E+00  0.21465947997E+04  0.21465947997E+04  0.00000000000E+00 0. -1.
         -2   -1    0    0    0  501 -0.00000000000E+00 -0.00000000000E+00 -0.33976849779E+04  0.33976849779E+04  0.00000000000E+00 0.  1.
         23    2    1    2    0    0  0.15879358523E+04  0.10260296969E+04 -0.26041964530E+04  0.32193768118E+04  0.90943282014E+02 0.  0.
         13    1    3    3    0    0  0.76103727159E+03  0.43846184559E+03 -0.12210583410E+04  0.15041309753E+04  0.00000000000E+00 0.  1.
        -13    1    3    3    0    0  0.82689858073E+03  0.58756785130E+03 -0.13831381120E+04  0.17152458365E+04  0.00000000000E+00 0. -1.
         22    1    1    2    0    0 -0.15879358523E+04 -0.10260296969E+04  0.13531062747E+04  0.23249029659E+04  0.00000000000E+00 0. -1.
<mgrwt>
<rscale>  0 0.54012787E+04</rscale>
<asrwt>0</asrwt>
<pdfrwt beam="1">  1        2 0.33024536E+00 0.54012787E+04</pdfrwt>
<pdfrwt beam="2">  1       -2 0.52272076E+00 0.54012787E+04</pdfrwt>
<totfact> 0.47543394E-03</totfact>
</mgrwt>
</event>
<event>
 6    1  0.1773638E-005  0.1720309E+04  0.7818608E-02  0.8749866E-01
          1   -1    0    0  501    0  0.00000000000E+00  0.00000000000E+00  0.10776122219E+04  0.10776122219E+04  0.00000000000E+00 0. -1.
         -1   -1    0    0    0  501 -0.00000000000E+00 -0.00000000000E+00 -0.68657868538E+03  0.68657868538E+03  0.00000000000E+00 0.  1.
         23    2    1    2    0    0 -0.70779017688E+03 -0.35641960520E+03 -0.14057167502E+03  0.80993414392E+03  0.90725146576E+02 0.  0.
         11    1    3    3    0    0 -0.56657321369E+03 -0.29219968573E+03 -0.76376702722E+02  0.64204303869E+03  0.00000000000E+00 0. -1.
        -11    1    3    3    0    0 -0.14121696318E+03 -0.64219919468E+02 -0.64194972294E+02  0.16789110523E+03  0.00000000000E+00 0.  1.
         22    1    1    2    0    0  0.70779017688E+03  0.35641960520E+03  0.53160521149E+03  0.95425676332E+03  0.00000000000E+00 0.  1.
<mgrwt>
<rscale>  0 0.17203088E+04</rscale>
<asrwt>0</asrwt>
<pdfrwt beam="1">  1        1 0.16578650E+00 0.17203088E+04</pdfrwt>
<pdfrwt beam="2">  1       -1 0.10562749E+00 0.17203088E+04</pdfrwt>
<totfact> 0.10516973E+01</totfact>
</mgrwt>
</event>
<event>
 6    1  0.1773638E-005  0.1492516E+04  0.7818608E-02  0.8889445E-01
         -2   -1    0    0    0  501 -0.00000000000E+00  0.00000000000E+00  0.13843970639E+04  0.13843970639E+04  0.00000000000E+00 0.  1.
          2   -1    0    0  501    0  0.00000000000E+00 -0.00000000000E+00 -0.40226979684E+03  0.40226979684E+03  0.00000000000E+00 0. -1.
         23    2    1    2    0    0  0.20101588780E+03  0.57083970976E+03  0.10093915094E+04  0.11808544308E+04  0.96335902375E+02 0.  0.
         13    1    3    3    0    0  0.17206463967E+03  0.50276827532E+03  0.93791210843E+03  0.10779894721E+04  0.00000000000E+00 0. -1.
        -13    1    3    3    0    0  0.28951248135E+02  0.68071434441E+02  0.71479400923E+02  0.10286495862E+03  0.00000000000E+00 0.  1.
         22    1    1    2    0    0 -0.20101588780E+03 -0.57083970976E+03 -0.27264242323E+02  0.60581242997E+03  0.00000000000E+00 0. -1.
<mgrwt>
<rscale>  0 0.14925162E+04</rscale>
<asrwt>0</asrwt>
<pdfrwt beam="1">  1        2 0.61887661E-01 0.14925162E+04</pdfrwt>
<pdfrwt beam="2">  1       -2 0.21298416E+00 0.14925162E+04</pdfrwt>
<totfact> 0.83621125E+00</totfact>
</mgrwt>
</event>
<event>
 6    1  0.2485378E-005  0.2591169E+04  0.7818608E-02  0.8371207E-01
         -1   -1    0    0    0  501 -0.00000000000E+00  0.00000000000E+00  0.19721315147E+04  0.19721315147E+04  0.00000000000E+00 0.  1.
          1   -1    0    0  501    0  0.00000000000E+00 -0.00000000000E+00 -0.85112969832E+03  0.85112969832E+03  0.00000000000E+00 0. -1.
         23    2    1    2    0    0  0.18874249480E+03 -0.12197695020E+04  0.98763199374E+03  0.15817907636E+04  0.56424263038E+02 0.  0.
         11    1    3    3    0    0  0.61451439731E+02 -0.57504266444E+03  0.45301931944E+03  0.73462701363E+03  0.00000000000E+00 0. -1.
        -11    1    3    3    0    0  0.12729105507E+03 -0.64472683754E+03  0.53461267430E+03  0.84716374997E+03  0.00000000000E+00 0.  1.
         22    1    1    2    0    0 -0.18874249480E+03  0.12197695020E+04  0.13336982267E+03  0.12414704495E+04  0.00000000000E+00 0. -1.
<mgrwt>
<rscale>  0 0.25911694E+04</rscale>
<asrwt>0</asrwt>
<pdfrwt beam="1">  1        1 0.13094303E+00 0.25911694E+04</pdfrwt>
<pdfrwt beam="2">  1       -1 0.30340485E+00 0.25911694E+04</pdfrwt>
<totfact> 0.55287465E-01</totfact>
</mgrwt>
</event>
<event>
 6    1  0.1773638E-005  0.1836839E+04  0.7818608E-02  0.8686950E-01
         -2   -1    0    0    0  501 -0.00000000000E+00  0.00000000000E+00  0.44898572601E+03  0.44898572601E+03  0.00000000000E+00 0.  1.
          2   -1    0    0  501    0  0.00000000000E+00 -0.00000000000E+00 -0.18786673501E+04  0.18786673501E+04  0.00000000000E+00 0. -1.
         23    2    1    2    0    0 -0.38203095950E+03 -0.44728271535E+03  0.17359442578E+03  0.61987569791E+03  0.90007637095E+02 0.  0.
         13    1    3    3    0    0 -0.84627064401E+02 -0.49235664056E+02  0.21529814959E+02  0.10024681330E+03  0.00000000000E+00 0. -1.
        -13    1    3    3    0    0 -0.29740389509E+03 -0.39804705129E+03  0.15206461082E+03  0.51962888461E+03  0.00000000000E+00 0.  1.
         22    1    1    2    0    0  0.38203095950E+03  0.44728271535E+03 -0.16032760499E+04  0.17077773782E+04  0.00000000000E+00 0. -1.
<mgrwt>
<rscale>  0 0.18368395E+04</rscale>
<asrwt>0</asrwt>
<pdfrwt beam="1">  1        2 0.28902575E+00 0.18368395E+04</pdfrwt>
<pdfrwt beam="2">  1       -2 0.69074727E-01 0.18368395E+04</pdfrwt>
<totfact> 0.14055399E+01</totfact>
</mgrwt>
</event>
<event>
 6    1  0.1773638E-005  0.3019770E+04  0.7818608E-02  0.8238108E-01
         -2   -1    0    0    0  501 -0.00000000000E+00  0.00000000000E+00  0.48306162803E+03  0.48306162803E+03  0.00000000000E+00 0.  1.
          2   -1    0    0  501    0  0.00000000000E+00 -0.00000000000E+00 -0.47193835920E+04  0.47193835920E+04  0.00000000000E+00 0. -1.
         23    2    1    2    0    0  0.11236017455E+04  0.10060511569E+04 -0.21751778977E+04  0.26484415641E+04  0.90686377233E+02 0.  0.
         11    1    3    3    0    0  0.21114798096E+03  0.21622057491E+03 -0.49008400854E+03  0.57577525330E+03  0.00000000000E+00 0. -1.
        -11    1    3    3    0    0  0.91245376452E+03  0.78983058195E+03 -0.16850938892E+04  0.20726663108E+04  0.00000000000E+00 0.  1.
         22    1    1    2    0    0 -0.11236017455E+04 -0.10060511569E+04 -0.20611440663E+04  0.25540036559E+04  0.00000000000E+00 0. -1.
<mgrwt>
<rscale>  0 0.30197703E+04</rscale>
<asrwt>0</asrwt>
<pdfrwt beam="1">  1        2 0.72605899E+00 0.30197703E+04</pdfrwt>
<pdfrwt beam="2">  1       -2 0.74317176E-01 0.30197703E+04</pdfrwt>
<totfact> 0.10173451E-01</totfact>
</mgrwt>
</event>
<event>
 6    1  0.1773638E-005  0.1588709E+04  0.7818608E-02  0.8827514E-01
          1   -1    0    0  501    0  0.00000000000E+00  0.00000000000E+00  0.21823755466E+04  0.21823755466E+04  0.00000000000E+00 0. -1.
         -1   -1    0    0    0  501 -0.00000000000E+00 -0.00000000000E+00 -0.28913421832E+03  0.28913421832E+03  0.00000000000E+00 0.  1.
         23    2    1    2    0    0 -0.40227827396E+03 -0.58170175833E+03  0.39692696018E+03  0.81646854685E+03  0.94154824277E+02 0.  0.
         11    1    3    3    0    0 -0.15095288588E+03 -0.14415966724E+03  0.12438003392E+03  0.24297978568E+03  0.00000000000E+00 0.  1.
        -11    1    3    3    0    0 -0.25132538808E+03 -0.43754209109E+03  0.27254692626E+03  0.57348876116E+03  0.00000000000E+00 0. -1.
         22    1    1    2    0    0  0.40227827396E+03  0.58170175833E+03  0.14963143681E+04  0.16550412181E+04  0.00000000000E+00 0. -1.
<mgrwt>
<rscale>  0 0.15887095E+04</rscale>
<asrwt>0</asrwt>
<pdfrwt beam="1">  1        1 0.33575007E+00 0.15887095E+04</pdfrwt>
<pdfrwt beam="2">  1       -1 0.44482189E-01 0.15887095E+04</pdfrwt>
<totfact> 0.10774544E+01</totfact>
</mgrwt>
</event>
<event>
 6    1  0.1773638E-005  0.2573721E+04  0.7818608E-02  0.8377183E-01
          1   -1    0    0  501    0  0.00000000000E+00  0.00000000000E+00  0.11388312223E+04  0.11388312223E+04  0.00000000000E+00 0. -1.
         -1   -1    0    0    0  501 -0.00000000000E+00 -0.00000000000E+00 -0.14541311063E+04  0.14541311063E+04  0.00000000000E+00 0.  1.
         23    2    1    2    0    0  0.21777197910E+03  0.66181515668E+03 -0.12460405254E+04  0.14303350977E+04  0.88416991521E+02 0.  0.
         13    1    3    3    0    0  0.13173604354E+03  0.48347063060E+03 -0.82912562286E+03  0.96878662991E+03  0.00000000000E+00 0.  1.
        -13    1    3    3    0    0  0.86035935561E+02  0.17834452608E+03 -0.41691490251E+03  0.46154846780E+03  0.00000000000E+00 0. -1.
         22    1    1    2    0    0 -0.21777197910E+03 -0.66181515668E+03  0.93074064136E+03  0.11626272309E+04  0.00000000000E+00 0. -1.
<mgrwt>
<rscale>  0 0.25737210E+04</rscale>
<asrwt>0</asrwt>
<pdfrwt beam="1">  1        1 0.17520480E+00 0.25737210E+04</pdfrwt>
<pdfrwt beam="2">  1       -1 0.22371248E+00 0.25737210E+04</pdfrwt>
<totfact> 0.10878351E+00</totfact>
</mgrwt>
</event>
<event>
 6    1  0.1773638E-005  0.3458254E+04  0.7818608E-02  0.8123755E-01
         -2   -1    0    0    0  501 -0.00000000000E+00  0.00000000000E+00  0.13043815465E+04  0.13043815465E+04  0.00000000000E+00 0.  1.
          2   -1    0    0  501    0  0.00000000000E+00 -0.00000000000E+00 -0.22921822810E+04  0.22921822810E+04  0.00000000000E+00 0. -1.
         23    2    1    2    0    0  0.80104843147E+03 -0.93719001037E+03  0.76519150138E+03  0.14534386598E+04  0.83439792656E+02 0.  0.
         11    1    3    3    0    0  0.40819449130E+03 -0.54140339934E+03  0.42214162849E+03  0.79871392754E+03  0.00000000000E+00 0.  1.
        -11    1    3    3    0    0  0.39285394016E+03 -0.39578661103E+03  0.34304987289E+03  0.65472473228E+03  0.00000000000E+00 0. -1.
         22    1    1    2    0    0 -0.80104843147E+03  0.93719001037E+03 -0.17529922359E+04  0.21431251677E+04  0.00000000000E+00 0. -1.
<mgrwt>
<rscale>  0 0.34582540E+04</rscale>
<asrwt>0</asrwt>
<pdfrwt beam="1">  1        2 0.35264342E+00 0.34582540E+04</pdfrwt>
<pdfrwt beam="2">  1       -2 0.20067409E+00 0.34582540E+04</pdfrwt>
<totfact> 0.49716435E-01</totfact>
</mgrwt>
</event>
<event>
 6    1  0.1773638E-005  0.8628788E+03  0.7818608E-02  0.9473213E-01
         -2   -1    0    0    0  501 -0.00000000000E+00  0.00000000000E+00  0.20120419106E+03  0.20120419106E+03  0.00000000000E+00 0. -1.
          2   -1    0    0  501    0  0.00000000000E+00 -0.00000000000E+00 -0.92512965891E+03  0.92512965891E+03  0.00000000000E+00 0.  1.
         23    2    1    2    0    0  0.17044116466E+03  0.73507884468E+02  0.13547390666E+03  0.24711778746E+03  0.90886862663E+02 0.  0.
         13    1    3    3    0    0  0.56902397843E+02 -0.64445493190E+01  0.78151632988E+02  0.96887010662E+02  0.00000000000E+00 0.  1.
        -13    1    3    3    0    0  0.11353876682E+03  0.79952433787E+02  0.57322273667E+02  0.15023077680E+03  0.00000000000E+00 0. -1.
         22    1    1    2    0    0 -0.17044116466E+03 -0.73507884468E+02 -0.85939937450E+03  0.87921606251E+03  0.00000000000E+00 0.  1.
<mgrwt>
<rscale>  0 0.86287882E+03</rscale>
<asrwt>0</asrwt>
<pdfrwt beam="1">  1        2 0.14232764E+00 0.86287882E+03</pdfrwt>
<pdfrwt beam="2">  1       -2 0.30954491E-01 0.86287882E+03</pdfrwt>
<totfact> 0.27341001E+02</totfact>
</mgrwt>
</event>
<event>
 6    1  0.1773638E-005  0.3530784E+04  0.7818608E-02  0.8106533E-01
         -2   -1    0    0    0  501 -0.00000000000E+00  0.00000000000E+00  0.19384592027E+04  0.19384592027E+04  0.00000000000E+00 0. -1.
          2   -1    0    0  501    0  0.00000000000E+00 -0.00000000000E+00 -0.16077766903E+04  0.16077766903E+04  0.00000000000E+00 0.  1.
         23    2    1    2    0    0 -0.13303686200E+04 -0.36898669486E+03 -0.93772603634E+03  0.16714313452E+04  0.91218288930E+02 0.  0.
         11    1    3    3    0    0 -0.12620295054E+04 -0.33365329291E+03 -0.90129249260E+03  0.15863073944E+04  0.00000000000E+00 0. -1.
        -11    1    3    3    0    0 -0.68339114598E+02 -0.35333401948E+02 -0.36433543738E+02  0.85123950723E+02  0.00000000000E+00 0.  1.
         22    1    1    2    0    0  0.13303686200E+04  0.36898669486E+03  0.12684085487E+04  0.18748045478E+04  0.00000000000E+00 0. -1.
<mgrwt>
<rscale>  0 0.35307843E+04</rscale>
<asrwt>0</asrwt>
<pdfrwt beam="1">  1        2 0.24735026E+00 0.35307843E+04</pdfrwt>
<pdfrwt beam="2">  1       -2 0.29822449E+00 0.35307843E+04</pdfrwt>
<totfact> 0.29489069E-01</totfact>
</mgrwt>
</event>
<event>
 6    1  0.1773638E-005  0.2548258E+04  0.7818608E-02  0.8385992E-01
         -1   -1    0    0    0  501 -0.00000000000E+00  0.00000000000E+00  0.17604021953E+04  0.17604021953E+04  0.00000000000E+00 0.  1.
          1   -1    0    0  501    0  0.00000000000E+00 -0.00000000000E+00 -0.92217797259E+03  0.92217797259E+03  0.00000000000E+00 0. -1.
         23    2    1    2    0    0 -0.54093817746E+03 -0.26155940404E+03  0.16005551054E+04  0.17119227575E+04  0.88743724046E+02 0.  0.
         11    1    3    3    0    0 -0.25292587020E+03 -0.13972430679E+03  0.88613803880E+03  0.93205954827E+03  0.00000000000E+00 0.  1.
        -11    1    3    3    0    0 -0.28801230725E+03 -0.12183509724E+03  0.71441706656E+03  0.77986320919E+03  0.00000000000E+00 0. -1.
         22    1    1    2    0    0  0.54093817746E+03  0.26155940404E+03 -0.76233088268E+03  0.97065741040E+03  0.00000000000E+00 0. -1.
<mgrwt>
<rscale>  0 0.25482575E+04</rscale>
<asrwt>0</asrwt>
<pdfrwt beam="1">  1        1 0.14187353E+00 0.25482575E+04</pdfrwt>
<pdfrwt beam="2">  1       -1 0.27083111E+00 0.25482575E+04</pdfrwt>
<totfact> 0.78795322E-01</totfact>
</mgrwt>
</event>
<event>
 6    1  0.1773638E-005  0.2879750E+04  0.7818608E-02  0.8278928E-01
          2   -1    0    0  501    0  0.00000000000E+00  0.00000000000E+00  0.85425354933E+03  0.85425354933E+03  0.00000000000E+00 0. -1.
         -2   -1    0    0    0  501 -0.00000000000E+00 -0.00000000000E+00 -0.24269604236E+04  0.24269604236E+04  0.00000000000E+00 0.  1.
         23    2    1    2    0    0 -0.52624382611E+03  0.57529585729E+03  0.58984411116E+03  0.98240457402E+03  0.96461306456E+02 0.  0.
         11    1    3    3    0    0 -0.36672562622E+03  0.46226597139E+03  0.43810596365E+03  0.73492472310E+03  0.00000000000E+00 0.  1.
        -11    1    3    3    0    0 -0.15951819988E+03  0.11302988591E+03  0.15173814751E+03  0.24747985092E+03  0.00000000000E+00 0. -1.
         22    1    1    2    0    0  0.52624382611E+03 -0.57529585729E+03 -0.21625509854E+04  0.22988093989E+04  0.00000000000E+00 0.  1.
<mgrwt>
<rscale>  0 0.28797497E+04</rscale>
<asrwt>0</asrwt>
<pdfrwt beam="1">  1        2 0.13142362E+00 0.28797497E+04</pdfrwt>
<pdfrwt beam="2">  1       -2 0.37337853E+00 0.28797497E+04</pdfrwt>
<totfact> 0.30090146E-01</totfact>
</mgrwt>
</event>
<event>
 6    1  0.1773638E-005  0.1682180E+04  0.7818608E-02  0.8771594E-01
          2   -1    0    0  501    0  0.00000000000E+00  0.00000000000E+00  0.29451134750E+04  0.29451134750E+04  0.00000000000E+00 0. -1.
         -2   -1    0    0    0  501 -0.00000000000E+00 -0.00000000000E+00 -0.24020541544E+03  0.24020541544E+03  0.00000000000E+00 0.  1.
         23    2    1    2    0    0  0.75374101018E+03 -0.36678788833E+03  0.14055774987E+04  0.16390592835E+04  0.90600026227E+02 0.  0.
         13    1    3    3    0    0  0.46561200270E+03 -0.18471936553E+03  0.88204462931E+03  0.10143562043E+04  0.00000000000E+00 0. -1.
        -13    1    3    3    0    0  0.28812900748E+03 -0.18206852280E+03  0.52353286936E+03  0.62470307926E+03  0.00000000000E+00 0.  1.
         22    1    1    2    0    0 -0.75374101018E+03  0.36678788833E+03  0.12993305609E+04  0.15462596069E+04  0.00000000000E+00 0. -1.
<mgrwt>
<rscale>  0 0.16821798E+04</rscale>
<asrwt>0</asrwt>
<pdfrwt beam="1">  1        2 0.45309435E+00 0.16821798E+04</pdfrwt>
<pdfrwt beam="2">  1       -2 0.36954681E-01 0.16821798E+04</pdfrwt>
<totfact> 0.12444350E+01</totfact>
</mgrwt>
</event>
<event>
 6    1  0.1773638E-005  0.3252712E+04  0.7818608E-02  0.8175033E-01
         -2   -1    0    0    0  501 -0.00000000000E+00  0.00000000000E+00  0.11266236119E+04  0.11266236119E+04  0.00000000000E+00 0.  1.
          2   -1    0    0  501    0  0.00000000000E+00 -0.00000000000E+00 -0.23477527385E+04  0.23477527385E+04  0.00000000000E+00 0. -1.
         23    2    1    2    0    0 -0.13473931262E+03 -0.55155862692E+03 -0.22374625111E+04  0.23102006121E+04  0.91743003626E+02 0.  0.
         11    1    3    3    0    0 -0.96136475939E+02 -0.45399067439E+03 -0.16781477705E+04  0.17411288563E+04  0.00000000000E+00 0.  1.
        -11    1    3    3    0    0 -0.38602836680E+02 -0.97567952527E+02 -0.55931474055E+03  0.56907175589E+03  0.00000000000E+00 0. -1.
         22    1    1    2    0    0  0.13473931262E+03  0.55155862692E+03  0.10163333844E+04  0.11641757383E+04  0.00000000000E+00 0.  1.
<mgrwt>
<rscale>  0 0.32527119E+04</rscale>
<asrwt>0</asrwt>
<pdfrwt beam="1">  1        2 0.36119272E+00 0.32527119E+04</pdfrwt>
<pdfrwt beam="2">  1       -2 0.17332671E+00 0.32527119E+04</pdfrwt>
<totfact> 0.72078538E-01</totfact>
</mgrwt>
</event>
<event>
 6    1  0.1773638E-005  0.6346626E+03  0.7818608E-02  0.9835992E-01
          2   -1    0    0  501    0  0.00000000000E+00  0.00000000000E+00  0.50387453941E+03  0.50387453941E+03  0.00000000000E+00 0.  1.
         -2   -1    0    0    0  501 -0.00000000000E+00 -0.00000000000E+00 -0.19984968586E+03  0.19984968586E+03  0.00000000000E+00 0. -1.
         23    2    1    2    0    0  0.24851561274E+03  0.71464252188E+02  0.34599200392E+03  0.44175401546E+03  0.92568862383E+02 0.  0.
         13    1    3    3    0    0  0.53766025831E+00  0.14044159201E+02  0.47162280852E+02  0.49211870736E+02  0.00000000000E+00 0.  1.
        -13    1    3    3    0    0  0.24797795249E+03  0.57420092987E+02  0.29882972307E+03  0.39254214473E+03  0.00000000000E+00 0. -1.
         22    1    1    2    0    0 -0.24851561274E+03 -0.71464252188E+02 -0.41967150374E+02  0.26197020981E+03  0.00000000000E+00 0. -1.
<mgrwt>
<rscale>  0 0.63466265E+03</rscale>
<asrwt>0</asrwt>
<pdfrwt beam="1">  1        2 0.77519159E-01 0.63466265E+03</pdfrwt>
<pdfrwt beam="2">  1       -2 0.30746106E-01 0.63466265E+03</pdfrwt>
<totfact> 0.60130204E+02</totfact>
</mgrwt>
</event>
<event>
 6    1  0.1773638E-005  0.2970124E+04  0.7818608E-02  0.8252314E-01
         -1   -1    0    0    0  501 -0.00000000000E+00  0.00000000000E+00  0.88815967749E+03  0.88815967749E+03  0.00000000000E+00 0.  1.
          1   -1    0    0  501    0  0.00000000000E+00 -0.00000000000E+00 -0.24831230311E+04  0.24831230311E+04  0.00000000000E+00 0. -1.
         23    2    1    2    0    0 -0.10512473350E+04  0.56748297159E+03 -0.17969476221E+04  0.21596905630E+04  0.89914897817E+02 0.  0.
         13    1    3    3    0    0 -0.74458830147E+03  0.35724480983E+03 -0.12145542971E+04  0.14687333773E+04  0.00000000000E+00 0. -1.
        -13    1    3    3    0    0 -0.30665903353E+03  0.21023816176E+03 -0.58239332501E+03  0.69095718574E+03  0.00000000000E+00 0.  1.
         22    1    1    2    0    0  0.10512473350E+04 -0.56748297159E+03  0.20198426856E+03  0.12115921455E+04  0.00000000000E+00 0.  1.
<mgrwt>
<rscale>  0 0.29701244E+04</rscale>
<asrwt>0</asrwt>
<pdfrwt beam="1">  1        1 0.38201892E+00 0.29701244E+04</pdfrwt>
<pdfrwt beam="2">  1       -1 0.13663995E+00 0.29701244E+04</pdfrwt>
<totfact> 0.53006934E-01</totfact>
</mgrwt>
</event>
<event>
 6    1  0.1782098E-005  0.4735811E+04  0.7818608E-02  0.7870605E-01
         -1   -1    0    0    0  501 -0.00000000000E+00  0.00000000000E+00  0.47481943488E+04  0.47481943488E+04  0.00000000000E+00 0.  1.
          1   -1    0    0  501    0  0.00000000000E+00 -0.00000000000E+00 -0.11808649803E+04  0.11808649803E+04  0.00000000000E+00 0. -1.
         23    2    1    2    0    0  0.38700548030E+03 -0.72633253945E+02  0.47064679894E+04  0.47237852404E+04  0.90869306391E+02 0.  0.
         13    1    3    3    0    0  0.17768149776E+03 -0.47353964891E+01  0.16973148152E+04  0.17065962383E+04  0.00000000000E+00 0.  1.
        -13    1    3    3    0    0  0.20932398254E+03 -0.67897857456E+02  0.30091531742E+04  0.30171890022E+04  0.00000000000E+00 0. -1.
         22    1    1    2    0    0 -0.38700548030E+03  0.72633253945E+02 -0.11391386209E+04  0.12052740887E+04  0.00000000000E+00 0. -1.
<mgrwt>
<rscale>  0 0.47358110E+04</rscale>
<asrwt>0</asrwt>
<pdfrwt beam="1">  1        1 0.18167154E+00 0.47358110E+04</pdfrwt>
<pdfrwt beam="2">  1       -1 0.73049143E+00 0.47358110E+04</pdfrwt>
<totfact> 0.12603300E-03</totfact>
</mgrwt>
</event>
<event>
 6    1  0.1773638E-005  0.3792745E+04  0.7818608E-02  0.8047713E-01
          1   -1    0    0  501    0  0.00000000000E+00  0.00000000000E+00  0.16637153920E+04  0.16637153920E+04  0.00000000000E+00 0. -1.
         -1   -1    0    0    0  501 -0.00000000000E+00 -0.00000000000E+00 -0.21615652329E+04  0.21615652329E+04  0.00000000000E+00 0.  1.
         23    2    1    2    0    0  0.20389584972E+03 -0.59714066337E+03  0.15535058203E+04  0.16790722151E+04  0.88049307814E+02 0.  0.
         13    1    3    3    0    0  0.64716804903E+02 -0.13368056333E+03  0.28453090899E+03  0.32096198532E+03  0.00000000000E+00 0. -1.
        -13    1    3    3    0    0  0.13917904481E+03 -0.46346010005E+03  0.12689749113E+04  0.13581102298E+04  0.00000000000E+00 0.  1.
         22    1    1    2    0    0 -0.20389584972E+03  0.59714066337E+03 -0.20513556612E+04  0.21462084098E+04  0.00000000000E+00 0.  1.
<mgrwt>
<rscale>  0 0.37927454E+04</rscale>
<asrwt>0</asrwt>
<pdfrwt beam="1">  1        1 0.25595621E+00 0.37927454E+04</pdfrwt>
<pdfrwt beam="2">  1       -1 0.33254850E+00 0.37927454E+04</pdfrwt>
<totfact> 0.81354265E-02</totfact>
</mgrwt>
</event>
<event>
 6    1  0.1773638E-005  0.1480569E+04  0.7818608E-02  0.8897478E-01
          2   -1    0    0  501    0  0.00000000000E+00  0.00000000000E+00  0.10153140822E+04  0.10153140822E+04  0.00000000000E+00 0. -1.
         -2   -1    0    0    0  501 -0.00000000000E+00 -0.00000000000E+00 -0.53975525316E+03  0.53975525316E+03  0.00000000000E+00 0.  1.
         23    2    1    2    0    0  0.56448442114E+03  0.45931287319E+03  0.11309025741E+03  0.74205368816E+03  0.90792580108E+02 0.  0.
         13    1    3    3    0    0  0.32309761935E+03  0.26136648482E+03  0.10991470080E+03  0.42986713351E+03  0.00000000000E+00 0. -1.
        -13    1    3    3    0    0  0.24138680180E+03  0.19794638837E+03  0.31755566115E+01  0.31218655466E+03  0.00000000000E+00 0.  1.
         22    1    1    2    0    0 -0.56448442114E+03 -0.45931287319E+03  0.36246857165E+03  0.81301564722E+03  0.00000000000E+00 0. -1.
<mgrwt>
<rscale>  0 0.14805690E+04</rscale>
<asrwt>0</asrwt>
<pdfrwt beam="1">  1        2 0.15620217E+00 0.14805690E+04</pdfrwt>
<pdfrwt beam="2">  1       -2 0.83039270E-01 0.14805690E+04</pdfrwt>
<totfact> 0.30281273E+01</totfact>
</mgrwt>
</event>
<event>
 6    1  0.1773638E-005  0.2830231E+04  0.7818608E-02  0.8293944E-01
         -2   -1    0    0    0  501 -0.00000000000E+00  0.00000000000E+00  0.91888277373E+03  0.91888277373E+03  0.00000000000E+00 0.  1.
          2   -1    0    0  501    0  0.00000000000E+00 -0.00000000000E+00 -0.21793333112E+04  0.21793333112E+04  0.00000000000E+00 0. -1.
         23    2    1    2    0    0  0.10164910561E+04 -0.97079999336E+03 -0.79555591635E+03  0.16177318050E+04  0.91871011808E+02 0.  0.
         11    1    3    3    0    0  0.51458614011E+03 -0.54749376466E+03 -0.44911535976E+03  0.87535874035E+03  0.00000000000E+00 0.  1.
        -11    1    3    3    0    0  0.50190491597E+03 -0.42330622870E+03 -0.34644055659E+03  0.74237306469E+03  0.00000000000E+00 0. -1.
         22    1    1    2    0    0 -0.10164910561E+04  0.97079999336E+03 -0.46489462111E+03  0.14804842799E+04  0.00000000000E+00 0.  1.
<mgrwt>
<rscale>  0 0.28302310E+04</rscale>
<asrwt>0</asrwt>
<pdfrwt beam="1">  1        2 0.33528205E+00 0.28302310E+04</pdfrwt>
<pdfrwt beam="2">  1       -2 0.14136658E+00 0.28302310E+04</pdfrwt>
<totfact> 0.16121561E+00</totfact>
</mgrwt>
</event>
<event>
 6    1  0.1773638E-005  0.1925062E+04  0.7818608E-02  0.8642481E-01
          1   -1    0    0  501    0  0.00000000000E+00  0.00000000000E+00  0.66802656510E+03  0.66802656510E+03  0.00000000000E+00 0. -1.
         -1   -1    0    0    0  501 -0.00000000000E+00 -0.00000000000E+00 -0.13868699429E+04  0.13868699429E+04  0.00000000000E+00 0.  1.
         23    2    1    2    0    0 -0.85297252585E+03 -0.36298912567E+02 -0.82969630449E+03  0.11939852976E+04  0.91242491818E+02 0.  0.
         13    1    3    3    0    0 -0.48718133561E+03  0.19467757388E+02 -0.44278182520E+03  0.65862006656E+03  0.00000000000E+00 0.  1.
        -13    1    3    3    0    0 -0.36579119025E+03 -0.55766669955E+02 -0.38691447929E+03  0.53536523106E+03  0.00000000000E+00 0. -1.
         22    1    1    2    0    0  0.85297252585E+03  0.36298912567E+02  0.11085292665E+03  0.86091121044E+03  0.00000000000E+00 0. -1.
<mgrwt>
<rscale>  0 0.19250620E+04</rscale>
<asrwt>0</asrwt>
<pdfrwt beam="1">  1        1 0.10277332E+00 0.19250620E+04</pdfrwt>
<pdfrwt beam="2">  1       -1 0.21336460E+00 0.19250620E+04</pdfrwt>
<totfact> 0.33291947E+00</totfact>
</mgrwt>
</event>
<event>
 6    1  0.1773638E-005  0.5810562E+04  0.7818608E-02  0.7714344E-01
         -2   -1    0    0    0  501 -0.00000000000E+00  0.00000000000E+00  0.30877335021E+04  0.30877335021E+04  0.00000000000E+00 0.  1.
          2   -1    0    0  501    0  0.00000000000E+00 -0.00000000000E+00 -0.27336095576E+04  0.27336095576E+04  0.00000000000E+00 0. -1.
         23    2    1    2    0    0 -0.30133404517E+02  0.57059085513E+03  0.30301541770E+04  0.30849915196E+04  0.94108414063E+02 0.  0.
         13    1    3    3    0    0  0.16010251165E+02  0.39681022648E+03  0.22046214287E+04  0.22401049814E+04  0.00000000000E+00 0. -1.
        -13    1    3    3    0    0 -0.46143655682E+02  0.17378062865E+03  0.82553274827E+03  0.84488653813E+03  0.00000000000E+00 0.  1.
         22    1    1    2    0    0  0.30133404517E+02 -0.57059085513E+03 -0.26760302324E+04  0.27363515401E+04  0.00000000000E+00 0. -1.
<mgrwt>
<rscale>  0 0.58105620E+04</rscale>
<asrwt>0</asrwt>
<pdfrwt beam="1">  1        2 0.42055532E+00 0.58105620E+04</pdfrwt>
<pdfrwt beam="2">  1       -2 0.47503592E+00 0.58105620E+04</pdfrwt>
<totfact> 0.41472648E-03</totfact>
</mgrwt>
</event>
<event>
 6    1  0.1773638E-005  0.1410518E+04  0.7818608E-02  0.8946240E-01
          2   -1    0    0  501    0  0.00000000000E+00  0.00000000000E+00  0.30132402000E+03  0.30132402000E+03  0.00000000000E+00 0. -1.
         -2   -1    0    0    0  501 -0.00000000000E+00 -0.00000000000E+00 -0.16506816017E+04  0.16506816017E+04  0.00000000000E+00 0.  1.
         23    2    1    2    0    0  0.40197536566E+03 -0.39524884617E+01 -0.14744138388E+04  0.15310081345E+04  0.92140779166E+02 0.  0.
         13    1    3    3    0    0  0.35305739528E+03  0.50247860047E+01 -0.11556612256E+04  0.12083987923E+04  0.00000000000E+00 0. -1.
        -13    1    3    3    0    0  0.48917970385E+02 -0.89772744664E+01 -0.31875261318E+03  0.32260934223E+03  0.00000000000E+00 0.  1.
         22    1    1    2    0    0 -0.40197536566E+03  0.39524884617E+01  0.12505625710E+03  0.42099748717E+03  0.00000000000E+00 0. -1.
<mgrwt>
<rscale>  0 0.14105177E+04</rscale>
<asrwt>0</asrwt>
<pdfrwt beam="1">  1        2 0.46357542E-01 0.14105177E+04</pdfrwt>
<pdfrwt beam="2">  1       -2 0.25395101E+00 0.14105177E+04</pdfrwt>
<totfact> 0.64651689E+00</totfact>
</mgrwt>
</event>
<event>
 6    1  0.1848253E-005  0.3553437E+04  0.7818608E-02  0.8101242E-01
          1   -1    0    0  501    0  0.00000000000E+00  0.00000000000E+00  0.25281331790E+04  0.25281331790E+04  0.00000000000E+00 0. -1.
         -1   -1    0    0    0  501 -0.00000000000E+00 -0.00000000000E+00 -0.12486399568E+04  0.12486399568E+04  0.00000000000E+00 0.  1.
         23    2    1    2    0    0 -0.56809160419E+03  0.12026851527E+04  0.18902888550E+04  0.23131300945E+04  0.90549607210E+02 0.  0.
         13    1    3    3    0    0 -0.13061539950E+03  0.34686781903E+03  0.47962636476E+03  0.60615106717E+03  0.00000000000E+00 0.  1.
        -13    1    3    3    0    0 -0.43747620469E+03  0.85581733368E+03  0.14106624903E+04  0.17069790273E+04  0.00000000000E+00 0. -1.
         22    1    1    2    0    0  0.56809160419E+03 -0.12026851527E+04 -0.61079563278E+03  0.14636430413E+04  0.00000000000E+00 0.  1.
<mgrwt>
<rscale>  0 0.35534367E+04</rscale>
<asrwt>0</asrwt>
<pdfrwt beam="1">  1        1 0.38894356E+00 0.35534367E+04</pdfrwt>
<pdfrwt beam="2">  1       -1 0.19209846E+00 0.35534367E+04</pdfrwt>
<totfact> 0.17964518E-01</totfact>
</mgrwt>
</event>
<event>
 6    1  0.1773638E-005  0.1151968E+04  0.7818608E-02  0.9155970E-01
          1   -1    0    0  501    0  0.00000000000E+00  0.00000000000E+00  0.16843690659E+04  0.16843690659E+04  0.00000000000E+00 0. -1.
         -1   -1    0    0    0  501 -0.00000000000E+00 -0.00000000000E+00 -0.19696264421E+03  0.19696264421E+03  0.00000000000E+00 0.  1.
         23    2    1    2    0    0  0.56467891254E+02 -0.55801973278E+03  0.56098803053E+03  0.79836094394E+03  0.89988785415E+02 0.  0.
         11    1    3    3    0    0  0.69567181830E+02 -0.40475257070E+03  0.44616895501E+03  0.60640825580E+03  0.00000000000E+00 0. -1.
        -11    1    3    3    0    0 -0.13099290575E+02 -0.15326716207E+03  0.11481907551E+03  0.19195268814E+03  0.00000000000E+00 0.  1.
         22    1    1    2    0    0 -0.56467891254E+02  0.55801973278E+03  0.92641839117E+03  0.10829707662E+04  0.00000000000E+00 0. -1.
<mgrwt>
<rscale>  0 0.11519684E+04</rscale>
<asrwt>0</asrwt>
<pdfrwt beam="1">  1        1 0.25913369E+00 0.11519684E+04</pdfrwt>
<pdfrwt beam="2">  1       -1 0.30301946E-01 0.11519684E+04</pdfrwt>
<totfact> 0.48649799E+01</totfact>
</mgrwt>
</event>
<event>
 6    1  0.1773638E-005  0.1720752E+04  0.7818608E-02  0.8749616E-01
         -1   -1    0    0    0  501 -0.00000000000E+00  0.00000000000E+00  0.10008102952E+04  0.10008102952E+04  0.00000000000E+00 0.  1.
          1   -1    0    0  501    0  0.00000000000E+00 -0.00000000000E+00 -0.73964754770E+03  0.73964754770E+03  0.00000000000E+00 0. -1.
         23    2    1    2    0    0  0.30229088468E+03 -0.56800085938E+01  0.94344478195E+03  0.99418656787E+03  0.83107362426E+02 0.  0.
         13    1    3    3    0    0  0.63564928972E+02 -0.19453387760E+02  0.31148941126E+03  0.31850367002E+03  0.00000000000E+00 0. -1.
        -13    1    3    3    0    0  0.23872595570E+03  0.13773379166E+02  0.63195537069E+03  0.67568289785E+03  0.00000000000E+00 0.  1.
         22    1    1    2    0    0 -0.30229088468E+03  0.56800085938E+01 -0.68228203443E+03  0.74627127505E+03  0.00000000000E+00 0. -1.
<mgrwt>
<rscale>  0 0.17207520E+04</rscale>
<asrwt>0</asrwt>
<pdfrwt beam="1">  1        1 0.11379193E+00 0.17207520E+04</pdfrwt>
<pdfrwt beam="2">  1       -1 0.15397081E+00 0.17207520E+04</pdfrwt>
<totfact> 0.77277889E+00</totfact>
</mgrwt>
</event>
<event>
 6    1  0.1773638E-005  0.1941423E+04  0.7818608E-02  0.8634508E-01
          2   -1    0    0  501    0  0.00000000000E+00  0.00000000000E+00  0.25986202524E+04  0.25986202524E+04  0.00000000000E+00 0. -1.
         -2   -1    0    0    0  501 -0.00000000000E+00 -0.00000000000E+00 -0.36260829187E+03  0.36260829187E+03  0.00000000000E+00 0.  1.
         23    2    1    2    0    0  0.48950519650E+03  0.16291773269E+03 -0.12789792288E+03  0.54167745742E+03  0.10439858320E+03 0.  0.
         11    1    3    3    0    0  0.27716743600E+03  0.40564459009E+02 -0.86244351931E+02  0.29309614660E+03  0.00000000000E+00 0.  1.
        -11    1    3    3    0    0  0.21233776050E+03  0.12235327368E+03 -0.41653570946E+02  0.24858131082E+03  0.00000000000E+00 0. -1.
         22    1    1    2    0    0 -0.48950519650E+03 -0.16291773269E+03  0.23639098834E+04  0.24195510869E+04  0.00000000000E+00 0. -1.
<mgrwt>
<rscale>  0 0.19414234E+04</rscale>
<asrwt>0</asrwt>
<pdfrwt beam="1">  1        2 0.39978772E+00 0.19414234E+04</pdfrwt>
<pdfrwt beam="2">  1       -2 0.55785893E-01 0.19414234E+04</pdfrwt>
<totfact> 0.85991212E+00</totfact>
</mgrwt>
</event>
<event>
 6    1  0.1773638E-005  0.1916793E+04  0.7818608E-02  0.8646542E-01
          2   -1    0    0  501    0  0.00000000000E+00  0.00000000000E+00  0.82245402160E+03  0.82245402160E+03  0.00000000000E+00 0. -1.
         -2   -1    0    0    0  501 -0.00000000000E+00 -0.00000000000E+00 -0.11168090844E+04  0.11168090844E+04  0.00000000000E+00 0.  1.
         23    2    1    2    0    0 -0.53458753987E+03  0.76328249529E+03 -0.36435054734E+03  0.10047667853E+04  0.91765822372E+02 0.  0.
         11    1    3    3    0    0 -0.24209141799E+03  0.27889451364E+03 -0.11893860995E+03  0.38799071811E+03  0.00000000000E+00 0.  1.
        -11    1    3    3    0    0 -0.29249612189E+03  0.48438798166E+03 -0.24541193739E+03  0.61677606723E+03  0.00000000000E+00 0. -1.
         22    1    1    2    0    0  0.53458753987E+03 -0.76328249529E+03  0.69995484569E+02  0.93449632063E+03  0.00000000000E+00 0. -1.
<mgrwt>
<rscale>  0 0.19167933E+04</rscale>
<asrwt>0</asrwt>
<pdfrwt beam="1">  1        2 0.12653139E+00 0.19167933E+04</pdfrwt>
<pdfrwt beam="2">  1       -2 0.17181678E+00 0.19167933E+04</pdfrwt>
<totfact> 0.64199120E+00</totfact>
</mgrwt>
</event>
<event>
 6    1  0.1773638E-005  0.3416478E+04  0.7818608E-02  0.8133874E-01
         -1   -1    0    0    0  501 -0.00000000000E+00  0.00000000000E+00  0.10600380784E+04  0.10600380784E+04  0.00000000000E+00 0.  1.
          1   -1    0    0  501    0  0.00000000000E+00 -0.00000000000E+00 -0.27528064510E+04  0.27528064510E+04  0.00000000000E+00 0. -1.
         23    2    1    2    0    0 -0.33896318670E+03 -0.16627384770E+04 -0.63982694470E+03  0.18157764445E+04  0.89834806218E+02 0.  0.
         11    1    3    3    0    0 -0.14415680263E+03 -0.90885783896E+03 -0.36738998122E+03  0.99084769439E+03  0.00000000000E+00 0.  1.
        -11    1    3    3    0    0 -0.19480638406E+03 -0.75388063807E+03 -0.27243696348E+03  0.82492875013E+03  0.00000000000E+00 0. -1.
         22    1    1    2    0    0  0.33896318670E+03  0.16627384770E+04 -0.10529414279E+04  0.19970680848E+04  0.00000000000E+00 0.  1.
<mgrwt>
<rscale>  0 0.34164775E+04</rscale>
<asrwt>0</asrwt>
<pdfrwt beam="1">  1        1 0.42350868E+00 0.34164775E+04</pdfrwt>
<pdfrwt beam="2">  1       -1 0.16308278E+00 0.34164775E+04</pdfrwt>
<totfact> 0.20480679E-01</totfact>
</mgrwt>
</event>
<event>
 6    1  0.1773638E-005  0.2768779E+04  0.7818608E-02  0.8313027E-01
          1   -1    0    0  501    0  0.00000000000E+00  0.00000000000E+00  0.18041217999E+04  0.18041217999E+04  0.00000000000E+00 0. -1.
         -1   -1    0    0    0  501 -0.00000000000E+00 -0.00000000000E+00 -0.10623087699E+04  0.10623087699E+04  0.00000000000E+00 0.  1.
         23    2    1    2    0    0 -0.72519794097E+03 -0.45722305287E+02 -0.84700611732E+03  0.11193333012E+04  0.86516436089E+02 0.  0.
         13    1    3    3    0    0 -0.24942132936E+03  0.15513654156E+02 -0.25005396266E+03  0.35352320609E+03  0.00000000000E+00 0.  1.
        -13    1    3    3    0    0 -0.47577661161E+03 -0.61235959444E+02 -0.59695215466E+03  0.76581009515E+03  0.00000000000E+00 0. -1.
         22    1    1    2    0    0  0.72519794097E+03  0.45722305287E+02  0.15888191473E+04  0.17470972685E+04  0.00000000000E+00 0. -1.
<mgrwt>
<rscale>  0 0.27687791E+04</rscale>
<asrwt>0</asrwt>
<pdfrwt beam="1">  1        1 0.27755720E+00 0.27687791E+04</pdfrwt>
<pdfrwt beam="2">  1       -1 0.16343212E+00 0.27687791E+04</pdfrwt>
<totfact> 0.96740148E-01</totfact>
</mgrwt>
</event>
<event>
 6    1  0.1773638E-005  0.1959407E+04  0.7818608E-02  0.8625838E-01
         -1   -1    0    0    0  501 -0.00000000000E+00  0.00000000000E+00  0.99143802675E+03  0.99143802675E+03  0.00000000000E+00 0.  1.
          1   -1    0    0  501    0  0.00000000000E+00 -0.00000000000E+00 -0.96810823474E+03  0.96810823474E+03  0.00000000000E+00 0. -1.
         23    2    1    2    0    0 -0.14175224079E+02 -0.40265516061E+03 -0.87925227283E+03  0.97111998751E+03  0.87506317051E+02 0.  0.
         13    1    3    3    0    0 -0.37060683616E+02 -0.86219435010E+02 -0.23305216278E+03  0.25123812573E+03  0.00000000000E+00 0. -1.
        -13    1    3    3    0    0  0.22885459537E+02 -0.31643572560E+03 -0.64620011005E+03  0.71988186178E+03  0.00000000000E+00 0.  1.
         22    1    1    2    0    0  0.14175224079E+02  0.40265516061E+03  0.90258206484E+03  0.98842627399E+03  0.00000000000E+00 0.  1.
<mgrwt>
<rscale>  0 0.19594074E+04</rscale>
<asrwt>0</asrwt>
<pdfrwt beam="1">  1        1 0.14893973E+00 0.19594074E+04</pdfrwt>
<pdfrwt beam="2">  1       -1 0.15252893E+00 0.19594074E+04</pdfrwt>
<totfact> 0.49769080E+00</totfact>
</mgrwt>
</event>
<event>
 6    1  0.1773638E-005  0.9855340E+03  0.7818608E-02  0.9324555E-01
         -2   -1    0    0    0  501 -0.00000000000E+00  0.00000000000E+00  0.96891010616E+03  0.96891010616E+03  0.00000000000E+00 0.  1.
          2   -1    0    0  501    0  0.00000000000E+00 -0.00000000000E+00 -0.25061077128E+03  0.25061077128E+03  0.00000000000E+00 0. -1.
         23    2    1    2    0    0  0.43526570378E+03  0.14216219051E+03  0.15637588318E+03  0.49465931350E+03  0.10280125628E+03 0.  0.
         13    1    3    3    0    0  0.85764549781E+02  0.67921044591E+02  0.15081142142E+02  0.11043671104E+03  0.00000000000E+00 0. -1.
        -13    1    3    3    0    0  0.34950115400E+03  0.74241145919E+02  0.14129474103E+03  0.38422260246E+03  0.00000000000E+00 0.  1.
         22    1    1    2    0    0 -0.43526570378E+03 -0.14216219051E+03  0.56192345170E+03  0.72486156394E+03  0.00000000000E+00 0.  1.
<mgrwt>
<rscale>  0 0.98553399E+03</rscale>
<asrwt>0</asrwt>
<pdfrwt beam="1">  1        2 0.38555504E-01 0.98553399E+03</pdfrwt>
<pdfrwt beam="2">  1       -2 0.14906309E+00 0.98553399E+03</pdfrwt>
<totfact> 0.40817515E+01</totfact>
</mgrwt>
</event>
<event>
 6    1  0.1773638E-005  0.5649180E+04  0.7818608E-02  0.7735489E-01
         -1   -1    0    0    0  501 -0.00000000000E+00  0.00000000000E+00  0.20416372313E+04  0.20416372313E+04  0.00000000000E+00 0.  1.
          1   -1    0    0  501    0  0.00000000000E+00 -0.00000000000E+00 -0.39077993309E+04  0.39077993309E+04  0.00000000000E+00 0. -1.
         23    2    1    2    0    0 -0.42987830778E+03  0.26641236486E+04 -0.18092694822E+04  0.32502539184E+04  0.91347139731E+02 0.  0.
         11    1    3    3    0    0 -0.28498323560E+03  0.14985983548E+04 -0.10037855550E+04  0.18260881452E+04  0.00000000000E+00 0. -1.
        -11    1    3    3    0    0 -0.14489507218E+03  0.11655252938E+04 -0.80548392722E+03  0.14241657732E+04  0.00000000000E+00 0.  1.
         22    1    1    2    0    0  0.42987830778E+03 -0.26641236486E+04 -0.56892617317E+02  0.26991826438E+04  0.00000000000E+00 0. -1.
<mgrwt>
<rscale>  0 0.56491800E+04</rscale>
<asrwt>0</asrwt>
<pdfrwt beam="1">  1        1 0.60119989E+00 0.56491800E+04</pdfrwt>
<pdfrwt beam="2">  1       -1 0.31409804E+00 0.56491800E+04</pdfrwt>
<totfact> 0.21115748E-03</totfact>
</mgrwt>
</event>
<event>
 6    1  0.1773638E-005  0.1427195E+04  0.7818608E-02  0.8934366E-01
         -2   -1    0    0    0  501 -0.00000000000E+00  0.00000000000E+00  0.96350862314E+03  0.96350862314E+03  0.00000000000E+00 0.  1.
          2   -1    0    0  501    0  0.00000000000E+00 -0.00000000000E+00 -0.52850711852E+03  0.52850711852E+03  0.00000000000E+00 0. -1.
         23    2    1    2    0    0 -0.65775379388E+03 -0.26903823693E+03  0.21145215879E+03  0.74703524774E+03  0.91257983838E+02 0.  0.
         11    1    3    3    0    0 -0.14746981423E+03 -0.21383682871E+02  0.35772093938E+02  0.15324572002E+03  0.00000000000E+00 0. -1.
        -11    1    3    3    0    0 -0.51028397965E+03 -0.24765455406E+03  0.17568006486E+03  0.59378952772E+03  0.00000000000E+00 0.  1.
         22    1    1    2    0    0  0.65775379388E+03  0.26903823693E+03  0.22354934583E+03  0.74498049392E+03  0.00000000000E+00 0. -1.
<mgrwt>
<rscale>  0 0.14271947E+04</rscale>
<asrwt>0</asrwt>
<pdfrwt beam="1">  1        2 0.81308788E-01 0.14271947E+04</pdfrwt>
<pdfrwt beam="2">  1       -2 0.14823210E+00 0.14271947E+04</pdfrwt>
<totfact> 0.17317482E+01</totfact>
</mgrwt>
</event>
<event>
 6    1  0.1773638E-005  0.2374871E+04  0.7818608E-02  0.8448972E-01
         -1   -1    0    0    0  501 -0.00000000000E+00  0.00000000000E+00  0.86520996029E+03  0.86520996029E+03  0.00000000000E+00 0.  1.
          1   -1    0    0  501    0  0.00000000000E+00 -0.00000000000E+00 -0.16296661928E+04  0.16296661928E+04  0.00000000000E+00 0. -1.
         23    2    1    2    0    0 -0.52156067697E+03 -0.10646048113E+04 -0.36743297232E+03  0.12446616062E+04  0.93630020548E+02 0.  0.
         13    1    3    3    0    0 -0.44862104360E+03 -0.89612377353E+03 -0.34417911168E+03  0.10596027176E+04  0.00000000000E+00 0.  1.
        -13    1    3    3    0    0 -0.72939633374E+02 -0.16848103782E+03 -0.23253860644E+02  0.18505888862E+03  0.00000000000E+00 0. -1.
         22    1    1    2    0    0  0.52156067697E+03  0.10646048113E+04 -0.39702326020E+03  0.12502145469E+04  0.00000000000E+00 0. -1.
<mgrwt>
<rscale>  0 0.23748713E+04</rscale>
<asrwt>0</asrwt>
<pdfrwt beam="1">  1        1 0.25071787E+00 0.23748713E+04</pdfrwt>
<pdfrwt beam="2">  1       -1 0.13310923E+00 0.23748713E+04</pdfrwt>
<totfact> 0.22836155E+00</totfact>
</mgrwt>
</event>
<event>
 6    1  0.1773638E-005  0.3463178E+04  0.7818608E-02  0.8122572E-01
          1   -1    0    0  501    0  0.00000000000E+00  0.00000000000E+00  0.13452666664E+04  0.13452666664E+04  0.00000000000E+00 0. -1.
         -1   -1    0    0    0  501 -0.00000000000E+00 -0.00000000000E+00 -0.22288527649E+04  0.22288527649E+04  0.00000000000E+00 0.  1.
         23    2    1    2    0    0 -0.14631929973E+04 -0.96698824972E+02  0.50592037090E+03  0.15539677937E+04  0.92607084853E+02 0.  0.
         13    1    3    3    0    0 -0.11871896134E+04 -0.45058394713E+02  0.39366558754E+03  0.12515678296E+04  0.00000000000E+00 0. -1.
        -13    1    3    3    0    0 -0.27600338386E+03 -0.51640430259E+02  0.11225478336E+03  0.30239996417E+03  0.00000000000E+00 0.  1.
         22    1    1    2    0    0  0.14631929973E+04  0.96698824972E+02 -0.13895064695E+04  0.20201516376E+04  0.00000000000E+00 0.  1.
<mgrwt>
<rscale>  0 0.34631785E+04</rscale>
<asrwt>0</asrwt>
<pdfrwt beam="1">  1        1 0.20696410E+00 0.34631785E+04</pdfrwt>
<pdfrwt beam="2">  1       -1 0.34290042E+00 0.34631785E+04</pdfrwt>
<totfact> 0.11894193E-01</totfact>
</mgrwt>
</event>
<event>
 6    1  0.1773638E-005  0.3022460E+04  0.7818608E-02  0.8237346E-01
         -1   -1    0    0    0  501 -0.00000000000E+00  0.00000000000E+00  0.65368671634E+03  0.65368671634E+03  0.00000000000E+00 0.  1.
          1   -1    0    0  501    0  0.00000000000E+00 -0.00000000000E+00 -0.34937475213E+04  0.34937475213E+04  0.00000000000E+00 0. -1.
         23    2    1    2    0    0  0.45312211764E+03 -0.95709067743E+03 -0.28989069102E+04  0.30868659549E+04  0.61138622885E+02 0.  0.
         11    1    3    3    0    0  0.18074720546E+03 -0.43873732436E+03 -0.12449174314E+04  0.13322835296E+04  0.00000000000E+00 0.  1.
        -11    1    3    3    0    0  0.27237491219E+03 -0.51835335307E+03 -0.16539894787E+04  0.17545824253E+04  0.00000000000E+00 0. -1.
         22    1    1    2    0    0 -0.45312211764E+03  0.95709067743E+03  0.58846105211E+02  0.10605682828E+04  0.00000000000E+00 0.  1.
<mgrwt>
<rscale>  0 0.30224602E+04</rscale>
<asrwt>0</asrwt>
<pdfrwt beam="1">  1        1 0.53749961E+00 0.30224602E+04</pdfrwt>
<pdfrwt beam="2">  1       -1 0.10056719E+00 0.30224602E+04</pdfrwt>
<totfact> 0.20180162E-01</totfact>
</mgrwt>
</event>
<event>
 6    1  0.1773638E-005  0.8865750E+03  0.7818608E-02  0.9442521E-01
          1   -1    0    0  501    0  0.00000000000E+00  0.00000000000E+00  0.28685338558E+03  0.28685338558E+03  0.00000000000E+00 0. -1.
         -1   -1    0    0    0  501 -0.00000000000E+00 -0.00000000000E+00 -0.68503226977E+03  0.68503226977E+03  0.00000000000E+00 0.  1.
         23    2    1    2    0    0 -0.11662840479E+03 -0.88703006175E+02  0.25244927961E+03  0.30496180989E+03  0.88321337223E+02 0.  0.
         11    1    3    3    0    0 -0.75985735541E+02 -0.62022979903E+02  0.82412942587E+02  0.12811157304E+03  0.00000000000E+00 0. -1.
        -11    1    3    3    0    0 -0.40642669252E+02 -0.26680026272E+02  0.17003633702E+03  0.17685023685E+03  0.00000000000E+00 0.  1.
         22    1    1    2    0    0  0.11662840479E+03  0.88703006175E+02 -0.65062816380E+03  0.66692384545E+03  0.00000000000E+00 0.  1.
<mgrwt>
<rscale>  0 0.88657504E+03</rscale>
<asrwt>0</asrwt>
<pdfrwt beam="1">  1        1 0.44131291E-01 0.88657504E+03</pdfrwt>
<pdfrwt beam="2">  1       -1 0.10538958E+00 0.88657504E+03</pdfrwt>
<totfact> 0.79175988E+01</totfact>
</mgrwt>
</event>
<event>
 6    1  0.1773638E-005  0.1630133E+04  0.7818608E-02  0.8802247E-01
         -3   -1    0    0    0  501 -0.00000000000E+00  0.00000000000E+00  0.71241773407E+03  0.71241773407E+03  0.00000000000E+00 0.  1.
          3   -1    0    0  501    0  0.00000000000E+00 -0.00000000000E+00 -0.93250488999E+03  0.93250488999E+03  0.00000000000E+00 0. -1.
         23    2    1    2    0    0  0.55906208460E+03 -0.39816658547E+03  0.32864184961E+03  0.76617888114E+03  0.89093032107E+02 0.  0.
         13    1    3    3    0    0  0.34470734990E+03 -0.19186090205E+03  0.18073003376E+03  0.43393214667E+03  0.00000000000E+00 0. -1.
        -13    1    3    3    0    0  0.21435473471E+03 -0.20630568342E+03  0.14791181585E+03  0.33224673447E+03  0.00000000000E+00 0.  1.
         22    1    1    2    0    0 -0.55906208460E+03  0.39816658547E+03 -0.54872900553E+03  0.87874374292E+03  0.00000000000E+00 0. -1.
<mgrwt>
<rscale>  0 0.16301325E+04</rscale>
<asrwt>0</asrwt>
<pdfrwt beam="1">  1        3 0.14346229E+00 0.16301325E+04</pdfrwt>
<pdfrwt beam="2">  1       -3 0.10960273E+00 0.16301325E+04</pdfrwt>
<totfact> 0.63921012E-01</totfact>
</mgrwt>
</event>
<event>
 6    1  0.1773638E-005  0.4299525E+04  0.7818608E-02  0.7946706E-01
          2   -1    0    0  501    0  0.00000000000E+00  0.00000000000E+00  0.18675139629E+04  0.18675139629E+04  0.00000000000E+00 0. -1.
         -2   -1    0    0    0  501 -0.00000000000E+00 -0.00000000000E+00 -0.24746688583E+04  0.24746688583E+04  0.00000000000E+00 0.  1.
         23    2    1    2    0    0  0.17630855757E+03 -0.21038910369E+04 -0.70771498952E+03  0.22285237818E+04  0.89529532436E+02 0.  0.
         13    1    3    3    0    0  0.10386367500E+03 -0.13859671425E+04 -0.50855709445E+03  0.14799739529E+04  0.00000000000E+00 0.  1.
        -13    1    3    3    0    0  0.72444882571E+02 -0.71792389437E+03 -0.19915789507E+03  0.74854982886E+03  0.00000000000E+00 0. -1.
         22    1    1    2    0    0 -0.17630855757E+03  0.21038910369E+04  0.10056009415E+03  0.21136590394E+04  0.00000000000E+00 0. -1.
<mgrwt>
<rscale>  0 0.42995249E+04</rscale>
<asrwt>0</asrwt>
<pdfrwt beam="1">  1        2 0.28730984E+00 0.42995249E+04</pdfrwt>
<pdfrwt beam="2">  1       -2 0.38071829E+00 0.42995249E+04</pdfrwt>
<totfact> 0.60369105E-02</totfact>
</mgrwt>
</event>
<event>
 6    1  0.1773638E-005  0.2996801E+04  0.7818608E-02  0.8244645E-01
         -2   -1    0    0    0  501 -0.00000000000E+00  0.00000000000E+00  0.12958246914E+04  0.12958246914E+04  0.00000000000E+00 0. -1.
          2   -1    0    0  501    0  0.00000000000E+00 -0.00000000000E+00 -0.17326453625E+04  0.17326453625E+04  0.00000000000E+00 0.  1.
         23    2    1    2    0    0 -0.94770405832E+03  0.11545979393E+04 -0.31843749467E+03  0.15300529023E+04  0.91760897473E+02 0.  0.
         11    1    3    3    0    0 -0.77240944919E+03  0.99004329589E+03 -0.25402237903E+03  0.12811438069E+04  0.00000000000E+00 0.  1.
        -11    1    3    3    0    0 -0.17529460913E+03  0.16455464343E+03 -0.64415115637E+02  0.24890909543E+03  0.00000000000E+00 0. -1.
         22    1    1    2    0    0  0.94770405832E+03 -0.11545979393E+04 -0.11838317647E+03  0.14984171516E+04  0.00000000000E+00 0.  1.
<mgrwt>
<rscale>  0 0.29968014E+04</rscale>
<asrwt>0</asrwt>
<pdfrwt beam="1">  1        2 0.26656083E+00 0.29968014E+04</pdfrwt>
<pdfrwt beam="2">  1       -2 0.19935764E+00 0.29968014E+04</pdfrwt>
<totfact> 0.10816628E+00</totfact>
</mgrwt>
</event>
<event>
 6    1  0.1773638E-005  0.4249208E+04  0.7818608E-02  0.7956077E-01
         -1   -1    0    0    0  501 -0.00000000000E+00  0.00000000000E+00  0.13935526014E+04  0.13935526014E+04  0.00000000000E+00 0.  1.
          1   -1    0    0  501    0  0.00000000000E+00 -0.00000000000E+00 -0.32391619408E+04  0.32391619408E+04  0.00000000000E+00 0. -1.
         23    2    1    2    0    0  0.54374208981E+03 -0.14944547105E+04  0.61115550289E+03  0.17061561826E+04  0.91692577637E+02 0.  0.
         13    1    3    3    0    0  0.26388247005E+03 -0.75137986825E+03  0.35419106425E+03  0.87158302783E+03  0.00000000000E+00 0. -1.
        -13    1    3    3    0    0  0.27985961976E+03 -0.74307484221E+03  0.25696443863E+03  0.83457315474E+03  0.00000000000E+00 0.  1.
         22    1    1    2    0    0 -0.54374208981E+03  0.14944547105E+04 -0.24567648423E+04  0.29265583596E+04  0.00000000000E+00 0. -1.
<mgrwt>
<rscale>  0 0.42492082E+04</rscale>
<asrwt>0</asrwt>
<pdfrwt beam="1">  1        1 0.49833260E+00 0.42492082E+04</pdfrwt>
<pdfrwt beam="2">  1       -1 0.21439271E+00 0.42492082E+04</pdfrwt>
<totfact> 0.36534410E-02</totfact>
</mgrwt>
</event>
<event>
 6    1  0.1773638E-005  0.2034763E+04  0.7818608E-02  0.8590538E-01
          2   -1    0    0  501    0  0.00000000000E+00  0.00000000000E+00  0.14050819143E+04  0.14050819143E+04  0.00000000000E+00 0. -1.
         -2   -1    0    0    0  501 -0.00000000000E+00 -0.00000000000E+00 -0.73665814347E+03  0.73665814347E+03  0.00000000000E+00 0.  1.
         23    2    1    2    0    0 -0.10078619746E+04  0.96240967287E+02  0.25753321816E+03  0.10490922966E+04  0.96037517844E+02 0.  0.
         13    1    3    3    0    0 -0.30659455272E+03 -0.14922334393E+02  0.75557363900E+02  0.31611993145E+03  0.00000000000E+00 0.  1.
        -13    1    3    3    0    0 -0.70126742186E+03  0.11116330168E+03  0.18197585426E+03  0.73297236519E+03  0.00000000000E+00 0. -1.
         22    1    1    2    0    0  0.10078619746E+04 -0.96240967287E+02  0.41089055265E+03  0.10926477611E+04  0.00000000000E+00 0. -1.
<mgrwt>
<rscale>  0 0.20347629E+04</rscale>
<asrwt>0</asrwt>
<pdfrwt beam="1">  1        2 0.21616645E+00 0.20347629E+04</pdfrwt>
<pdfrwt beam="2">  1       -2 0.11333202E+00 0.20347629E+04</pdfrwt>
<totfact> 0.81386255E+00</totfact>
</mgrwt>
</event>
<event>
 6    1  0.1773638E-005  0.2267949E+04  0.7818608E-02  0.8490667E-01
         -2   -1    0    0    0  501 -0.00000000000E+00  0.00000000000E+00  0.63696130723E+03  0.63696130723E+03  0.00000000000E+00 0.  1.
          2   -1    0    0  501    0  0.00000000000E+00 -0.00000000000E+00 -0.20188016384E+04  0.20188016384E+04  0.00000000000E+00 0. -1.
         23    2    1    2    0    0  0.32972883629E+03 -0.92433841645E+03 -0.13526042947E+04  0.16739394587E+04  0.97017111759E+02 0.  0.
         13    1    3    3    0    0  0.18679165668E+03 -0.40758441680E+03 -0.56775900013E+03  0.72344071080E+03  0.00000000000E+00 0. -1.
        -13    1    3    3    0    0  0.14293717961E+03 -0.51675399965E+03 -0.78484529454E+03  0.95049874794E+03  0.00000000000E+00 0.  1.
         22    1    1    2    0    0 -0.32972883629E+03  0.92433841645E+03 -0.29236036516E+02  0.98182348690E+03  0.00000000000E+00 0.  1.
<mgrwt>
<rscale>  0 0.22679493E+04</rscale>
<asrwt>0</asrwt>
<pdfrwt beam="1">  1        2 0.31058486E+00 0.22679493E+04</pdfrwt>
<pdfrwt beam="2">  1       -2 0.97994050E-01 0.22679493E+04</pdfrwt>
<totfact> 0.51367580E+00</totfact>
</mgrwt>
</event>
<event>
 6    1  0.1773638E-005  0.1298067E+04  0.7818608E-02  0.9031100E-01
          1   -1    0    0  501    0  0.00000000000E+00  0.00000000000E+00  0.14275941503E+04  0.14275941503E+04  0.00000000000E+00 0. -1.
         -1   -1    0    0    0  501 -0.00000000000E+00 -0.00000000000E+00 -0.29507289079E+03  0.29507289079E+03  0.00000000000E+00 0.  1.
         23    2    1    2    0    0  0.52175889016E+01 -0.33847195613E+03 -0.16003351043E+03  0.38652022221E+03  0.95899266906E+02 0.  0.
         11    1    3    3    0    0 -0.27880944077E+02 -0.28103298932E+03 -0.10843957948E+03  0.30251616573E+03  0.00000000000E+00 0.  1.
        -11    1    3    3    0    0  0.33098532979E+02 -0.57438966803E+02 -0.51593930953E+02  0.84004056474E+02  0.00000000000E+00 0. -1.
         22    1    1    2    0    0 -0.52175889016E+01  0.33847195613E+03  0.12925547700E+04  0.13361468189E+04  0.00000000000E+00 0. -1.
<mgrwt>
<rscale>  0 0.12980668E+04</rscale>
<asrwt>0</asrwt>
<pdfrwt beam="1">  1        1 0.21962987E+00 0.12980668E+04</pdfrwt>
<pdfrwt beam="2">  1       -1 0.45395830E-01 0.12980668E+04</pdfrwt>
<totfact> 0.34779671E+01</totfact>
</mgrwt>
</event>
<event>
 6    1  0.1773638E-005  0.1305927E+04  0.7818608E-02  0.9024878E-01
          2   -1    0    0  501    0  0.00000000000E+00  0.00000000000E+00  0.39547592054E+03  0.39547592054E+03  0.00000000000E+00 0.  1.
         -2   -1    0    0    0  501 -0.00000000000E+00 -0.00000000000E+00 -0.10780975043E+04  0.10780975043E+04  0.00000000000E+00 0. -1.
         23    2    1    2    0    0 -0.38592660877E+03 -0.25093700994E+03 -0.86010856146E+03  0.98020707260E+03  0.95448611111E+02 0.  0.
         13    1    3    3    0    0 -0.35513177071E+03 -0.22240901084E+03 -0.71089027037E+03  0.82519653367E+03  0.00000000000E+00 0.  1.
        -13    1    3    3    0    0 -0.30794838054E+02 -0.28527999099E+02 -0.14921829108E+03  0.15501053892E+03  0.00000000000E+00 0. -1.
         22    1    1    2    0    0  0.38592660877E+03  0.25093700994E+03  0.17748697767E+03  0.49336635227E+03  0.00000000000E+00 0.  1.
<mgrwt>
<rscale>  0 0.13059274E+04</rscale>
<asrwt>0</asrwt>
<pdfrwt beam="1">  1        2 0.60842450E-01 0.13059274E+04</pdfrwt>
<pdfrwt beam="2">  1       -2 0.16586115E+00 0.13059274E+04</pdfrwt>
<totfact> 0.17989270E+01</totfact>
</mgrwt>
</event>
<event>
 6    1  0.1773638E-005  0.2242085E+04  0.7818608E-02  0.8501113E-01
          1   -1    0    0  501    0  0.00000000000E+00  0.00000000000E+00  0.15538303254E+04  0.15538303254E+04  0.00000000000E+00 0. -1.
         -1   -1    0    0    0  501 -0.00000000000E+00 -0.00000000000E+00 -0.80879869681E+03  0.80879869681E+03  0.00000000000E+00 0.  1.
         23    2    1    2    0    0  0.66861988630E+03 -0.28877282905E+03  0.12685884841E+04  0.14656596358E+04  0.91646750637E+02 0.  0.
         11    1    3    3    0    0  0.45568575780E+03 -0.23632368948E+03  0.84583941549E+03  0.98941533891E+03  0.00000000000E+00 0. -1.
        -11    1    3    3    0    0  0.21293412850E+03 -0.52449139564E+02  0.42274906858E+03  0.47624429688E+03  0.00000000000E+00 0.  1.
         22    1    1    2    0    0 -0.66861988630E+03  0.28877282905E+03 -0.52355685552E+03  0.89696938639E+03  0.00000000000E+00 0.  1.
<mgrwt>
<rscale>  0 0.22420847E+04</rscale>
<asrwt>0</asrwt>
<pdfrwt beam="1">  1        1 0.23905082E+00 0.22420847E+04</pdfrwt>
<pdfrwt beam="2">  1       -1 0.12443057E+00 0.22420847E+04</pdfrwt>
<totfact> 0.30870965E+00</totfact>
</mgrwt>
</event>
<event>
 6    1  0.1773638E-005  0.3134202E+04  0.7818608E-02  0.8206414E-01
          2   -1    0    0  501    0  0.00000000000E+00  0.00000000000E+00  0.25714057021E+04  0.25714057021E+04  0.00000000000E+00 0. -1.
         -2   -1    0    0    0  501 -0.00000000000E+00 -0.00000000000E+00 -0.95504370090E+03  0.95504370090E+03  0.00000000000E+00 0.  1.
         23    2    1    2    0    0  0.73568079004E+03  0.10826262695E+04  0.17756062830E+04  0.22078650843E+04  0.92653625705E+02 0.  0.
         13    1    3    3    0    0  0.50608102865E+03  0.81077665592E+03  0.13235338791E+04  0.16325497611E+04  0.00000000000E+00 0. -1.
        -13    1    3    3    0    0  0.22959976139E+03  0.27184961356E+03  0.45207240390E+03  0.57531532327E+03  0.00000000000E+00 0.  1.
         22    1    1    2    0    0 -0.73568079004E+03 -0.10826262695E+04 -0.15924428176E+03  0.13185843187E+04  0.00000000000E+00 0.  1.
<mgrwt>
<rscale>  0 0.31342015E+04</rscale>
<asrwt>0</asrwt>
<pdfrwt beam="1">  1        2 0.39560087E+00 0.31342015E+04</pdfrwt>
<pdfrwt beam="2">  1       -2 0.14692980E+00 0.31342015E+04</pdfrwt>
<totfact> 0.84726424E-01</totfact>
</mgrwt>
</event>
<event>
 6    1  0.1773638E-005  0.3235756E+04  0.7818608E-02  0.8179437E-01
         -2   -1    0    0    0  501 -0.00000000000E+00  0.00000000000E+00  0.16429844902E+04  0.16429844902E+04  0.00000000000E+00 0.  1.
          2   -1    0    0  501    0  0.00000000000E+00 -0.00000000000E+00 -0.15931550339E+04  0.15931550339E+04  0.00000000000E+00 0. -1.
         23    2    1    2    0    0  0.52342905275E+03 -0.22959410291E+02  0.15544557249E+04  0.16429021545E+04  0.91048233563E+02 0.  0.
         11    1    3    3    0    0  0.25278118429E+03 -0.53591627939E+02  0.80740384453E+03  0.84774486603E+03  0.00000000000E+00 0. -1.
        -11    1    3    3    0    0  0.27064786846E+03  0.30632217648E+02  0.74705188036E+03  0.79515728847E+03  0.00000000000E+00 0.  1.
         22    1    1    2    0    0 -0.52342905275E+03  0.22959410291E+02 -0.15046262686E+04  0.15932373696E+04  0.00000000000E+00 0. -1.
<mgrwt>
<rscale>  0 0.32357559E+04</rscale>
<asrwt>0</asrwt>
<pdfrwt beam="1">  1        2 0.24510078E+00 0.32357559E+04</pdfrwt>
<pdfrwt beam="2">  1       -2 0.25276684E+00 0.32357559E+04</pdfrwt>
<totfact> 0.58370776E-01</totfact>
</mgrwt>
</event>
<event>
 6    1  0.1773638E-005  0.2530603E+04  0.7818608E-02  0.8392163E-01
          1   -1    0    0  501    0  0.00000000000E+00  0.00000000000E+00  0.17835267279E+04  0.17835267279E+04  0.00000000000E+00 0. -1.
         -1   -1    0    0    0  501 -0.00000000000E+00 -0.00000000000E+00 -0.89765315008E+03  0.89765315008E+03  0.00000000000E+00 0.  1.
         23    2    1    2    0    0  0.11996203068E+04  0.18102627891E+03  0.68959114607E+02  0.12185765024E+04  0.91180801590E+02 0.  0.
         13    1    3    3    0    0  0.11762696516E+04  0.18407515848E+03  0.78494644050E+02  0.11931703007E+04  0.00000000000E+00 0. -1.
        -13    1    3    3    0    0  0.23350655165E+02 -0.30488795679E+01 -0.95355294431E+01  0.25406201704E+02  0.00000000000E+00 0.  1.
         22    1    1    2    0    0 -0.11996203068E+04 -0.18102627891E+03  0.81691446319E+03  0.14626033756E+04  0.00000000000E+00 0.  1.
<mgrwt>
<rscale>  0 0.25306034E+04</rscale>
<asrwt>0</asrwt>
<pdfrwt beam="1">  1        1 0.27438873E+00 0.25306034E+04</pdfrwt>
<pdfrwt beam="2">  1       -1 0.13810048E+00 0.25306034E+04</pdfrwt>
<totfact> 0.16089386E+00</totfact>
</mgrwt>
</event>
<event>
 6    1  0.1773638E-005  0.1946586E+04  0.7818608E-02  0.8632009E-01
         -1   -1    0    0    0  501 -0.00000000000E+00  0.00000000000E+00  0.59899133804E+03  0.59899133804E+03  0.00000000000E+00 0.  1.
          1   -1    0    0  501    0  0.00000000000E+00 -0.00000000000E+00 -0.15814912701E+04  0.15814912701E+04  0.00000000000E+00 0. -1.
         23    2    1    2    0    0 -0.23802401263E+02  0.57406897034E+03 -0.13696145640E+04  0.14876770977E+04  0.84955023641E+02 0.  0.
         13    1    3    3    0    0 -0.33031605646E+02  0.24129648831E+03 -0.49034003874E+03  0.54749286373E+03  0.00000000000E+00 0. -1.
        -13    1    3    3    0    0  0.92292043833E+01  0.33277248204E+03 -0.87927452524E+03  0.94018423394E+03  0.00000000000E+00 0.  1.
         22    1    1    2    0    0  0.23802401263E+02 -0.57406897034E+03  0.38711463195E+03  0.69280551043E+03  0.00000000000E+00 0.  1.
<mgrwt>
<rscale>  0 0.19465863E+04</rscale>
<asrwt>0</asrwt>
<pdfrwt beam="1">  1        1 0.24330635E+00 0.19465863E+04</pdfrwt>
<pdfrwt beam="2">  1       -1 0.92152513E-01 0.19465863E+04</pdfrwt>
<totfact> 0.61374645E+00</totfact>
</mgrwt>
</event>
<event>
 6    1  0.1773638E-005  0.4434259E+03  0.7818608E-02  0.1029701E+00
          2   -1    0    0  501    0  0.00000000000E+00  0.00000000000E+00  0.32013065144E+03  0.32013065144E+03  0.00000000000E+00 0. -1.
         -2   -1    0    0    0  501 -0.00000000000E+00 -0.00000000000E+00 -0.15355175411E+03  0.15355175411E+03  0.00000000000E+00 0.  1.
         23    2    1    2    0    0 -0.13439281200E+03 -0.14899983949E+03  0.12174689382E+02  0.22049662492E+03  0.90598887704E+02 0.  0.
         11    1    3    3    0    0 -0.80991071176E+02 -0.11505383108E+03 -0.30764131782E+02  0.14402558613E+03  0.00000000000E+00 0.  1.
        -11    1    3    3    0    0 -0.53401740821E+02 -0.33946008410E+02  0.42938821164E+02  0.76471038783E+02  0.00000000000E+00 0. -1.
         22    1    1    2    0    0  0.13439281200E+03  0.14899983949E+03  0.15440420794E+03  0.25318578063E+03  0.00000000000E+00 0. -1.
<mgrwt>
<rscale>  0 0.44342586E+03</rscale>
<asrwt>0</asrwt>
<pdfrwt beam="1">  1        2 0.49250869E-01 0.44342586E+03</pdfrwt>
<pdfrwt beam="2">  1       -2 0.23623347E-01 0.44342586E+03</pdfrwt>
<totfact> 0.16122028E+03</totfact>
</mgrwt>
</event>
<event>
 6    1  0.1773638E-005  0.2355371E+04  0.7818608E-02  0.8456404E-01
         -1   -1    0    0    0  501 -0.00000000000E+00  0.00000000000E+00  0.15439260531E+04  0.15439260531E+04  0.00000000000E+00 0.  1.
          1   -1    0    0  501    0  0.00000000000E+00 -0.00000000000E+00 -0.89832209014E+03  0.89832209014E+03  0.00000000000E+00 0. -1.
         23    2    1    2    0    0 -0.59969033674E+03 -0.97231443489E+03  0.34203947893E+02  0.11465499382E+04  0.91558671701E+02 0.  0.
         13    1    3    3    0    0 -0.54114211928E+03 -0.90476464841E+03  0.51489985587E+02  0.10555022884E+04  0.00000000000E+00 0.  1.
        -13    1    3    3    0    0 -0.58548217469E+02 -0.67549786487E+02 -0.17286037694E+02  0.91047649735E+02  0.00000000000E+00 0. -1.
         22    1    1    2    0    0  0.59969033674E+03  0.97231443489E+03  0.61140001511E+03  0.12956982051E+04  0.00000000000E+00 0.  1.
<mgrwt>
<rscale>  0 0.23553708E+04</rscale>
<asrwt>0</asrwt>
<pdfrwt beam="1">  1        1 0.13820340E+00 0.23553708E+04</pdfrwt>
<pdfrwt beam="2">  1       -1 0.23752708E+00 0.23553708E+04</pdfrwt>
<totfact> 0.13821060E+00</totfact>
</mgrwt>
</event>
<event>
 6    1  0.2234976E-005  0.1715545E+04  0.7818608E-02  0.8752548E-01
         -1   -1    0    0    0  501 -0.00000000000E+00  0.00000000000E+00  0.37561871216E+03  0.37561871216E+03  0.00000000000E+00 0.  1.
          1   -1    0    0  501    0  0.00000000000E+00 -0.00000000000E+00 -0.19588311059E+04  0.19588311059E+04  0.00000000000E+00 0. -1.
         23    2    1    2    0    0  0.23948273000E+02  0.70107898969E+03 -0.12285291921E+03  0.71434640642E+03  0.55791388611E+02 0.  0.
         11    1    3    3    0    0  0.34395603578E+02  0.37682914146E+03 -0.48234455090E+02  0.38145749705E+03  0.00000000000E+00 0. -1.
        -11    1    3    3    0    0 -0.10447330578E+02  0.32424984823E+03 -0.74618464116E+02  0.33288890937E+03  0.00000000000E+00 0.  1.
         22    1    1    2    0    0 -0.23948273000E+02 -0.70107898969E+03 -0.14603594746E+04  0.16201034117E+04  0.00000000000E+00 0. -1.
<mgrwt>
<rscale>  0 0.17155449E+04</rscale>
<asrwt>0</asrwt>
<pdfrwt beam="1">  1        1 0.30135864E+00 0.17155449E+04</pdfrwt>
<pdfrwt beam="2">  1       -1 0.57787494E-01 0.17155449E+04</pdfrwt>
<totfact> 0.91635489E+00</totfact>
</mgrwt>
</event>
<event>
 6    1  0.1773638E-005  0.1849637E+04  0.7818608E-02  0.8680339E-01
          1   -1    0    0  501    0  0.00000000000E+00  0.00000000000E+00  0.88459819476E+03  0.88459819476E+03  0.00000000000E+00 0. -1.
         -1   -1    0    0    0  501 -0.00000000000E+00 -0.00000000000E+00 -0.96686790837E+03  0.96686790837E+03  0.00000000000E+00 0.  1.
         23    2    1    2    0    0 -0.53863938957E+03 -0.22305054573E+03  0.67434366264E+03  0.89629714475E+03  0.93409091600E+02 0.  0.
         13    1    3    3    0    0 -0.44945532246E+03 -0.20886607441E+03  0.52665725241E+03  0.72318945335E+03  0.00000000000E+00 0.  1.
        -13    1    3    3    0    0 -0.89184067110E+02 -0.14184471321E+02  0.14768641023E+03  0.17310769139E+03  0.00000000000E+00 0. -1.
         22    1    1    2    0    0  0.53863938957E+03  0.22305054573E+03 -0.75661337625E+03  0.95516895839E+03  0.00000000000E+00 0.  1.
<mgrwt>
<rscale>  0 0.18496374E+04</rscale>
<asrwt>0</asrwt>
<pdfrwt beam="1">  1        1 0.13609203E+00 0.18496374E+04</pdfrwt>
<pdfrwt beam="2">  1       -1 0.14874891E+00 0.18496374E+04</pdfrwt>
<totfact> 0.62833491E+00</totfact>
</mgrwt>
</event>
<event>
 6    1  0.1773638E-005  0.2899054E+04  0.7818608E-02  0.8273159E-01
          2   -1    0    0  501    0  0.00000000000E+00  0.00000000000E+00  0.35101752205E+04  0.35101752205E+04  0.00000000000E+00 0. -1.
         -2   -1    0    0    0  501 -0.00000000000E+00 -0.00000000000E+00 -0.59858225827E+03  0.59858225827E+03  0.00000000000E+00 0.  1.
         23    2    1    2    0    0  0.49413718056E+03  0.68727473774E+03 -0.20788922369E+03  0.87646924492E+03  0.91990703947E+02 0.  0.
         11    1    3    3    0    0  0.93985286781E+02  0.10540236237E+03 -0.33479658485E+01  0.14125898555E+03  0.00000000000E+00 0. -1.
        -11    1    3    3    0    0  0.40015189378E+03  0.58187237537E+03 -0.20454125784E+03  0.73521025937E+03  0.00000000000E+00 0.  1.
         22    1    1    2    0    0 -0.49413718056E+03 -0.68727473774E+03  0.31194821859E+04  0.32322882338E+04  0.00000000000E+00 0. -1.
<mgrwt>
<rscale>  0 0.28990541E+04</rscale>
<asrwt>0</asrwt>
<pdfrwt beam="1">  1        2 0.54002694E+00 0.28990541E+04</pdfrwt>
<pdfrwt beam="2">  1       -2 0.92089580E-01 0.28990541E+04</pdfrwt>
<totfact> 0.69137712E-01</totfact>
</mgrwt>
</event>
<event>
 6    1  0.1773638E-005  0.2676056E+04  0.7818608E-02  0.8342816E-01
         -2   -1    0    0    0  501 -0.00000000000E+00  0.00000000000E+00  0.88453249630E+03  0.88453249630E+03  0.00000000000E+00 0. -1.
          2   -1    0    0  501    0  0.00000000000E+00 -0.00000000000E+00 -0.20240281281E+04  0.20240281281E+04  0.00000000000E+00 0.  1.
         23    2    1    2    0    0 -0.55809939632E+03 -0.23488444359E+02 -0.18900190473E+04  0.19729795000E+04  0.91920970927E+02 0.  0.
         11    1    3    3    0    0 -0.11576840415E+03 -0.22011749033E+02 -0.52570248287E+03  0.53874849512E+03  0.00000000000E+00 0. -1.
        -11    1    3    3    0    0 -0.44233099216E+03 -0.14766953263E+01 -0.13643165644E+04  0.14342310048E+04  0.00000000000E+00 0.  1.
         22    1    1    2    0    0  0.55809939632E+03  0.23488444359E+02  0.75052341550E+03  0.93558112444E+03  0.00000000000E+00 0. -1.
<mgrwt>
<rscale>  0 0.26760558E+04</rscale>
<asrwt>0</asrwt>
<pdfrwt beam="1">  1        2 0.31138894E+00 0.26760558E+04</pdfrwt>
<pdfrwt beam="2">  1       -2 0.13608192E+00 0.26760558E+04</pdfrwt>
<totfact> 0.22012855E+00</totfact>
</mgrwt>
</event>
<event>
 6    1  0.1773638E-005  0.1742206E+04  0.7818608E-02  0.8737652E-01
         -1   -1    0    0    0  501 -0.00000000000E+00  0.00000000000E+00  0.43891860990E+03  0.43891860990E+03  0.00000000000E+00 0.  1.
          1   -1    0    0  501    0  0.00000000000E+00 -0.00000000000E+00 -0.17288412661E+04  0.17288412661E+04  0.00000000000E+00 0. -1.
         23    2    1    2    0    0  0.31236835584E+03 -0.81073598830E+03 -0.65481424341E+03  0.10915491492E+04  0.88493046745E+02 0.  0.
         11    1    3    3    0    0  0.14757119255E+03 -0.29117406460E+03 -0.21151833034E+03  0.38897248854E+03  0.00000000000E+00 0.  1.
        -11    1    3    3    0    0  0.16479716328E+03 -0.51956192370E+03 -0.44329591307E+03  0.70257666067E+03  0.00000000000E+00 0. -1.
         22    1    1    2    0    0 -0.31236835584E+03  0.81073598830E+03 -0.63510841279E+03  0.10762107268E+04  0.00000000000E+00 0. -1.
<mgrwt>
<rscale>  0 0.17422062E+04</rscale>
<asrwt>0</asrwt>
<pdfrwt beam="1">  1        1 0.26597558E+00 0.17422062E+04</pdfrwt>
<pdfrwt beam="2">  1       -1 0.67525940E-01 0.17422062E+04</pdfrwt>
<totfact> 0.95925460E+00</totfact>
</mgrwt>
</event>
<event>
 6    1  0.1773638E-005  0.3169259E+04  0.7818608E-02  0.8196983E-01
         -2   -1    0    0    0  501 -0.00000000000E+00  0.00000000000E+00  0.11036685800E+04  0.11036685800E+04  0.00000000000E+00 0.  1.
          2   -1    0    0  501    0  0.00000000000E+00 -0.00000000000E+00 -0.22751849059E+04  0.22751849059E+04  0.00000000000E+00 0. -1.
         23    2    1    2    0    0 -0.67454736623E+03 -0.11100401340E+04  0.37914335019E+03  0.13560463574E+04  0.88931405220E+02 0.  0.
         13    1    3    3    0    0 -0.42237768801E+03 -0.61078255315E+03  0.22114062175E+03  0.77482992531E+03  0.00000000000E+00 0.  1.
        -13    1    3    3    0    0 -0.25216967822E+03 -0.49925758089E+03  0.15800272845E+03  0.58121643205E+03  0.00000000000E+00 0. -1.
         22    1    1    2    0    0  0.67454736623E+03  0.11100401340E+04 -0.15506596760E+04  0.20228071286E+04  0.00000000000E+00 0.  1.
<mgrwt>
<rscale>  0 0.31692586E+04</rscale>
<asrwt>0</asrwt>
<pdfrwt beam="1">  1        2 0.35002845E+00 0.31692586E+04</pdfrwt>
<pdfrwt beam="2">  1       -2 0.16979517E+00 0.31692586E+04</pdfrwt>
<totfact> 0.84537972E-01</totfact>
</mgrwt>
</event>
<event>
 6    1  0.1773638E-005  0.3290253E+04  0.7818608E-02  0.8165380E-01
          1   -1    0    0  501    0  0.00000000000E+00  0.00000000000E+00  0.31497092166E+04  0.31497092166E+04  0.00000000000E+00 0. -1.
         -1   -1    0    0    0  501 -0.00000000000E+00 -0.00000000000E+00 -0.85926684787E+03  0.85926684787E+03  0.00000000000E+00 0.  1.
         23    2    1    2    0    0 -0.24706648873E+03 -0.14455430018E+04  0.20512311200E+04  0.25230896484E+04  0.88294089483E+02 0.  0.
         13    1    3    3    0    0 -0.57466546019E+02 -0.27903895861E+03  0.34280797389E+03  0.44573809720E+03  0.00000000000E+00 0.  1.
        -13    1    3    3    0    0 -0.18959994271E+03 -0.11665040432E+04  0.17084231461E+04  0.20773515512E+04  0.00000000000E+00 0. -1.
         22    1    1    2    0    0  0.24706648873E+03  0.14455430018E+04  0.23921124874E+03  0.14858864161E+04  0.00000000000E+00 0.  1.
<mgrwt>
<rscale>  0 0.32902527E+04</rscale>
<asrwt>0</asrwt>
<pdfrwt beam="1">  1        1 0.48457064E+00 0.32902527E+04</pdfrwt>
<pdfrwt beam="2">  1       -1 0.13219490E+00 0.32902527E+04</pdfrwt>
<totfact> 0.18687940E-01</totfact>
</mgrwt>
</event>
<event>
 6    1  0.1773638E-005  0.3747339E+04  0.7818608E-02  0.8057551E-01
         -2   -1    0    0    0  501 -0.00000000000E+00  0.00000000000E+00  0.20528936203E+04  0.20528936203E+04  0.00000000000E+00 0.  1.
          2   -1    0    0  501    0  0.00000000000E+00 -0.00000000000E+00 -0.17100922454E+04  0.17100922454E+04  0.00000000000E+00 0. -1.
         23    2    1    2    0    0  0.29915184418E+03 -0.81410992235E+03  0.18380060612E+04  0.20344304441E+04  0.91510433534E+02 0.  0.
         13    1    3    3    0    0  0.49887100066E+02 -0.60779402310E+02  0.16203060524E+03  0.18010212528E+03  0.00000000000E+00 0. -1.
        -13    1    3    3    0    0  0.24926474412E+03 -0.75333052004E+03  0.16759754559E+04  0.18543283188E+04  0.00000000000E+00 0.  1.
         22    1    1    2    0    0 -0.29915184418E+03  0.81410992235E+03 -0.14952046863E+04  0.17285554216E+04  0.00000000000E+00 0. -1.
<mgrwt>
<rscale>  0 0.37473390E+04</rscale>
<asrwt>0</asrwt>
<pdfrwt beam="1">  1        2 0.26309112E+00 0.37473390E+04</pdfrwt>
<pdfrwt beam="2">  1       -2 0.31582979E+00 0.37473390E+04</pdfrwt>
<totfact> 0.19803588E-01</totfact>
</mgrwt>
</event>
<event>
 6    1  0.1773638E-005  0.1405896E+04  0.7818608E-02  0.8949562E-01
         -1   -1    0    0    0  501 -0.00000000000E+00  0.00000000000E+00  0.18255131317E+04  0.18255131317E+04  0.00000000000E+00 0.  1.
          1   -1    0    0  501    0  0.00000000000E+00 -0.00000000000E+00 -0.27068311123E+03  0.27068311123E+03  0.00000000000E+00 0. -1.
         23    2    1    2    0    0 -0.28540374332E+03 -0.52865904040E+03  0.13158422003E+04  0.14496277192E+04  0.95100739120E+02 0.  0.
         13    1    3    3    0    0 -0.54162027085E+02 -0.19312614198E+03  0.41741487437E+03  0.46310518162E+03  0.00000000000E+00 0.  1.
        -13    1    3    3    0    0 -0.23124171624E+03 -0.33553289842E+03  0.89842732589E+03  0.98652253758E+03  0.00000000000E+00 0. -1.
         22    1    1    2    0    0  0.28540374332E+03  0.52865904040E+03  0.23898782025E+03  0.64656852376E+03  0.00000000000E+00 0. -1.
<mgrwt>
<rscale>  0 0.14058955E+04</rscale>
<asrwt>0</asrwt>
<pdfrwt beam="1">  1        1 0.41643557E-01 0.14058955E+04</pdfrwt>
<pdfrwt beam="2">  1       -1 0.28084817E+00 0.14058955E+04</pdfrwt>
<totfact> 0.43047899E+00</totfact>
</mgrwt>
</event>
<event>
 6    1  0.1773638E-005  0.3107985E+04  0.7818608E-02  0.8213550E-01
         -3   -1    0    0    0  501 -0.00000000000E+00  0.00000000000E+00  0.15789344719E+04  0.15789344719E+04  0.00000000000E+00 0.  1.
          3   -1    0    0  501    0  0.00000000000E+00 -0.00000000000E+00 -0.15294442582E+04  0.15294442582E+04  0.00000000000E+00 0. -1.
         23    2    1    2    0    0 -0.15001240584E+04  0.27960608988E+03  0.31193020152E+03  0.15600162069E+04  0.88308318996E+02 0.  0.
         11    1    3    3    0    0 -0.64555313066E+03  0.11110535127E+03  0.90319626141E+02  0.66124192128E+03  0.00000000000E+00 0. -1.
        -11    1    3    3    0    0 -0.85457092773E+03  0.16850073861E+03  0.22161057538E+03  0.89877428565E+03  0.00000000000E+00 0.  1.
         22    1    1    2    0    0  0.15001240584E+04 -0.27960608988E+03 -0.26243998775E+03  0.15483625232E+04  0.00000000000E+00 0. -1.
<mgrwt>
<rscale>  0 0.31079847E+04</rscale>
<asrwt>0</asrwt>
<pdfrwt beam="1">  1        3 0.23529912E+00 0.31079847E+04</pdfrwt>
<pdfrwt beam="2">  1       -3 0.24291300E+00 0.31079847E+04</pdfrwt>
<totfact> 0.15900293E-02</totfact>
</mgrwt>
</event>
<event>
 6    1  0.1773638E-005  0.8765324E+03  0.7818608E-02  0.9455402E-01
          2   -1    0    0  501    0  0.00000000000E+00  0.00000000000E+00  0.46401552801E+03  0.46401552801E+03  0.00000000000E+00 0. -1.
         -2   -1    0    0    0  501 -0.00000000000E+00 -0.00000000000E+00 -0.41394574013E+03  0.41394574013E+03  0.00000000000E+00 0.  1.
         23    2    1    2    0    0  0.16958387161E+03 -0.24440586340E+03  0.34130178307E+03  0.46165730396E+03  0.90264298567E+02 0.  0.
         13    1    3    3    0    0  0.52965385477E+02 -0.18702184096E+02  0.73750498672E+02  0.92705122852E+02  0.00000000000E+00 0.  1.
        -13    1    3    3    0    0  0.11661848613E+03 -0.22570367930E+03  0.26755128440E+03  0.36895218111E+03  0.00000000000E+00 0. -1.
         22    1    1    2    0    0 -0.16958387161E+03  0.24440586340E+03 -0.29123199519E+03  0.41630396418E+03  0.00000000000E+00 0.  1.
<mgrwt>
<rscale>  0 0.87653238E+03</rscale>
<asrwt>0</asrwt>
<pdfrwt beam="1">  1        2 0.71387004E-01 0.87653238E+03</pdfrwt>
<pdfrwt beam="2">  1       -2 0.63683961E-01 0.87653238E+03</pdfrwt>
<totfact> 0.15392667E+02</totfact>
</mgrwt>
</event>
<event>
 6    1  0.1773638E-005  0.1750208E+04  0.7818608E-02  0.8733236E-01
          1   -1    0    0  501    0  0.00000000000E+00  0.00000000000E+00  0.20252753545E+04  0.20252753545E+04  0.00000000000E+00 0. -1.
         -1   -1    0    0    0  501 -0.00000000000E+00 -0.00000000000E+00 -0.37812509073E+03  0.37812509073E+03  0.00000000000E+00 0.  1.
         23    2    1    2    0    0 -0.50938996185E+03  0.70280653852E+03  0.95022587665E+03  0.12902433291E+04  0.91561278984E+02 0.  0.
         11    1    3    3    0    0 -0.22475590071E+03  0.23475071572E+03  0.35621622302E+03  0.48219613331E+03  0.00000000000E+00 0. -1.
        -11    1    3    3    0    0 -0.28463406113E+03  0.46805582281E+03  0.59400965363E+03  0.80804719579E+03  0.00000000000E+00 0.  1.
         22    1    1    2    0    0  0.50938996185E+03 -0.70280653852E+03  0.69692438709E+03  0.11131571161E+04  0.00000000000E+00 0.  1.
<mgrwt>
<rscale>  0 0.17502085E+04</rscale>
<asrwt>0</asrwt>
<pdfrwt beam="1">  1        1 0.31158082E+00 0.17502085E+04</pdfrwt>
<pdfrwt beam="2">  1       -1 0.58173092E-01 0.17502085E+04</pdfrwt>
<totfact> 0.81287470E+00</totfact>
</mgrwt>
</event>
<event>
 6    1  0.1773638E-005  0.3085372E+04  0.7818608E-02  0.8219764E-01
         -2   -1    0    0    0  501 -0.00000000000E+00  0.00000000000E+00  0.78676258690E+03  0.78676258690E+03  0.00000000000E+00 0.  1.
          2   -1    0    0  501    0  0.00000000000E+00 -0.00000000000E+00 -0.30249026450E+04  0.30249026450E+04  0.00000000000E+00 0. -1.
         23    2    1    2    0    0 -0.13422843001E+04 -0.72158221079E+03 -0.83524843443E+03  0.17403098937E+04  0.92900751318E+02 0.  0.
         11    1    3    3    0    0 -0.16553937563E+03 -0.75998686436E+02 -0.13265723053E+03  0.22533758239E+03  0.00000000000E+00 0.  1.
        -11    1    3    3    0    0 -0.11767449245E+04 -0.64558352436E+03 -0.70259120390E+03  0.15149723113E+04  0.00000000000E+00 0. -1.
         22    1    1    2    0    0  0.13422843001E+04  0.72158221079E+03 -0.14028916236E+04  0.20713553382E+04  0.00000000000E+00 0.  1.
<mgrwt>
<rscale>  0 0.30853721E+04</rscale>
<asrwt>0</asrwt>
<pdfrwt beam="1">  1        2 0.46536964E+00 0.30853721E+04</pdfrwt>
<pdfrwt beam="2">  1       -2 0.12104040E+00 0.30853721E+04</pdfrwt>
<totfact> 0.74144909E-01</totfact>
</mgrwt>
</event>
<event>
 6    1  0.1773638E-005  0.1437681E+04  0.7818608E-02  0.8926986E-01
          2   -1    0    0  501    0  0.00000000000E+00  0.00000000000E+00  0.14303484510E+04  0.14303484510E+04  0.00000000000E+00 0. -1.
         -2   -1    0    0    0  501 -0.00000000000E+00 -0.00000000000E+00 -0.36126254110E+03  0.36126254110E+03  0.00000000000E+00 0.  1.
         23    2    1    2    0    0 -0.38678294772E+03 -0.37650570756E+03  0.11227431690E+04  0.12491750992E+04  0.92350464978E+02 0.  0.
         11    1    3    3    0    0 -0.12826100175E+03 -0.17540978564E+03  0.38724867567E+03  0.44405068887E+03  0.00000000000E+00 0. -1.
        -11    1    3    3    0    0 -0.25852194597E+03 -0.20109592191E+03  0.73549449333E+03  0.80512441031E+03  0.00000000000E+00 0.  1.
         22    1    1    2    0    0  0.38678294772E+03  0.37650570756E+03 -0.53657259104E+02  0.54243589292E+03  0.00000000000E+00 0.  1.
<mgrwt>
<rscale>  0 0.14376805E+04</rscale>
<asrwt>0</asrwt>
<pdfrwt beam="1">  1        2 0.22005361E+00 0.14376805E+04</pdfrwt>
<pdfrwt beam="2">  1       -2 0.55578853E-01 0.14376805E+04</pdfrwt>
<totfact> 0.41046231E+01</totfact>
</mgrwt>
</event>
<event>
 6    1  0.2291470E-005  0.2780717E+04  0.7818608E-02  0.8309280E-01
         -2   -1    0    0    0  501 -0.00000000000E+00  0.00000000000E+00  0.69720746895E+03  0.69720746895E+03  0.00000000000E+00 0.  1.
          2   -1    0    0  501    0  0.00000000000E+00 -0.00000000000E+00 -0.27726285496E+04  0.27726285496E+04  0.00000000000E+00 0. -1.
         23    2    1    2    0    0  0.67806873635E+03 -0.85277386641E+03 -0.21136499543E+04  0.23796700105E+04  0.91174288602E+02 0.  0.
         11    1    3    3    0    0  0.42717851532E+03 -0.46543626030E+03 -0.12333761996E+04  0.13857594474E+04  0.00000000000E+00 0. -1.
        -11    1    3    3    0    0  0.25089022103E+03 -0.38733760611E+03 -0.88027375467E+03  0.99391056302E+03  0.00000000000E+00 0.  1.
         22    1    1    2    0    0 -0.67806873635E+03  0.85277386641E+03  0.38228873645E+02  0.10901660081E+04  0.00000000000E+00 0. -1.
<mgrwt>
<rscale>  0 0.27807174E+04</rscale>
<asrwt>0</asrwt>
<pdfrwt beam="1">  1        2 0.42655823E+00 0.27807174E+04</pdfrwt>
<pdfrwt beam="2">  1       -2 0.10726269E+00 0.27807174E+04</pdfrwt>
<totfact> 0.14614148E+00</totfact>
</mgrwt>
</event>
<event>
 6    1  0.1773638E-005  0.3342769E+04  0.7818608E-02  0.8152097E-01
          2   -1    0    0  501    0  0.00000000000E+00  0.00000000000E+00  0.38188150009E+04  0.38188150009E+04  0.00000000000E+00 0. -1.
         -2   -1    0    0    0  501 -0.00000000000E+00 -0.00000000000E+00 -0.73151667160E+03  0.73151667160E+03  0.00000000000E+00 0.  1.
         23    2    1    2    0    0  0.31260798179E+03  0.53496635567E+03 -0.56662827079E+03  0.84424312111E+03  0.88125469122E+02 0.  0.
         11    1    3    3    0    0  0.18975934105E+03  0.31234017105E+03 -0.27527783616E+03  0.45754002781E+03  0.00000000000E+00 0. -1.
        -11    1    3    3    0    0  0.12284864074E+03  0.22262618462E+03 -0.29135043463E+03  0.38670309330E+03  0.00000000000E+00 0.  1.
         22    1    1    2    0    0 -0.31260798179E+03 -0.53496635567E+03  0.36539266001E+04  0.37060885514E+04  0.00000000000E+00 0. -1.
<mgrwt>
<rscale>  0 0.33427694E+04</rscale>
<asrwt>0</asrwt>
<pdfrwt beam="1">  1        2 0.58750999E+00 0.33427694E+04</pdfrwt>
<pdfrwt beam="2">  1       -2 0.11254103E+00 0.33427694E+04</pdfrwt>
<totfact> 0.24533251E-01</totfact>
</mgrwt>
</event>
<event>
 6    1  0.1773638E-005  0.1949886E+04  0.7818608E-02  0.8630416E-01
         -2   -1    0    0    0  501 -0.00000000000E+00  0.00000000000E+00  0.81880605354E+03  0.81880605354E+03  0.00000000000E+00 0.  1.
          2   -1    0    0  501    0  0.00000000000E+00 -0.00000000000E+00 -0.11608534837E+04  0.11608534837E+04  0.00000000000E+00 0. -1.
         23    2    1    2    0    0  0.91869842831E+03 -0.28318300891E+03 -0.32287159299E+03  0.10181153981E+04  0.90074855553E+02 0.  0.
         11    1    3    3    0    0  0.46330184190E+03 -0.98083995105E+02 -0.17336929421E+03  0.50430742507E+03  0.00000000000E+00 0.  1.
        -11    1    3    3    0    0  0.45539658641E+03 -0.18509901380E+03 -0.14950229877E+03  0.51380797304E+03  0.00000000000E+00 0. -1.
         22    1    1    2    0    0 -0.91869842831E+03  0.28318300891E+03 -0.19175837139E+02  0.96154413910E+03  0.00000000000E+00 0.  1.
<mgrwt>
<rscale>  0 0.19498860E+04</rscale>
<asrwt>0</asrwt>
<pdfrwt beam="1">  1        2 0.17859284E+00 0.19498860E+04</pdfrwt>
<pdfrwt beam="2">  1       -2 0.12597016E+00 0.19498860E+04</pdfrwt>
<totfact> 0.87730428E+00</totfact>
</mgrwt>
</event>
<event>
 6    1  0.1773638E-005  0.2098897E+04  0.7818608E-02  0.8561729E-01
          1   -1    0    0  501    0  0.00000000000E+00  0.00000000000E+00  0.84707972517E+03  0.84707972517E+03  0.00000000000E+00 0. -1.
         -1   -1    0    0    0  501 -0.00000000000E+00 -0.00000000000E+00 -0.13001637908E+04  0.13001637908E+04  0.00000000000E+00 0.  1.
         23    2    1    2    0    0 -0.17826509054E+03  0.73473679143E+03  0.51454567032E+03  0.91926798646E+03  0.93165384617E+02 0.  0.
         13    1    3    3    0    0 -0.46769863498E+02  0.35641561257E+03  0.21209543120E+03  0.41737750412E+03  0.00000000000E+00 0.  1.
        -13    1    3    3    0    0 -0.13149522704E+03  0.37832117887E+03  0.30245023912E+03  0.50189048233E+03  0.00000000000E+00 0. -1.
         22    1    1    2    0    0  0.17826509054E+03 -0.73473679143E+03 -0.96762973598E+03  0.12279755295E+04  0.00000000000E+00 0.  1.
<mgrwt>
<rscale>  0 0.20988972E+04</rscale>
<asrwt>0</asrwt>
<pdfrwt beam="1">  1        1 0.13031996E+00 0.20988972E+04</pdfrwt>
<pdfrwt beam="2">  1       -1 0.20002520E+00 0.20988972E+04</pdfrwt>
<totfact> 0.27868840E+00</totfact>
</mgrwt>
</event>
<event>
 6    1  0.1773638E-005  0.1397376E+04  0.7818608E-02  0.8955720E-01
          2   -1    0    0  501    0  0.00000000000E+00  0.00000000000E+00  0.76349183158E+03  0.76349183158E+03  0.00000000000E+00 0. -1.
         -2   -1    0    0    0  501 -0.00000000000E+00 -0.00000000000E+00 -0.63938494104E+03  0.63938494104E+03  0.00000000000E+00 0.  1.
         23    2    1    2    0    0  0.28456148595E+03  0.34491669856E+03 -0.47325913692E+03  0.65669386006E+03  0.85614525196E+02 0.  0.
         13    1    3    3    0    0  0.16257446370E+03  0.22499390529E+03 -0.34545473081E+03  0.44316101442E+03  0.00000000000E+00 0.  1.
        -13    1    3    3    0    0  0.12198702225E+03  0.11992279327E+03 -0.12780440611E+03  0.21353284563E+03  0.00000000000E+00 0. -1.
         22    1    1    2    0    0 -0.28456148595E+03 -0.34491669856E+03  0.59736602747E+03  0.74618291256E+03  0.00000000000E+00 0. -1.
<mgrwt>
<rscale>  0 0.13973764E+04</rscale>
<asrwt>0</asrwt>
<pdfrwt beam="1">  1        2 0.11746028E+00 0.13973764E+04</pdfrwt>
<pdfrwt beam="2">  1       -2 0.98366914E-01 0.13973764E+04</pdfrwt>
<totfact> 0.30638312E+01</totfact>
</mgrwt>
</event>
<event>
 6    1  0.1773638E-005  0.2743189E+04  0.7818608E-02  0.8321126E-01
         -1   -1    0    0    0  501 -0.00000000000E+00  0.00000000000E+00  0.11578597955E+04  0.11578597955E+04  0.00000000000E+00 0.  1.
          1   -1    0    0  501    0  0.00000000000E+00 -0.00000000000E+00 -0.16247839696E+04  0.16247839696E+04  0.00000000000E+00 0. -1.
         23    2    1    2    0    0 -0.36502566792E+03 -0.23550164519E+03 -0.15517235901E+04  0.16140999977E+04  0.93637275793E+02 0.  0.
         13    1    3    3    0    0 -0.38629533665E+02 -0.24271632955E+01 -0.82686154218E+02  0.91296944594E+02  0.00000000000E+00 0. -1.
        -13    1    3    3    0    0 -0.32639613425E+03 -0.23307448190E+03 -0.14690374359E+04  0.15228030531E+04  0.00000000000E+00 0.  1.
         22    1    1    2    0    0  0.36502566792E+03  0.23550164519E+03  0.10847994160E+04  0.11685437673E+04  0.00000000000E+00 0.  1.
<mgrwt>
<rscale>  0 0.27431894E+04</rscale>
<asrwt>0</asrwt>
<pdfrwt beam="1">  1        1 0.24996676E+00 0.27431894E+04</pdfrwt>
<pdfrwt beam="2">  1       -1 0.17813228E+00 0.27431894E+04</pdfrwt>
<totfact> 0.10020473E+00</totfact>
</mgrwt>
</event>
<event>
 6    1  0.1773638E-005  0.1092873E+04  0.7818608E-02  0.9212166E-01
          2   -1    0    0  501    0  0.00000000000E+00  0.00000000000E+00  0.44242860663E+03  0.44242860663E+03  0.00000000000E+00 0.  1.
         -2   -1    0    0    0  501 -0.00000000000E+00 -0.00000000000E+00 -0.67489522748E+03  0.67489522748E+03  0.00000000000E+00 0. -1.
         23    2    1    2    0    0  0.95649374297E+02 -0.22890082052E+03  0.37620259878E+03  0.46003956733E+03  0.92539827869E+02 0.  0.
         13    1    3    3    0    0  0.96085331572E+02 -0.11873000319E+03  0.19120473965E+03  0.24472118229E+03  0.00000000000E+00 0.  1.
        -13    1    3    3    0    0 -0.43595727453E+00 -0.11017081733E+03  0.18499785913E+03  0.21531838503E+03  0.00000000000E+00 0. -1.
         22    1    1    2    0    0 -0.95649374297E+02  0.22890082052E+03 -0.60866921962E+03  0.65728426678E+03  0.00000000000E+00 0. -1.
<mgrwt>
<rscale>  0 0.10928732E+04</rscale>
<asrwt>0</asrwt>
<pdfrwt beam="1">  1        2 0.68065940E-01 0.10928732E+04</pdfrwt>
<pdfrwt beam="2">  1       -2 0.10383003E+00 0.10928732E+04</pdfrwt>
<totfact> 0.53194666E+01</totfact>
</mgrwt>
</event>
<event>
 6    1  0.1773638E-005  0.2534875E+04  0.7818608E-02  0.8390666E-01
          1   -1    0    0  501    0  0.00000000000E+00  0.00000000000E+00  0.22635564542E+04  0.22635564542E+04  0.00000000000E+00 0. -1.
         -1   -1    0    0    0  501 -0.00000000000E+00 -0.00000000000E+00 -0.70967857894E+03  0.70967857894E+03  0.00000000000E+00 0.  1.
         23    2    1    2    0    0 -0.85586277634E+02  0.12384342789E+04  0.48465751471E+03  0.13348588085E+04  0.76880802493E+02 0.  0.
         13    1    3    3    0    0 -0.74930564537E+02  0.61655942101E+03  0.21969868526E+03  0.65880772722E+03  0.00000000000E+00 0.  1.
        -13    1    3    3    0    0 -0.10655713097E+02  0.62187485793E+03  0.26495882946E+03  0.67605108125E+03  0.00000000000E+00 0. -1.
         22    1    1    2    0    0  0.85586277634E+02 -0.12384342789E+04  0.10692203606E+04  0.16383762247E+04  0.00000000000E+00 0. -1.
<mgrwt>
<rscale>  0 0.25348748E+04</rscale>
<asrwt>0</asrwt>
<pdfrwt beam="1">  1        1 0.34823945E+00 0.25348748E+04</pdfrwt>
<pdfrwt beam="2">  1       -1 0.10918132E+00 0.25348748E+04</pdfrwt>
<totfact> 0.13558441E+00</totfact>
</mgrwt>
</event>
<event>
 6    1  0.1773638E-005  0.4399355E+04  0.7818608E-02  0.7928498E-01
         -2   -1    0    0    0  501 -0.00000000000E+00  0.00000000000E+00  0.24256441944E+04  0.24256441944E+04  0.00000000000E+00 0.  1.
          2   -1    0    0  501    0  0.00000000000E+00 -0.00000000000E+00 -0.19947614585E+04  0.19947614585E+04  0.00000000000E+00 0. -1.
         23    2    1    2    0    0  0.41953187303E+03 -0.12907048272E+04 -0.15226134534E+04  0.20417351619E+04  0.91677691733E+02 0.  0.
         13    1    3    3    0    0  0.34913294958E+03 -0.10300757328E+04 -0.12690725204E+04  0.16713751505E+04  0.00000000000E+00 0. -1.
        -13    1    3    3    0    0  0.70398923449E+02 -0.26062909437E+03 -0.25354093305E+03  0.37036001133E+03  0.00000000000E+00 0.  1.
         22    1    1    2    0    0 -0.41953187303E+03  0.12907048272E+04  0.19534961893E+04  0.23786704911E+04  0.00000000000E+00 0.  1.
<mgrwt>
<rscale>  0 0.43993552E+04</rscale>
<asrwt>0</asrwt>
<pdfrwt beam="1">  1        2 0.30688638E+00 0.43993552E+04</pdfrwt>
<pdfrwt beam="2">  1       -2 0.37317603E+00 0.43993552E+04</pdfrwt>
<totfact> 0.56914473E-02</totfact>
</mgrwt>
</event>
<event>
 6    1  0.1773638E-005  0.2492162E+04  0.7818608E-02  0.8405783E-01
          2   -1    0    0  501    0  0.00000000000E+00  0.00000000000E+00  0.22689499589E+04  0.22689499589E+04  0.00000000000E+00 0. -1.
         -2   -1    0    0    0  501 -0.00000000000E+00 -0.00000000000E+00 -0.68433348015E+03  0.68433348015E+03  0.00000000000E+00 0.  1.
         23    2    1    2    0    0 -0.69277873933E+03  0.98942414991E+03  0.11490343064E+04  0.16692918663E+04  0.85749445653E+02 0.  0.
         13    1    3    3    0    0 -0.16228912650E+03  0.29594222787E+03  0.33571756468E+03  0.47605235642E+03  0.00000000000E+00 0.  1.
        -13    1    3    3    0    0 -0.53048961283E+03  0.69348192204E+03  0.81331674175E+03  0.11932395099E+04  0.00000000000E+00 0. -1.
         22    1    1    2    0    0  0.69277873933E+03 -0.98942414991E+03  0.43558217232E+03  0.12839915728E+04  0.00000000000E+00 0. -1.
<mgrwt>
<rscale>  0 0.24921625E+04</rscale>
<asrwt>0</asrwt>
<pdfrwt beam="1">  1        2 0.34906922E+00 0.24921625E+04</pdfrwt>
<pdfrwt beam="2">  1       -2 0.10528208E+00 0.24921625E+04</pdfrwt>
<totfact> 0.30768470E+00</totfact>
</mgrwt>
</event>
<event>
 6    1  0.1773638E-005  0.4347472E+04  0.7818608E-02  0.7937898E-01
         -1   -1    0    0    0  501 -0.00000000000E+00  0.00000000000E+00  0.23288776597E+04  0.23288776597E+04  0.00000000000E+00 0.  1.
          1   -1    0    0  501    0  0.00000000000E+00 -0.00000000000E+00 -0.20289295346E+04  0.20289295346E+04  0.00000000000E+00 0. -1.
         23    2    1    2    0    0  0.57735731523E+03 -0.19796373856E+04  0.83600043321E+03  0.22271599394E+04  0.95073777582E+02 0.  0.
         11    1    3    3    0    0  0.31466950893E+03 -0.10691487097E+04  0.50278729520E+03  0.12226573222E+04  0.00000000000E+00 0. -1.
        -11    1    3    3    0    0  0.26268780631E+03 -0.91048867588E+03  0.33321313801E+03  0.10045026171E+04  0.00000000000E+00 0.  1.
         22    1    1    2    0    0 -0.57735731523E+03  0.19796373856E+04 -0.53605230812E+03  0.21306472550E+04  0.00000000000E+00 0. -1.
<mgrwt>
<rscale>  0 0.43474722E+04</rscale>
<asrwt>0</asrwt>
<pdfrwt beam="1">  1        1 0.31214301E+00 0.43474722E+04</pdfrwt>
<pdfrwt beam="2">  1       -1 0.35828887E+00 0.43474722E+04</pdfrwt>
<totfact> 0.29650299E-02</totfact>
</mgrwt>
</event>
<event>
 6    1  0.1773638E-005  0.3377535E+04  0.7818608E-02  0.8143442E-01
         -1   -1    0    0    0  501 -0.00000000000E+00  0.00000000000E+00  0.10445921317E+04  0.10445921317E+04  0.00000000000E+00 0.  1.
          1   -1    0    0  501    0  0.00000000000E+00 -0.00000000000E+00 -0.27301899641E+04  0.27301899641E+04  0.00000000000E+00 0. -1.
         23    2    1    2    0    0 -0.12460334068E+04  0.92914274133E+03 -0.10887348376E+03  0.15607438947E+04  0.90347023203E+02 0.  0.
         13    1    3    3    0    0 -0.84246940836E+03  0.59987702912E+03 -0.10854376480E+03  0.10398985061E+04  0.00000000000E+00 0. -1.
        -13    1    3    3    0    0 -0.40356399845E+03  0.32926571221E+03 -0.32971895892E+00  0.52084538857E+03  0.00000000000E+00 0.  1.
         22    1    1    2    0    0  0.12460334068E+04 -0.92914274133E+03 -0.15767243486E+04  0.22140382012E+04  0.00000000000E+00 0. -1.
<mgrwt>
<rscale>  0 0.33775346E+04</rscale>
<asrwt>0</asrwt>
<pdfrwt beam="1">  1        1 0.42002922E+00 0.33775346E+04</pdfrwt>
<pdfrwt beam="2">  1       -1 0.16070648E+00 0.33775346E+04</pdfrwt>
<totfact> 0.22218763E-01</totfact>
</mgrwt>
</event>
<event>
 6    1  0.1773638E-005  0.2569878E+04  0.7818608E-02  0.8378505E-01
          2   -1    0    0  501    0  0.00000000000E+00  0.00000000000E+00  0.37436541892E+04  0.37436541892E+04  0.00000000000E+00 0. -1.
         -2   -1    0    0    0  501 -0.00000000000E+00 -0.00000000000E+00 -0.44103122677E+03  0.44103122677E+03  0.00000000000E+00 0.  1.
         23    2    1    2    0    0 -0.55097112869E+03  0.11120765444E+04  0.21845286000E+04  0.25142308585E+04  0.94383156022E+02 0.  0.
         11    1    3    3    0    0 -0.43405633398E+03  0.90441338626E+03  0.18325376683E+04  0.20891536037E+04  0.00000000000E+00 0.  1.
        -11    1    3    3    0    0 -0.11691479471E+03  0.20766315819E+03  0.35199093174E+03  0.42507725477E+03  0.00000000000E+00 0. -1.
         22    1    1    2    0    0  0.55097112869E+03 -0.11120765444E+04  0.11180943624E+04  0.16704545575E+04  0.00000000000E+00 0.  1.
<mgrwt>
<rscale>  0 0.25698781E+04</rscale>
<asrwt>0</asrwt>
<pdfrwt beam="1">  1        2 0.57594678E+00 0.25698781E+04</pdfrwt>
<pdfrwt beam="2">  1       -2 0.67850961E-01 0.25698781E+04</pdfrwt>
<totfact> 0.95723130E-01</totfact>
</mgrwt>
</event>
<event>
 6    1  0.1773638E-005  0.1317088E+04  0.7818608E-02  0.9016123E-01
         -1   -1    0    0    0  501 -0.00000000000E+00  0.00000000000E+00  0.29651942318E+03  0.29651942318E+03  0.00000000000E+00 0.  1.
          1   -1    0    0  501    0  0.00000000000E+00 -0.00000000000E+00 -0.14625699243E+04  0.14625699243E+04  0.00000000000E+00 0. -1.
         23    2    1    2    0    0  0.52997028754E+03 -0.37953672420E+03 -0.49582921390E+03  0.82414913307E+03  0.91970394668E+02 0.  0.
         11    1    3    3    0    0  0.32742912494E+03 -0.18841674111E+03 -0.31742326446E+03  0.49342499836E+03  0.00000000000E+00 0.  1.
        -11    1    3    3    0    0  0.20254116260E+03 -0.19111998309E+03 -0.17840594944E+03  0.33072413471E+03  0.00000000000E+00 0. -1.
         22    1    1    2    0    0 -0.52997028754E+03  0.37953672420E+03 -0.67022128727E+03  0.93494021445E+03  0.00000000000E+00 0. -1.
<mgrwt>
<rscale>  0 0.13170883E+04</rscale>
<asrwt>0</asrwt>
<pdfrwt beam="1">  1        1 0.22501075E+00 0.13170883E+04</pdfrwt>
<pdfrwt beam="2">  1       -1 0.45618373E-01 0.13170883E+04</pdfrwt>
<totfact> 0.32531814E+01</totfact>
</mgrwt>
</event>
<event>
 6    1  0.1773638E-005  0.1741479E+04  0.7818608E-02  0.8738054E-01
          2   -1    0    0  501    0  0.00000000000E+00  0.00000000000E+00  0.26506623630E+04  0.26506623630E+04  0.00000000000E+00 0. -1.
         -2   -1    0    0    0  501 -0.00000000000E+00 -0.00000000000E+00 -0.28603702932E+03  0.28603702932E+03  0.00000000000E+00 0.  1.
         23    2    1    2    0    0  0.76505662299E+02 -0.69959357015E+03  0.32779822137E+03  0.78171703389E+03  0.91354076972E+02 0.  0.
         13    1    3    3    0    0 -0.13745922086E+02 -0.28099453880E+03  0.12293573215E+03  0.30701803766E+03  0.00000000000E+00 0.  1.
        -13    1    3    3    0    0  0.90251584385E+02 -0.41859903135E+03  0.20486248922E+03  0.47469899623E+03  0.00000000000E+00 0. -1.
         22    1    1    2    0    0 -0.76505662299E+02  0.69959357015E+03  0.20368271123E+04  0.21549823584E+04  0.00000000000E+00 0. -1.
<mgrwt>
<rscale>  0 0.17414794E+04</rscale>
<asrwt>0</asrwt>
<pdfrwt beam="1">  1        2 0.40779419E+00 0.17414794E+04</pdfrwt>
<pdfrwt beam="2">  1       -2 0.44005699E-01 0.17414794E+04</pdfrwt>
<totfact> 0.13223597E+01</totfact>
</mgrwt>
</event>
<event>
 6    1  0.1773638E-005  0.1440161E+04  0.7818608E-02  0.8925250E-01
          1   -1    0    0  501    0  0.00000000000E+00  0.00000000000E+00  0.17161181982E+04  0.17161181982E+04  0.00000000000E+00 0. -1.
         -1   -1    0    0    0  501 -0.00000000000E+00 -0.00000000000E+00 -0.30214482352E+03  0.30214482352E+03  0.00000000000E+00 0.  1.
         23    2    1    2    0    0 -0.25132327618E+03  0.51474102388E+03  0.10510129592E+03  0.58953357589E+03  0.91552410551E+02 0.  0.
         13    1    3    3    0    0 -0.15265815896E+03  0.28840865826E+03  0.10445568908E+03  0.34262962312E+03  0.00000000000E+00 0.  1.
        -13    1    3    3    0    0 -0.98665117216E+02  0.22633236563E+03  0.64560683135E+00  0.24690395277E+03  0.00000000000E+00 0. -1.
         22    1    1    2    0    0  0.25132327618E+03 -0.51474102388E+03  0.13088720787E+04  0.14287294458E+04  0.00000000000E+00 0. -1.
<mgrwt>
<rscale>  0 0.14401614E+04</rscale>
<asrwt>0</asrwt>
<pdfrwt beam="1">  1        1 0.26401818E+00 0.14401614E+04</pdfrwt>
<pdfrwt beam="2">  1       -1 0.46483820E-01 0.14401614E+04</pdfrwt>
<totfact> 0.20816710E+01</totfact>
</mgrwt>
</event>
<event>
 6    1  0.1773638E-005  0.1870046E+04  0.7818608E-02  0.8669912E-01
          1   -1    0    0  501    0  0.00000000000E+00  0.00000000000E+00  0.12057086183E+04  0.12057086183E+04  0.00000000000E+00 0. -1.
         -1   -1    0    0    0  501 -0.00000000000E+00 -0.00000000000E+00 -0.72510743832E+03  0.72510743832E+03  0.00000000000E+00 0.  1.
         23    2    1    2    0    0 -0.32169884623E+03  0.52643365454E+03  0.96321741541E+03  0.11475274948E+04  0.91700718097E+02 0.  0.
         13    1    3    3    0    0 -0.21678700153E+03  0.37978852436E+03  0.60510917595E+03  0.74658759840E+03  0.00000000000E+00 0.  1.
        -13    1    3    3    0    0 -0.10491184471E+03  0.14664513018E+03  0.35810823946E+03  0.40093989641E+03  0.00000000000E+00 0. -1.
         22    1    1    2    0    0  0.32169884623E+03 -0.52643365454E+03 -0.48261623545E+03  0.78328856179E+03  0.00000000000E+00 0.  1.
<mgrwt>
<rscale>  0 0.18700463E+04</rscale>
<asrwt>0</asrwt>
<pdfrwt beam="1">  1        1 0.18549363E+00 0.18700463E+04</pdfrwt>
<pdfrwt beam="2">  1       -1 0.11155499E+00 0.18700463E+04</pdfrwt>
<totfact> 0.73287349E+00</totfact>
</mgrwt>
</event>
<event>
 6    1  0.1773638E-005  0.7092378E+03  0.7818608E-02  0.9701564E-01
          1   -1    0    0  501    0  0.00000000000E+00  0.00000000000E+00  0.12363170933E+04  0.12363170933E+04  0.00000000000E+00 0. -1.
         -1   -1    0    0    0  501 -0.00000000000E+00 -0.00000000000E+00 -0.10171707036E+03  0.10171707036E+03  0.00000000000E+00 0.  1.
         23    2    1    2    0    0  0.26259691579E+03 -0.76506367319E+02  0.98450421821E+03  0.10260419922E+04  0.93291209358E+02 0.  0.
         13    1    3    3    0    0  0.14561032296E+03  0.36648043766E+01  0.44638817902E+03  0.46955106572E+03  0.00000000000E+00 0. -1.
        -13    1    3    3    0    0  0.11698659283E+03 -0.80171171696E+02  0.53811603918E+03  0.55649092652E+03  0.00000000000E+00 0.  1.
         22    1    1    2    0    0 -0.26259691579E+03  0.76506367319E+02  0.15009580471E+03  0.31199217140E+03  0.00000000000E+00 0.  1.
<mgrwt>
<rscale>  0 0.70923777E+03</rscale>
<asrwt>0</asrwt>
<pdfrwt beam="1">  1        1 0.19020262E+00 0.70923777E+03</pdfrwt>
<pdfrwt beam="2">  1       -1 0.15648781E-01 0.70923777E+03</pdfrwt>
<totfact> 0.31347476E+02</totfact>
</mgrwt>
</event>
<event>
 6    1  0.1773638E-005  0.1298612E+04  0.7818608E-02  0.9030667E-01
          2   -1    0    0  501    0  0.00000000000E+00  0.00000000000E+00  0.34435147372E+03  0.34435147372E+03  0.00000000000E+00 0. -1.
         -2   -1    0    0    0  501 -0.00000000000E+00 -0.00000000000E+00 -0.12243256523E+04  0.12243256523E+04  0.00000000000E+00 0.  1.
         23    2    1    2    0    0  0.10278245211E+03 -0.59215897312E+03 -0.72646448271E+03  0.94836937287E+03  0.10216330479E+03 0.  0.
         11    1    3    3    0    0  0.77172857676E+02 -0.36508922117E+03 -0.52252375677E+03  0.64208789567E+03  0.00000000000E+00 0. -1.
        -11    1    3    3    0    0  0.25609594431E+02 -0.22706975195E+03 -0.20394072594E+03  0.30628147720E+03  0.00000000000E+00 0.  1.
         22    1    1    2    0    0 -0.10278245211E+03  0.59215897312E+03 -0.15350969589E+03  0.62030775317E+03  0.00000000000E+00 0. -1.
<mgrwt>
<rscale>  0 0.12986121E+04</rscale>
<asrwt>0</asrwt>
<pdfrwt beam="1">  1        2 0.52977149E-01 0.12986121E+04</pdfrwt>
<pdfrwt beam="2">  1       -2 0.18835780E+00 0.12986121E+04</pdfrwt>
<totfact> 0.14652032E+01</totfact>
</mgrwt>
</event>
<event>
 6    1  0.1773638E-005  0.1548487E+04  0.7818608E-02  0.8852835E-01
         -1   -1    0    0    0  501 -0.00000000000E+00  0.00000000000E+00  0.29118365816E+03  0.29118365816E+03  0.00000000000E+00 0.  1.
          1   -1    0    0  501    0  0.00000000000E+00 -0.00000000000E+00 -0.20586774797E+04  0.20586774797E+04  0.00000000000E+00 0. -1.
         23    2    1    2    0    0  0.38772554202E+03 -0.63917440810E+03 -0.59855250208E+03  0.96230975926E+03  0.94339573490E+02 0.  0.
         11    1    3    3    0    0  0.83394225434E+02 -0.15817587543E+03 -0.95703055205E+02  0.20281340977E+03  0.00000000000E+00 0. -1.
        -11    1    3    3    0    0  0.30433131658E+03 -0.48099853267E+03 -0.50284944687E+03  0.75949634950E+03  0.00000000000E+00 0.  1.
         22    1    1    2    0    0 -0.38772554202E+03  0.63917440810E+03 -0.11689413195E+04  0.13875513786E+04  0.00000000000E+00 0.  1.
<mgrwt>
<rscale>  0 0.15484873E+04</rscale>
<asrwt>0</asrwt>
<pdfrwt beam="1">  1        1 0.31671962E+00 0.15484873E+04</pdfrwt>
<pdfrwt beam="2">  1       -1 0.44797485E-01 0.15484873E+04</pdfrwt>
<totfact> 0.12946878E+01</totfact>
</mgrwt>
</event>
<event>
 6    1  0.1773638E-005  0.3605978E+04  0.7818608E-02  0.8089124E-01
         -2   -1    0    0    0  501 -0.00000000000E+00  0.00000000000E+00  0.18820861974E+04  0.18820861974E+04  0.00000000000E+00 0. -1.
          2   -1    0    0  501    0  0.00000000000E+00 -0.00000000000E+00 -0.17272160056E+04  0.17272160056E+04  0.00000000000E+00 0.  1.
         23    2    1    2    0    0 -0.58821606121E+03 -0.98808966680E+03 -0.13109529284E+04  0.17462518161E+04  0.92078772007E+02 0.  0.
         11    1    3    3    0    0 -0.17229955338E+03 -0.23072463112E+03 -0.36827666709E+03  0.46749191974E+03  0.00000000000E+00 0.  1.
        -11    1    3    3    0    0 -0.41591650783E+03 -0.75736503568E+03 -0.94267626133E+03  0.12787598963E+04  0.00000000000E+00 0. -1.
         22    1    1    2    0    0  0.58821606121E+03  0.98808966680E+03  0.14658231203E+04  0.18630503870E+04  0.00000000000E+00 0. -1.
<mgrwt>
<rscale>  0 0.36059780E+04</rscale>
<asrwt>0</asrwt>
<pdfrwt beam="1">  1        2 0.26572554E+00 0.36059780E+04</pdfrwt>
<pdfrwt beam="2">  1       -2 0.28955172E+00 0.36059780E+04</pdfrwt>
<totfact> 0.28407855E-01</totfact>
</mgrwt>
</event>
<event>
 6    1  0.1773638E-005  0.2833292E+04  0.7818608E-02  0.8293006E-01
          1   -1    0    0  501    0  0.00000000000E+00  0.00000000000E+00  0.19161990948E+04  0.19161990948E+04  0.00000000000E+00 0. -1.
         -1   -1    0    0    0  501 -0.00000000000E+00 -0.00000000000E+00 -0.10473264127E+04  0.10473264127E+04  0.00000000000E+00 0.  1.
         23    2    1    2    0    0  0.55417282014E+03  0.33141804826E+03 -0.88226433931E+03  0.10971315767E+04  0.91443397117E+02 0.  0.
         11    1    3    3    0    0  0.30274440065E+03  0.13535263536E+03 -0.48925815476E+03  0.59105672318E+03  0.00000000000E+00 0.  1.
        -11    1    3    3    0    0  0.25142841949E+03  0.19606541290E+03 -0.39300618455E+03  0.50607485351E+03  0.00000000000E+00 0. -1.
         22    1    1    2    0    0 -0.55417282014E+03 -0.33141804826E+03  0.17511370214E+04  0.18663939308E+04  0.00000000000E+00 0. -1.
<mgrwt>
<rscale>  0 0.28332920E+04</rscale>
<asrwt>0</asrwt>
<pdfrwt beam="1">  1        1 0.29479986E+00 0.28332920E+04</pdfrwt>
<pdfrwt beam="2">  1       -1 0.16112714E+00 0.28332920E+04</pdfrwt>
<totfact> 0.84029318E-01</totfact>
</mgrwt>
</event>
<event>
 6    1  0.1773638E-005  0.3478728E+04  0.7818608E-02  0.8118850E-01
          2   -1    0    0  501    0  0.00000000000E+00  0.00000000000E+00  0.23680098734E+04  0.23680098734E+04  0.00000000000E+00 0. -1.
         -2   -1    0    0    0  501 -0.00000000000E+00 -0.00000000000E+00 -0.12776077449E+04  0.12776077449E+04  0.00000000000E+00 0.  1.
         23    2    1    2    0    0 -0.10122101936E+04 -0.13387457012E+04  0.10199394426E+04  0.19658037839E+04  0.85431385217E+02 0.  0.
         13    1    3    3    0    0 -0.94144011097E+02 -0.15758659378E+03  0.13259841271E+03  0.22644859995E+03  0.00000000000E+00 0.  1.
        -13    1    3    3    0    0 -0.91806618255E+03 -0.11811591074E+04  0.88734102989E+03  0.17393551839E+04  0.00000000000E+00 0. -1.
         22    1    1    2    0    0  0.10122101936E+04  0.13387457012E+04  0.70462685864E+02  0.16798138345E+04  0.00000000000E+00 0. -1.
<mgrwt>
<rscale>  0 0.34787284E+04</rscale>
<asrwt>0</asrwt>
<pdfrwt beam="1">  1        2 0.36430921E+00 0.34787284E+04</pdfrwt>
<pdfrwt beam="2">  1       -2 0.19655504E+00 0.34787284E+04</pdfrwt>
<totfact> 0.47835014E-01</totfact>
</mgrwt>
</event>
<event>
 6    1  0.1773638E-005  0.6103905E+03  0.7818608E-02  0.9884080E-01
          1   -1    0    0  501    0  0.00000000000E+00  0.00000000000E+00  0.46313841638E+03  0.46313841638E+03  0.00000000000E+00 0. -1.
         -1   -1    0    0    0  501 -0.00000000000E+00 -0.00000000000E+00 -0.20111513609E+03  0.20111513609E+03  0.00000000000E+00 0.  1.
         23    2    1    2    0    0  0.29920605220E+02 -0.86965020515E+02 -0.17437084062E+03  0.21827374780E+03  0.93702089137E+02 0.  0.
         11    1    3    3    0    0  0.30121086236E+02 -0.45009014884E+02 -0.19089286553E+02  0.57423794005E+02  0.00000000000E+00 0. -1.
        -11    1    3    3    0    0 -0.20048101549E+00 -0.41956005631E+02 -0.15528155407E+03  0.16084995379E+03  0.00000000000E+00 0.  1.
         22    1    1    2    0    0 -0.29920605220E+02  0.86965020515E+02  0.43639412091E+03  0.44597980467E+03  0.00000000000E+00 0. -1.
<mgrwt>
<rscale>  0 0.61039052E+03</rscale>
<asrwt>0</asrwt>
<pdfrwt beam="1">  1        1 0.71252064E-01 0.61039052E+03</pdfrwt>
<pdfrwt beam="2">  1       -1 0.30940790E-01 0.61039052E+03</pdfrwt>
<totfact> 0.48096840E+02</totfact>
</mgrwt>
</event>
<event>
 6    1  0.1773638E-005  0.1637663E+04  0.7818608E-02  0.8797739E-01
          1   -1    0    0  501    0  0.00000000000E+00  0.00000000000E+00  0.17214372075E+04  0.17214372075E+04  0.00000000000E+00 0. -1.
         -1   -1    0    0    0  501 -0.00000000000E+00 -0.00000000000E+00 -0.38949140767E+03  0.38949140767E+03  0.00000000000E+00 0.  1.
         23    2    1    2    0    0 -0.25601503693E+03  0.11020939737E+03  0.16569492485E+04  0.16827732087E+04  0.92493508724E+02 0.  0.
         13    1    3    3    0    0 -0.17108428479E+03  0.26161929548E+02  0.90706879813E+03  0.92343277156E+03  0.00000000000E+00 0.  1.
        -13    1    3    3    0    0 -0.84930752144E+02  0.84047467817E+02  0.74988045041E+03  0.75934043710E+03  0.00000000000E+00 0. -1.
         22    1    1    2    0    0  0.25601503693E+03 -0.11020939737E+03 -0.32500344874E+03  0.42815540648E+03  0.00000000000E+00 0.  1.
<mgrwt>
<rscale>  0 0.16376630E+04</rscale>
<asrwt>0</asrwt>
<pdfrwt beam="1">  1        1 0.26483649E+00 0.16376630E+04</pdfrwt>
<pdfrwt beam="2">  1       -1 0.59921756E-01 0.16376630E+04</pdfrwt>
<totfact> 0.12447480E+01</totfact>
</mgrwt>
</event>
<event>
 6    1  0.1773638E-005  0.3332612E+04  0.7818608E-02  0.8154647E-01
         -2   -1    0    0    0  501 -0.00000000000E+00  0.00000000000E+00  0.12232622507E+04  0.12232622507E+04  0.00000000000E+00 0.  1.
          2   -1    0    0  501    0  0.00000000000E+00 -0.00000000000E+00 -0.22698117371E+04  0.22698117371E+04  0.00000000000E+00 0. -1.
         23    2    1    2    0    0  0.84831994856E+03  0.14290199957E+04 -0.41250474229E+03  0.17143785050E+04  0.84785687053E+02 0.  0.
         11    1    3    3    0    0  0.75422868174E+03  0.12984093625E+04 -0.39356266557E+03  0.15522948653E+04  0.00000000000E+00 0.  1.
        -11    1    3    3    0    0  0.94091266815E+02  0.13061063311E+03 -0.18942076716E+02  0.16208363965E+03  0.00000000000E+00 0. -1.
         22    1    1    2    0    0 -0.84831994856E+03 -0.14290199957E+04 -0.63404474410E+03  0.17786954828E+04  0.00000000000E+00 0. -1.
<mgrwt>
<rscale>  0 0.33326116E+04</rscale>
<asrwt>0</asrwt>
<pdfrwt beam="1">  1        2 0.34920180E+00 0.33326116E+04</pdfrwt>
<pdfrwt beam="2">  1       -2 0.18819420E+00 0.33326116E+04</pdfrwt>
<totfact> 0.62616310E-01</totfact>
</mgrwt>
</event>
<event>
 6    1  0.1773638E-005  0.3767160E+03  0.7818608E-02  0.1052154E+00
          2   -1    0    0  501    0  0.00000000000E+00  0.00000000000E+00  0.83011686461E+02  0.83011686461E+02  0.00000000000E+00 0.  1.
         -2   -1    0    0    0  501 -0.00000000000E+00 -0.00000000000E+00 -0.42739456434E+03  0.42739456434E+03  0.00000000000E+00 0. -1.
         23    2    1    2    0    0 -0.92554929294E+02 -0.15017675710E+03 -0.20150899565E+03  0.28339871892E+03  0.92679475880E+02 0.  0.
         11    1    3    3    0    0 -0.15997279440E+02 -0.11302257639E+03 -0.11322443561E+03  0.16077869431E+03  0.00000000000E+00 0. -1.
        -11    1    3    3    0    0 -0.76557649854E+02 -0.37154180705E+02 -0.88284560038E+02  0.12262002461E+03  0.00000000000E+00 0.  1.
         22    1    1    2    0    0  0.92554929294E+02  0.15017675710E+03 -0.14287388223E+03  0.22700753188E+03  0.00000000000E+00 0.  1.
<mgrwt>
<rscale>  0 0.37671604E+03</rscale>
<asrwt>0</asrwt>
<pdfrwt beam="1">  1        2 0.12771029E-01 0.37671604E+03</pdfrwt>
<pdfrwt beam="2">  1       -2 0.65753010E-01 0.37671604E+03</pdfrwt>
<totfact> 0.10390708E+03</totfact>
</mgrwt>
</event>
<event>
 6    1  0.1773638E-005  0.1690901E+04  0.7818608E-02  0.8766571E-01
          1   -1    0    0  501    0  0.00000000000E+00  0.00000000000E+00  0.24565143763E+04  0.24565143763E+04  0.00000000000E+00 0. -1.
         -1   -1    0    0    0  501 -0.00000000000E+00 -0.00000000000E+00 -0.29097581518E+03  0.29097581518E+03  0.00000000000E+00 0.  1.
         23    2    1    2    0    0 -0.42108753802E+03 -0.55960998660E+03  0.18484055714E+04  0.19786915280E+04  0.90216155445E+02 0.  0.
         13    1    3    3    0    0 -0.20110625210E+03 -0.33945363103E+03  0.10022705963E+04  0.10771345508E+04  0.00000000000E+00 0. -1.
        -13    1    3    3    0    0 -0.21998128592E+03 -0.22015635557E+03  0.84613497516E+03  0.90155697725E+03  0.00000000000E+00 0.  1.
         22    1    1    2    0    0  0.42108753802E+03  0.55960998660E+03  0.31713298963E+03  0.76879866343E+03  0.00000000000E+00 0.  1.
<mgrwt>
<rscale>  0 0.16909007E+04</rscale>
<asrwt>0</asrwt>
<pdfrwt beam="1">  1        1 0.37792527E+00 0.16909007E+04</pdfrwt>
<pdfrwt beam="2">  1       -1 0.44765512E-01 0.16909007E+04</pdfrwt>
<totfact> 0.68488526E+00</totfact>
</mgrwt>
</event>
<event>
 6    1  0.1773638E-005  0.1701043E+04  0.7818608E-02  0.8760770E-01
         -2   -1    0    0    0  501 -0.00000000000E+00  0.00000000000E+00  0.66054269687E+03  0.66054269687E+03  0.00000000000E+00 0.  1.
          2   -1    0    0  501    0  0.00000000000E+00 -0.00000000000E+00 -0.10951398614E+04  0.10951398614E+04  0.00000000000E+00 0. -1.
         23    2    1    2    0    0  0.29567050070E+03 -0.55702472441E+03 -0.80336379766E+03  0.10251441142E+04  0.88484319652E+02 0.  0.
         13    1    3    3    0    0  0.81423422008E+02 -0.12860028595E+03 -0.13918506771E+03  0.20625297639E+03  0.00000000000E+00 0. -1.
        -13    1    3    3    0    0  0.21424707869E+03 -0.42842443846E+03 -0.66417872996E+03  0.81889113777E+03  0.00000000000E+00 0.  1.
         22    1    1    2    0    0 -0.29567050070E+03  0.55702472441E+03  0.36876663315E+03  0.73053844410E+03  0.00000000000E+00 0.  1.
<mgrwt>
<rscale>  0 0.17010428E+04</rscale>
<asrwt>0</asrwt>
<pdfrwt beam="1">  1        2 0.16848306E+00 0.17010428E+04</pdfrwt>
<pdfrwt beam="2">  1       -2 0.10162195E+00 0.17010428E+04</pdfrwt>
<totfact> 0.16596099E+01</totfact>
</mgrwt>
</event>
<event>
 6    1  0.1773638E-005  0.1445643E+04  0.7818608E-02  0.8921427E-01
         -1   -1    0    0    0  501 -0.00000000000E+00  0.00000000000E+00  0.29111641372E+03  0.29111641372E+03  0.00000000000E+00 0.  1.
          1   -1    0    0  501    0  0.00000000000E+00 -0.00000000000E+00 -0.17947143037E+04  0.17947143037E+04  0.00000000000E+00 0. -1.
         23    2    1    2    0    0 -0.68394717538E+03 -0.34382028438E+02 -0.10753418095E+04  0.12781370050E+04  0.91150061845E+02 0.  0.
         11    1    3    3    0    0 -0.19891636013E+03  0.18604705329E+02 -0.36984496839E+03  0.42035598488E+03  0.00000000000E+00 0.  1.
        -11    1    3    3    0    0 -0.48503081525E+03 -0.52986733767E+02 -0.70549684113E+03  0.85778102016E+03  0.00000000000E+00 0. -1.
         22    1    1    2    0    0  0.68394717538E+03  0.34382028438E+02 -0.42825608049E+03  0.80769371241E+03  0.00000000000E+00 0. -1.
<mgrwt>
<rscale>  0 0.14456428E+04</rscale>
<asrwt>0</asrwt>
<pdfrwt beam="1">  1        1 0.27610990E+00 0.14456428E+04</pdfrwt>
<pdfrwt beam="2">  1       -1 0.44787140E-01 0.14456428E+04</pdfrwt>
<totfact> 0.19725318E+01</totfact>
</mgrwt>
</event>
<event>
 6    1  0.1773638E-005  0.1960874E+04  0.7818608E-02  0.8625135E-01
         -2   -1    0    0    0  501 -0.00000000000E+00  0.00000000000E+00  0.40104682854E+03  0.40104682854E+03  0.00000000000E+00 0. -1.
          2   -1    0    0  501    0  0.00000000000E+00 -0.00000000000E+00 -0.23968685805E+04  0.23968685805E+04  0.00000000000E+00 0.  1.
         23    2    1    2    0    0  0.67605413992E+03  0.32247056582E+03 -0.10214953497E+03  0.76148938992E+03  0.91624764908E+02 0.  0.
         11    1    3    3    0    0  0.36217030411E+03  0.22126748635E+03 -0.69742832926E+02  0.43010544340E+03  0.00000000000E+00 0. -1.
        -11    1    3    3    0    0  0.31388383581E+03  0.10120307947E+03 -0.32406702040E+02  0.33138394652E+03  0.00000000000E+00 0.  1.
         22    1    1    2    0    0 -0.67605413992E+03 -0.32247056582E+03 -0.18936722170E+04  0.20364260192E+04  0.00000000000E+00 0.  1.
<mgrwt>
<rscale>  0 0.19608738E+04</rscale>
<asrwt>0</asrwt>
<pdfrwt beam="1">  1        2 0.36874901E+00 0.19608738E+04</pdfrwt>
<pdfrwt beam="2">  1       -2 0.61699513E-01 0.19608738E+04</pdfrwt>
<totfact> 0.90847128E+00</totfact>
</mgrwt>
</event>
<event>
 6    1  0.1773638E-005  0.6902912E+03  0.7818608E-02  0.9733981E-01
          1   -1    0    0  501    0  0.00000000000E+00  0.00000000000E+00  0.21942223336E+03  0.21942223336E+03  0.00000000000E+00 0. -1.
         -1   -1    0    0    0  501 -0.00000000000E+00 -0.00000000000E+00 -0.54290522039E+03  0.54290522039E+03  0.00000000000E+00 0.  1.
         23    2    1    2    0    0  0.18809935130E+03  0.26450019827E+03 -0.57528558662E+02  0.34271634950E+03  0.93825584515E+02 0.  0.
         13    1    3    3    0    0  0.14816331940E+03  0.14137077651E+03 -0.10717235154E+02  0.20506809795E+03  0.00000000000E+00 0. -1.
        -13    1    3    3    0    0  0.39936031898E+02  0.12312942176E+03 -0.46811323508E+02  0.13764825155E+03  0.00000000000E+00 0.  1.
         22    1    1    2    0    0 -0.18809935130E+03 -0.26450019827E+03 -0.26595442836E+03  0.41961110425E+03  0.00000000000E+00 0.  1.
<mgrwt>
<rscale>  0 0.69029117E+03</rscale>
<asrwt>0</asrwt>
<pdfrwt beam="1">  1        1 0.33757266E-01 0.69029117E+03</pdfrwt>
<pdfrwt beam="2">  1       -1 0.83523881E-01 0.69029117E+03</pdfrwt>
<totfact> 0.19031249E+02</totfact>
</mgrwt>
</event>
<event>
 6    1  0.1773638E-005  0.1064647E+04  0.7818608E-02  0.9240351E-01
          1   -1    0    0  501    0  0.00000000000E+00  0.00000000000E+00  0.16189402144E+04  0.16189402144E+04  0.00000000000E+00 0. -1.
         -1   -1    0    0    0  501 -0.00000000000E+00 -0.00000000000E+00 -0.17503325198E+03  0.17503325198E+03  0.00000000000E+00 0.  1.
         23    2    1    2    0    0 -0.12139828555E+03 -0.12179159018E+03  0.15690771447E+04  0.15812804724E+04  0.94202502382E+02 0.  0.
         11    1    3    3    0    0 -0.42521862029E+02  0.58215055221E+01  0.48075710342E+03  0.48266902859E+03  0.00000000000E+00 0.  1.
        -11    1    3    3    0    0 -0.78876423520E+02 -0.12761309570E+03  0.10883200412E+04  0.10986114438E+04  0.00000000000E+00 0. -1.
         22    1    1    2    0    0  0.12139828555E+03  0.12179159018E+03 -0.12517018221E+03  0.21269299398E+03  0.00000000000E+00 0.  1.
<mgrwt>
<rscale>  0 0.10646471E+04</rscale>
<asrwt>0</asrwt>
<pdfrwt beam="1">  1        1 0.24906772E+00 0.10646471E+04</pdfrwt>
<pdfrwt beam="2">  1       -1 0.26928194E-01 0.10646471E+04</pdfrwt>
<totfact> 0.66666954E+01</totfact>
</mgrwt>
</event>
<event>
 6    1  0.1773638E-005  0.3177357E+04  0.7818608E-02  0.8194823E-01
          1   -1    0    0  501    0  0.00000000000E+00  0.00000000000E+00  0.24381351652E+04  0.24381351652E+04  0.00000000000E+00 0. -1.
         -1   -1    0    0    0  501 -0.00000000000E+00 -0.00000000000E+00 -0.10351763005E+04  0.10351763005E+04  0.00000000000E+00 0.  1.
         23    2    1    2    0    0  0.85627344302E+03 -0.56069235380E+03 -0.62423345760E+03  0.12023890019E+04  0.92150841350E+02 0.  0.
         13    1    3    3    0    0  0.47602431663E+03 -0.26964940102E+03 -0.29818443503E+03  0.62307616451E+03  0.00000000000E+00 0.  1.
        -13    1    3    3    0    0  0.38024912639E+03 -0.29104295278E+03 -0.32604902257E+03  0.57931283742E+03  0.00000000000E+00 0. -1.
         22    1    1    2    0    0 -0.85627344302E+03  0.56069235380E+03  0.20271923223E+04  0.22709224638E+04  0.00000000000E+00 0. -1.
<mgrwt>
<rscale>  0 0.31773572E+04</rscale>
<asrwt>0</asrwt>
<pdfrwt beam="1">  1        1 0.37509771E+00 0.31773572E+04</pdfrwt>
<pdfrwt beam="2">  1       -1 0.15925789E+00 0.31773572E+04</pdfrwt>
<totfact> 0.37098275E-01</totfact>
</mgrwt>
</event>
<event>
 6    1  0.1773638E-005  0.2347248E+04  0.7818608E-02  0.8459521E-01
         -2   -1    0    0    0  501 -0.00000000000E+00  0.00000000000E+00  0.51798962849E+03  0.51798962849E+03  0.00000000000E+00 0.  1.
          2   -1    0    0  501    0  0.00000000000E+00 -0.00000000000E+00 -0.26591141983E+04  0.26591141983E+04  0.00000000000E+00 0. -1.
         23    2    1    2    0    0 -0.89427238428E+03 -0.14501834392E+03 -0.20782074019E+04  0.22689672801E+04  0.92266438780E+02 0.  0.
         13    1    3    3    0    0 -0.33783746254E+03 -0.10457611738E+02 -0.79262570611E+03  0.86168382991E+03  0.00000000000E+00 0. -1.
        -13    1    3    3    0    0 -0.55643492174E+03 -0.13456073218E+03 -0.12855816958E+04  0.14072834502E+04  0.00000000000E+00 0.  1.
         22    1    1    2    0    0  0.89427238428E+03  0.14501834392E+03 -0.62917167931E+02  0.90813654666E+03  0.00000000000E+00 0.  1.
<mgrwt>
<rscale>  0 0.23472482E+04</rscale>
<asrwt>0</asrwt>
<pdfrwt beam="1">  1        2 0.40909448E+00 0.23472482E+04</pdfrwt>
<pdfrwt beam="2">  1       -2 0.79690714E-01 0.23472482E+04</pdfrwt>
<totfact> 0.35368124E+00</totfact>
</mgrwt>
</event>
<event>
 6    1  0.1773638E-005  0.2948955E+04  0.7818608E-02  0.8258459E-01
         -2   -1    0    0    0  501 -0.00000000000E+00  0.00000000000E+00  0.11398248462E+04  0.11398248462E+04  0.00000000000E+00 0.  1.
          2   -1    0    0  501    0  0.00000000000E+00 -0.00000000000E+00 -0.19073839567E+04  0.19073839567E+04  0.00000000000E+00 0. -1.
         23    2    1    2    0    0 -0.14627152868E+04  0.80455821844E+02 -0.54299403757E+03  0.15651701321E+04  0.94370906355E+02 0.  0.
         13    1    3    3    0    0 -0.25154527481E+03  0.70933259044E+01 -0.13130163609E+03  0.28384055417E+03  0.00000000000E+00 0. -1.
        -13    1    3    3    0    0 -0.12111700120E+04  0.73362495940E+02 -0.41169240149E+03  0.12813295779E+04  0.00000000000E+00 0.  1.
         22    1    1    2    0    0  0.14627152868E+04 -0.80455821844E+02 -0.22456507297E+03  0.14820386708E+04  0.00000000000E+00 0.  1.
<mgrwt>
<rscale>  0 0.29489548E+04</rscale>
<asrwt>0</asrwt>
<pdfrwt beam="1">  1        2 0.29344369E+00 0.29489548E+04</pdfrwt>
<pdfrwt beam="2">  1       -2 0.17535767E+00 0.29489548E+04</pdfrwt>
<totfact> 0.12632595E+00</totfact>
</mgrwt>
</event>
<event>
 6    1  0.1773638E-005  0.3997603E+04  0.7818608E-02  0.8005030E-01
         -2   -1    0    0    0  501 -0.00000000000E+00  0.00000000000E+00  0.15764156516E+04  0.15764156516E+04  0.00000000000E+00 0.  1.
          2   -1    0    0  501    0  0.00000000000E+00 -0.00000000000E+00 -0.25343622257E+04  0.25343622257E+04  0.00000000000E+00 0. -1.
         23    2    1    2    0    0 -0.10789493038E+04  0.11522298095E+04 -0.17384743075E+04  0.23498154481E+04  0.87032110153E+02 0.  0.
         13    1    3    3    0    0 -0.56129424330E+03  0.65800456646E+03 -0.92668194387E+03  0.12675806334E+04  0.00000000000E+00 0. -1.
        -13    1    3    3    0    0 -0.51765506054E+03  0.49422524307E+03 -0.81179236359E+03  0.10822348147E+04  0.00000000000E+00 0.  1.
         22    1    1    2    0    0  0.10789493038E+04 -0.11522298095E+04  0.78052773337E+03  0.17609624291E+04  0.00000000000E+00 0.  1.
<mgrwt>
<rscale>  0 0.39976034E+04</rscale>
<asrwt>0</asrwt>
<pdfrwt beam="1">  1        2 0.38990188E+00 0.39976034E+04</pdfrwt>
<pdfrwt beam="2">  1       -2 0.24252549E+00 0.39976034E+04</pdfrwt>
<totfact> 0.18744530E-01</totfact>
</mgrwt>
</event>
<event>
 6    1  0.1773638E-005  0.4587500E+04  0.7818608E-02  0.7895495E-01
         -2   -1    0    0    0  501 -0.00000000000E+00  0.00000000000E+00  0.14050646684E+04  0.14050646684E+04  0.00000000000E+00 0.  1.
          2   -1    0    0  501    0  0.00000000000E+00 -0.00000000000E+00 -0.37445174991E+04  0.37445174991E+04  0.00000000000E+00 0. -1.
         23    2    1    2    0    0 -0.65661463328E+03 -0.43594629667E+03 -0.35870675664E+04  0.36738672631E+04  0.95157714099E+02 0.  0.
         11    1    3    3    0    0 -0.23491137225E+03 -0.16971981288E+03 -0.15304629076E+04  0.15576600654E+04  0.00000000000E+00 0.  1.
        -11    1    3    3    0    0 -0.42170326103E+03 -0.26622648379E+03 -0.20566046588E+04  0.21162071977E+04  0.00000000000E+00 0. -1.
         22    1    1    2    0    0  0.65661463328E+03  0.43594629667E+03  0.12476147357E+04  0.14757149044E+04  0.00000000000E+00 0.  1.
<mgrwt>
<rscale>  0 0.45875001E+04</rscale>
<asrwt>0</asrwt>
<pdfrwt beam="1">  1        2 0.57607960E+00 0.45875001E+04</pdfrwt>
<pdfrwt beam="2">  1       -2 0.21616380E+00 0.45875001E+04</pdfrwt>
<totfact> 0.42416573E-02</totfact>
</mgrwt>
</event>
<event>
 6    1  0.1773638E-005  0.5089085E+04  0.7818608E-02  0.7814910E-01
          1   -1    0    0  501    0  0.00000000000E+00  0.00000000000E+00  0.24569286337E+04  0.24569286337E+04  0.00000000000E+00 0. -1.
         -1   -1    0    0    0  501 -0.00000000000E+00 -0.00000000000E+00 -0.26352811370E+04  0.26352811370E+04  0.00000000000E+00 0.  1.
         23    2    1    2    0    0  0.11929577525E+04 -0.19942496377E+04 -0.11244243838E+04  0.25831797152E+04  0.91145100738E+02 0.  0.
         13    1    3    3    0    0  0.67331327329E+03 -0.10390322603E+04 -0.60944991602E+03  0.13799884065E+04  0.00000000000E+00 0. -1.
        -13    1    3    3    0    0  0.51964447923E+03 -0.95521737737E+03 -0.51497446780E+03  0.12031913087E+04  0.00000000000E+00 0.  1.
         22    1    1    2    0    0 -0.11929577525E+04  0.19942496377E+04  0.94607188051E+03  0.25090300556E+04  0.00000000000E+00 0. -1.
<mgrwt>
<rscale>  0 0.50890855E+04</rscale>
<asrwt>0</asrwt>
<pdfrwt beam="1">  1        1 0.37798902E+00 0.50890855E+04</pdfrwt>
<pdfrwt beam="2">  1       -1 0.40542787E+00 0.50890855E+04</pdfrwt>
<totfact> 0.68363229E-03</totfact>
</mgrwt>
</event>
<event>
 6    1  0.1779315E-005  0.2115083E+04  0.7818608E-02  0.8554628E-01
         -1   -1    0    0    0  501 -0.00000000000E+00  0.00000000000E+00  0.38526452057E+03  0.38526452057E+03  0.00000000000E+00 0.  1.
          1   -1    0    0  501    0  0.00000000000E+00 -0.00000000000E+00 -0.29029262058E+04  0.29029262058E+04  0.00000000000E+00 0. -1.
         23    2    1    2    0    0 -0.96364040745E+03 -0.38906983353E+03 -0.15494215837E+04  0.18678150492E+04  0.89708659492E+02 0.  0.
         13    1    3    3    0    0 -0.33611026629E+03 -0.15029225175E+03 -0.47731132124E+03  0.60281337860E+03  0.00000000000E+00 0.  1.
        -13    1    3    3    0    0 -0.62753014116E+03 -0.23877758178E+03 -0.10721102625E+04  0.12650016706E+04  0.00000000000E+00 0. -1.
         22    1    1    2    0    0  0.96364040745E+03  0.38906983353E+03 -0.96824010155E+03  0.14203756772E+04  0.00000000000E+00 0. -1.
<mgrwt>
<rscale>  0 0.21150834E+04</rscale>
<asrwt>0</asrwt>
<pdfrwt beam="1">  1        1 0.44660403E+00 0.21150834E+04</pdfrwt>
<pdfrwt beam="2">  1       -1 0.59271465E-01 0.21150834E+04</pdfrwt>
<totfact> 0.18651941E+00</totfact>
</mgrwt>
</event>
<event>
 6    1  0.1773638E-005  0.7399947E+03  0.7818608E-02  0.9651179E-01
         -2   -1    0    0    0  501 -0.00000000000E+00  0.00000000000E+00  0.77223600687E+03  0.77223600687E+03  0.00000000000E+00 0.  1.
          2   -1    0    0  501    0  0.00000000000E+00 -0.00000000000E+00 -0.17727485941E+03  0.17727485941E+03  0.00000000000E+00 0. -1.
         23    2    1    2    0    0 -0.84122598634E+02 -0.32561961369E+03  0.12272818234E+03  0.36976202604E+03  0.92504079599E+02 0.  0.
         13    1    3    3    0    0 -0.65026533601E+02 -0.21380272516E+03  0.34642670984E+02  0.22614192448E+03  0.00000000000E+00 0. -1.
        -13    1    3    3    0    0 -0.19096065033E+02 -0.11181688853E+03  0.88085511353E+02  0.14362010155E+03  0.00000000000E+00 0.  1.
         22    1    1    2    0    0  0.84122598634E+02  0.32561961369E+03  0.47223296512E+03  0.57974884024E+03  0.00000000000E+00 0. -1.
<mgrwt>
<rscale>  0 0.73999467E+03</rscale>
<asrwt>0</asrwt>
<pdfrwt beam="1">  1        2 0.27273056E-01 0.73999467E+03</pdfrwt>
<pdfrwt beam="2">  1       -2 0.11880554E+00 0.73999467E+03</pdfrwt>
<totfact> 0.10900144E+02</totfact>
</mgrwt>
</event>
<event>
 6    1  0.1773638E-005  0.1690857E+04  0.7818608E-02  0.8766596E-01
          1   -1    0    0  501    0  0.00000000000E+00  0.00000000000E+00  0.40937138013E+04  0.40937138013E+04  0.00000000000E+00 0.  1.
         -1   -1    0    0    0  501 -0.00000000000E+00 -0.00000000000E+00 -0.17459685333E+03  0.17459685333E+03  0.00000000000E+00 0. -1.
         23    2    1    2    0    0  0.73615431514E+03  0.40399305577E+03  0.21536236070E+04  0.23132913959E+04  0.89938185036E+02 0.  0.
         13    1    3    3    0    0  0.58832797449E+03  0.28197232852E+03  0.16328799012E+04  0.17583898804E+04  0.00000000000E+00 0. -1.
        -13    1    3    3    0    0  0.14782634065E+03  0.12202072724E+03  0.52074370580E+03  0.55490151559E+03  0.00000000000E+00 0.  1.
         22    1    1    2    0    0 -0.73615431514E+03 -0.40399305577E+03  0.17654933410E+04  0.19550192587E+04  0.00000000000E+00 0.  1.
<mgrwt>
<rscale>  0 0.16908572E+04</rscale>
<asrwt>0</asrwt>
<pdfrwt beam="1">  1        1 0.62980205E+00 0.16908572E+04</pdfrwt>
<pdfrwt beam="2">  1       -1 0.26861057E-01 0.16908572E+04</pdfrwt>
<totfact> 0.94736427E-01</totfact>
</mgrwt>
</event>
<event>
 6    1  0.1773638E-005  0.1177657E+04  0.7818608E-02  0.9132641E-01
          1   -1    0    0  501    0  0.00000000000E+00  0.00000000000E+00  0.21032517446E+04  0.21032517446E+04  0.00000000000E+00 0. -1.
         -1   -1    0    0    0  501 -0.00000000000E+00 -0.00000000000E+00 -0.16484901125E+03  0.16484901125E+03  0.00000000000E+00 0.  1.
         23    2    1    2    0    0  0.46375532130E+03  0.13707744485E+03  0.16112346984E+04  0.16842359196E+04  0.81939950791E+02 0.  0.
         11    1    3    3    0    0  0.48513404218E+02 -0.33217822249E+01  0.10896021039E+03  0.11931853198E+03  0.00000000000E+00 0.  1.
        -11    1    3    3    0    0  0.41524191708E+03  0.14039922707E+03  0.15022744880E+04  0.15649173876E+04  0.00000000000E+00 0. -1.
         22    1    1    2    0    0 -0.46375532130E+03 -0.13707744485E+03  0.32716803489E+03  0.58386483622E+03  0.00000000000E+00 0.  1.
<mgrwt>
<rscale>  0 0.11776569E+04</rscale>
<asrwt>0</asrwt>
<pdfrwt beam="1">  1        1 0.32357717E+00 0.11776569E+04</pdfrwt>
<pdfrwt beam="2">  1       -1 0.25361388E-01 0.11776569E+04</pdfrwt>
<totfact> 0.34446227E+01</totfact>
</mgrwt>
</event>
<event>
 6    1  0.1773638E-005  0.1574331E+04  0.7818608E-02  0.8836475E-01
          1   -1    0    0  501    0  0.00000000000E+00  0.00000000000E+00  0.98217349447E+03  0.98217349447E+03  0.00000000000E+00 0. -1.
         -1   -1    0    0    0  501 -0.00000000000E+00 -0.00000000000E+00 -0.63087545469E+03  0.63087545469E+03  0.00000000000E+00 0.  1.
         23    2    1    2    0    0 -0.47318407365E+03  0.50423385852E+03  0.55604667601E+03  0.89188533688E+03  0.90092156244E+02 0.  0.
         13    1    3    3    0    0 -0.30046566355E+03  0.25585298821E+03  0.32425684284E+03  0.51076693969E+03  0.00000000000E+00 0. -1.
        -13    1    3    3    0    0 -0.17271841010E+03  0.24838087030E+03  0.23178983316E+03  0.38111839719E+03  0.00000000000E+00 0.  1.
         22    1    1    2    0    0  0.47318407365E+03 -0.50423385852E+03 -0.20474863623E+03  0.72116361227E+03  0.00000000000E+00 0.  1.
<mgrwt>
<rscale>  0 0.15743305E+04</rscale>
<asrwt>0</asrwt>
<pdfrwt beam="1">  1        1 0.15110361E+00 0.15743305E+04</pdfrwt>
<pdfrwt beam="2">  1       -1 0.97057762E-01 0.15743305E+04</pdfrwt>
<totfact> 0.15333457E+01</totfact>
</mgrwt>
</event>
<event>
 6    1  0.1773638E-005  0.1050813E+04  0.7818608E-02  0.9254505E-01
         -2   -1    0    0    0  501 -0.00000000000E+00  0.00000000000E+00  0.19160450251E+03  0.19160450251E+03  0.00000000000E+00 0.  1.
          2   -1    0    0  501    0  0.00000000000E+00 -0.00000000000E+00 -0.14407398922E+04  0.14407398922E+04  0.00000000000E+00 0. -1.
         23    2    1    2    0    0 -0.36211727150E+03  0.12718512949E+03 -0.80358841034E+02  0.40216408428E+03  0.89294075266E+02 0.  0.
         11    1    3    3    0    0 -0.12104574694E+03  0.88325623194E+02 -0.28339228352E+02  0.15250114894E+03  0.00000000000E+00 0.  1.
        -11    1    3    3    0    0 -0.24107152455E+03  0.38859506297E+02 -0.52019612682E+02  0.24966293534E+03  0.00000000000E+00 0. -1.
         22    1    1    2    0    0  0.36211727150E+03 -0.12718512949E+03 -0.11687765487E+04  0.12301803105E+04  0.00000000000E+00 0. -1.
<mgrwt>
<rscale>  0 0.10508135E+04</rscale>
<asrwt>0</asrwt>
<pdfrwt beam="1">  1        2 0.22165229E+00 0.10508135E+04</pdfrwt>
<pdfrwt beam="2">  1       -2 0.29477616E-01 0.10508135E+04</pdfrwt>
<totfact> 0.14455611E+02</totfact>
</mgrwt>
</event>
<event>
 6    1  0.1773638E-005  0.1471269E+04  0.7818608E-02  0.8903787E-01
         -1   -1    0    0    0  501 -0.00000000000E+00  0.00000000000E+00  0.18897274690E+03  0.18897274690E+03  0.00000000000E+00 0.  1.
          1   -1    0    0  501    0  0.00000000000E+00 -0.00000000000E+00 -0.28636826182E+04  0.28636826182E+04  0.00000000000E+00 0. -1.
         23    2    1    2    0    0  0.30617380211E+03 -0.11360513666E+03 -0.27035486276E+04  0.27248136380E+04  0.93731829389E+02 0.  0.
         11    1    3    3    0    0  0.81925221325E+02 -0.77045883460E+02 -0.86676625626E+03  0.87403178034E+03  0.00000000000E+00 0. -1.
        -11    1    3    3    0    0  0.22424858078E+03 -0.36559253203E+02 -0.18367823714E+04  0.18507818577E+04  0.00000000000E+00 0.  1.
         22    1    1    2    0    0 -0.30617380211E+03  0.11360513666E+03  0.28838756296E+02  0.32784172712E+03  0.00000000000E+00 0.  1.
<mgrwt>
<rscale>  0 0.14712688E+04</rscale>
<asrwt>0</asrwt>
<pdfrwt beam="1">  1        1 0.44056655E+00 0.14712688E+04</pdfrwt>
<pdfrwt beam="2">  1       -1 0.29072731E-01 0.14712688E+04</pdfrwt>
<totfact> 0.78867830E+00</totfact>
</mgrwt>
</event>
<event>
 6    1  0.1773638E-005  0.3666015E+04  0.7818608E-02  0.8075535E-01
          1   -1    0    0  501    0  0.00000000000E+00  0.00000000000E+00  0.15906001313E+04  0.15906001313E+04  0.00000000000E+00 0. -1.
         -1   -1    0    0    0  501 -0.00000000000E+00 -0.00000000000E+00 -0.21123573266E+04  0.21123573266E+04  0.00000000000E+00 0.  1.
         23    2    1    2    0    0  0.10800635245E+04 -0.10973383553E+04  0.74156015853E+03  0.17113100444E+04  0.89341570898E+02 0.  0.
         11    1    3    3    0    0  0.41722963177E+03 -0.48378424689E+03  0.32179550749E+03  0.71531818920E+03  0.00000000000E+00 0.  1.
        -11    1    3    3    0    0  0.66283389278E+03 -0.61355410841E+03  0.41976465103E+03  0.99599185520E+03  0.00000000000E+00 0. -1.
         22    1    1    2    0    0 -0.10800635245E+04  0.10973383553E+04 -0.12633173539E+04  0.19916474135E+04  0.00000000000E+00 0.  1.
<mgrwt>
<rscale>  0 0.36660146E+04</rscale>
<asrwt>0</asrwt>
<pdfrwt beam="1">  1        1 0.24470771E+00 0.36660146E+04</pdfrwt>
<pdfrwt beam="2">  1       -1 0.32497805E+00 0.36660146E+04</pdfrwt>
<totfact> 0.10345780E-01</totfact>
</mgrwt>
</event>
<event>
 6    1  0.1773638E-005  0.4524944E+04  0.7818608E-02  0.7906284E-01
         -2   -1    0    0    0  501 -0.00000000000E+00  0.00000000000E+00  0.17722609067E+04  0.17722609067E+04  0.00000000000E+00 0.  1.
          2   -1    0    0  501    0  0.00000000000E+00 -0.00000000000E+00 -0.28882766758E+04  0.28882766758E+04  0.00000000000E+00 0. -1.
         23    2    1    2    0    0 -0.75646600624E+03  0.16629788741E+03 -0.27466802057E+04  0.28552779583E+04  0.92001416889E+02 0.  0.
         13    1    3    3    0    0 -0.45653721012E+03  0.14476728588E+03 -0.17276824074E+04  0.17928386130E+04  0.00000000000E+00 0. -1.
        -13    1    3    3    0    0 -0.29992879612E+03  0.21530601529E+02 -0.10189977983E+04  0.10624393453E+04  0.00000000000E+00 0.  1.
         22    1    1    2    0    0  0.75646600624E+03 -0.16629788741E+03  0.16306644366E+04  0.18052596242E+04  0.00000000000E+00 0.  1.
<mgrwt>
<rscale>  0 0.45249441E+04</rscale>
<asrwt>0</asrwt>
<pdfrwt beam="1">  1        2 0.44435026E+00 0.45249441E+04</pdfrwt>
<pdfrwt beam="2">  1       -2 0.27265552E+00 0.45249441E+04</pdfrwt>
<totfact> 0.72096825E-02</totfact>
</mgrwt>
</event>
<event>
 6    1  0.1773638E-005  0.1972448E+04  0.7818608E-02  0.8619612E-01
         -2   -1    0    0    0  501 -0.00000000000E+00  0.00000000000E+00  0.88634297340E+03  0.88634297340E+03  0.00000000000E+00 0.  1.
          2   -1    0    0  501    0  0.00000000000E+00 -0.00000000000E+00 -0.10973600029E+04  0.10973600029E+04  0.00000000000E+00 0. -1.
         23    2    1    2    0    0  0.20078972892E+02 -0.87679229199E+03  0.34342740149E+03  0.94612092386E+03  0.89635562299E+02 0.  0.
         11    1    3    3    0    0  0.31879792295E+02 -0.65712567421E+03  0.29427234405E+03  0.72071262326E+03  0.00000000000E+00 0.  1.
        -11    1    3    3    0    0 -0.11800819403E+02 -0.21966661778E+03  0.49155057444E+02  0.22540830060E+03  0.00000000000E+00 0. -1.
         22    1    1    2    0    0 -0.20078972892E+02  0.87679229199E+03 -0.55444443095E+03  0.10375820524E+04  0.00000000000E+00 0. -1.
<mgrwt>
<rscale>  0 0.19724475E+04</rscale>
<asrwt>0</asrwt>
<pdfrwt beam="1">  1        2 0.16882461E+00 0.19724475E+04</pdfrwt>
<pdfrwt beam="2">  1       -2 0.13636046E+00 0.19724475E+04</pdfrwt>
<totfact> 0.78298847E+00</totfact>
</mgrwt>
</event>
<event>
 6    1  0.1773638E-005  0.2470657E+04  0.7818608E-02  0.8413514E-01
         -2   -1    0    0    0  501 -0.00000000000E+00  0.00000000000E+00  0.71183408046E+03  0.71183408046E+03  0.00000000000E+00 0.  1.
          2   -1    0    0  501    0  0.00000000000E+00 -0.00000000000E+00 -0.21438086559E+04  0.21438086559E+04  0.00000000000E+00 0. -1.
         23    2    1    2    0    0 -0.37674671204E+03  0.11639101508E+04 -0.90083633183E+03  0.15219513336E+04  0.90580576614E+02 0.  0.
         13    1    3    3    0    0 -0.15997990497E+03  0.61816945382E+03 -0.49940723537E+03  0.81063840914E+03  0.00000000000E+00 0.  1.
        -13    1    3    3    0    0 -0.21676680707E+03  0.54574069695E+03 -0.40142909646E+03  0.71131292441E+03  0.00000000000E+00 0. -1.
         22    1    1    2    0    0  0.37674671204E+03 -0.11639101508E+04 -0.53113824363E+03  0.13336914028E+04  0.00000000000E+00 0. -1.
<mgrwt>
<rscale>  0 0.24706566E+04</rscale>
<asrwt>0</asrwt>
<pdfrwt beam="1">  1        2 0.32981671E+00 0.24706566E+04</pdfrwt>
<pdfrwt beam="2">  1       -2 0.10951294E+00 0.24706566E+04</pdfrwt>
<totfact> 0.32968539E+00</totfact>
</mgrwt>
</event>
<event>
 6    1  0.1773638E-005  0.9695308E+03  0.7818608E-02  0.9342609E-01
          4   -1    0    0  501    0  0.00000000000E+00  0.00000000000E+00  0.83788530588E+03  0.83788530588E+03  0.00000000000E+00 0.  1.
         -4   -1    0    0    0  501 -0.00000000000E+00 -0.00000000000E+00 -0.28046501017E+03  0.28046501017E+03  0.00000000000E+00 0. -1.
         23    2    1    2    0    0 -0.13578573679E+03 -0.11746467691E+03  0.79547472541E+03  0.82017984780E+03  0.87631200698E+02 0.  0.
         13    1    3    3    0    0 -0.64859802348E+02 -0.22892159001E+02  0.16573249015E+03  0.17943829914E+03  0.00000000000E+00 0.  1.
        -13    1    3    3    0    0 -0.70925934445E+02 -0.94572517908E+02  0.62974223526E+03  0.64074154866E+03  0.00000000000E+00 0. -1.
         22    1    1    2    0    0  0.13578573679E+03  0.11746467691E+03 -0.23805442969E+03  0.29817046825E+03  0.00000000000E+00 0. -1.
<mgrwt>
<rscale>  0 0.96953084E+03</rscale>
<asrwt>0</asrwt>
<pdfrwt beam="1">  1        4 0.12890543E+00 0.96953084E+03</pdfrwt>
<pdfrwt beam="2">  1       -4 0.43148463E-01 0.96953084E+03</pdfrwt>
<totfact> 0.45912527E+00</totfact>
</mgrwt>
</event>
<event>
 6    1  0.1773638E-005  0.2934555E+04  0.7818608E-02  0.8262670E-01
          2   -1    0    0  501    0  0.00000000000E+00  0.00000000000E+00  0.30097385379E+04  0.30097385379E+04  0.00000000000E+00 0. -1.
         -2   -1    0    0    0  501 -0.00000000000E+00 -0.00000000000E+00 -0.71531261207E+03  0.71531261207E+03  0.00000000000E+00 0.  1.
         23    2    1    2    0    0  0.12217545466E+04  0.60254368963E+03  0.18353858627E+04  0.22875321589E+04  0.91755343812E+02 0.  0.
         13    1    3    3    0    0  0.42695539853E+03  0.21204749849E+03  0.71682656399E+03  0.86086896609E+03  0.00000000000E+00 0.  1.
        -13    1    3    3    0    0  0.79479914807E+03  0.39049619114E+03  0.11185592987E+04  0.14266631928E+04  0.00000000000E+00 0. -1.
         22    1    1    2    0    0 -0.12217545466E+04 -0.60254368963E+03  0.45904006316E+03  0.14375189911E+04  0.00000000000E+00 0.  1.
<mgrwt>
<rscale>  0 0.29345555E+04</rscale>
<asrwt>0</asrwt>
<pdfrwt beam="1">  1        2 0.46303669E+00 0.29345555E+04</pdfrwt>
<pdfrwt beam="2">  1       -2 0.11004810E+00 0.29345555E+04</pdfrwt>
<totfact> 0.96919097E-01</totfact>
</mgrwt>
</event>
<event>
 6    1  0.1773638E-005  0.1769022E+04  0.7818608E-02  0.8722949E-01
          2   -1    0    0  501    0  0.00000000000E+00  0.00000000000E+00  0.13469674014E+04  0.13469674014E+04  0.00000000000E+00 0. -1.
         -2   -1    0    0    0  501 -0.00000000000E+00 -0.00000000000E+00 -0.58083060438E+03  0.58083060438E+03  0.00000000000E+00 0.  1.
         23    2    1    2    0    0  0.35581708307E+03  0.80562527601E+03  0.32196116930E+03  0.94142593084E+03  0.83581737047E+02 0.  0.
         13    1    3    3    0    0  0.10150602112E+03  0.21867978244E+03  0.49358932296E+02  0.24609068201E+03  0.00000000000E+00 0.  1.
        -13    1    3    3    0    0  0.25431106195E+03  0.58694549357E+03  0.27260223700E+03  0.69533524883E+03  0.00000000000E+00 0. -1.
         22    1    1    2    0    0 -0.35581708307E+03 -0.80562527601E+03  0.44417562769E+03  0.98637207492E+03  0.00000000000E+00 0. -1.
<mgrwt>
<rscale>  0 0.17690222E+04</rscale>
<asrwt>0</asrwt>
<pdfrwt beam="1">  1        2 0.20722575E+00 0.17690222E+04</pdfrwt>
<pdfrwt beam="2">  1       -2 0.89358555E-01 0.17690222E+04</pdfrwt>
<totfact> 0.15786982E+01</totfact>
</mgrwt>
</event>
<event>
 6    1  0.1773638E-005  0.5834062E+03  0.7818608E-02  0.9940444E-01
         -1   -1    0    0    0  501 -0.00000000000E+00  0.00000000000E+00  0.10316120019E+03  0.10316120019E+03  0.00000000000E+00 0.  1.
          1   -1    0    0  501    0  0.00000000000E+00 -0.00000000000E+00 -0.82483243376E+03  0.82483243376E+03  0.00000000000E+00 0. -1.
         23    2    1    2    0    0 -0.79929993780E+02 -0.25827229867E+03 -0.50959401478E+03  0.58438028890E+03  0.93385641209E+02 0.  0.
         13    1    3    3    0    0 -0.88011135623E+02 -0.24440081694E+03 -0.42363437242E+03  0.49693440293E+03  0.00000000000E+00 0.  1.
        -13    1    3    3    0    0  0.80811418433E+01 -0.13871481735E+02 -0.85959642356E+02  0.87445885970E+02  0.00000000000E+00 0. -1.
         22    1    1    2    0    0  0.79929993780E+02  0.25827229867E+03 -0.21207721879E+03  0.34361334505E+03  0.00000000000E+00 0. -1.
<mgrwt>
<rscale>  0 0.58340622E+03</rscale>
<asrwt>0</asrwt>
<pdfrwt beam="1">  1        1 0.12689730E+00 0.58340622E+03</pdfrwt>
<pdfrwt beam="2">  1       -1 0.15870954E-01 0.58340622E+03</pdfrwt>
<totfact> 0.63838284E+02</totfact>
</mgrwt>
</event>
<event>
 6    1  0.1773638E-005  0.2998952E+04  0.7818608E-02  0.8244030E-01
          2   -1    0    0  501    0  0.00000000000E+00  0.00000000000E+00  0.87331911063E+03  0.87331911063E+03  0.00000000000E+00 0. -1.
         -2   -1    0    0    0  501 -0.00000000000E+00 -0.00000000000E+00 -0.25745780522E+04  0.25745780522E+04  0.00000000000E+00 0.  1.
         23    2    1    2    0    0 -0.12087638634E+03 -0.52519147544E+03  0.75578291622E+03  0.93244653172E+03  0.88382868280E+02 0.  0.
         11    1    3    3    0    0 -0.58082240070E+02 -0.96680605963E+02  0.14497617075E+03  0.18368118104E+03  0.00000000000E+00 0. -1.
        -11    1    3    3    0    0 -0.62794146266E+02 -0.42851086948E+03  0.61080674547E+03  0.74876535068E+03  0.00000000000E+00 0.  1.
         22    1    1    2    0    0  0.12087638634E+03  0.52519147544E+03 -0.24570418577E+04  0.25154506311E+04  0.00000000000E+00 0.  1.
<mgrwt>
<rscale>  0 0.29989520E+04</rscale>
<asrwt>0</asrwt>
<pdfrwt beam="1">  1        2 0.13435679E+00 0.29989520E+04</pdfrwt>
<pdfrwt beam="2">  1       -2 0.39608893E+00 0.29989520E+04</pdfrwt>
<totfact> 0.20594315E-01</totfact>
</mgrwt>
</event>
<event>
 6    1  0.1773638E-005  0.3034751E+04  0.7818608E-02  0.8233877E-01
         -1   -1    0    0    0  501 -0.00000000000E+00  0.00000000000E+00  0.63059455107E+03  0.63059455107E+03  0.00000000000E+00 0.  1.
          1   -1    0    0  501    0  0.00000000000E+00 -0.00000000000E+00 -0.36512022875E+04  0.36512022875E+04  0.00000000000E+00 0. -1.
         23    2    1    2    0    0 -0.13182764944E+04  0.70846040184E+03 -0.18528268686E+04  0.23835130842E+04  0.91641482006E+02 0.  0.
         11    1    3    3    0    0 -0.92955230761E+02  0.73958793263E+02 -0.16794606298E+03  0.20570964513E+03  0.00000000000E+00 0.  1.
        -11    1    3    3    0    0 -0.12253212636E+04  0.63450160858E+03 -0.16848808056E+04  0.21778034391E+04  0.00000000000E+00 0. -1.
         22    1    1    2    0    0  0.13182764944E+04 -0.70846040184E+03 -0.11677808679E+04  0.18982837544E+04  0.00000000000E+00 0.  1.
<mgrwt>
<rscale>  0 0.30347509E+04</rscale>
<asrwt>0</asrwt>
<pdfrwt beam="1">  1        1 0.56172344E+00 0.30347509E+04</pdfrwt>
<pdfrwt beam="2">  1       -1 0.97014545E-01 0.30347509E+04</pdfrwt>
<totfact> 0.16371814E-01</totfact>
</mgrwt>
</event>
<event>
 6    1  0.2741489E-005  0.2197389E+04  0.7818608E-02  0.8519516E-01
         -2   -1    0    0    0  501 -0.00000000000E+00  0.00000000000E+00  0.94001670349E+03  0.94001670349E+03  0.00000000000E+00 0.  1.
          2   -1    0    0  501    0  0.00000000000E+00 -0.00000000000E+00 -0.12841580021E+04  0.12841580021E+04  0.00000000000E+00 0. -1.
         23    2    1    2    0    0  0.10328782092E+04  0.15590634791E+03 -0.51225404230E+03  0.11661548196E+04  0.79803979641E+02 0.  0.
         13    1    3    3    0    0  0.70425025402E+03  0.85398108837E+02 -0.31267734469E+03  0.77526020094E+03  0.00000000000E+00 0. -1.
        -13    1    3    3    0    0  0.32862795519E+03  0.70508239076E+02 -0.19957669760E+03  0.39089461871E+03  0.00000000000E+00 0.  1.
         22    1    1    2    0    0 -0.10328782092E+04 -0.15590634791E+03  0.16811274371E+03  0.10580198859E+04  0.00000000000E+00 0.  1.
<mgrwt>
<rscale>  0 0.21973893E+04</rscale>
<asrwt>0</asrwt>
<pdfrwt beam="1">  1        2 0.19756277E+00 0.21973893E+04</pdfrwt>
<pdfrwt beam="2">  1       -2 0.14461795E+00 0.21973893E+04</pdfrwt>
<totfact> 0.50950954E+00</totfact>
</mgrwt>
</event>
<event>
 6    1  0.1773638E-005  0.1214235E+04  0.7818608E-02  0.9100487E-01
          1   -1    0    0  501    0  0.00000000000E+00  0.00000000000E+00  0.69852393587E+03  0.69852393587E+03  0.00000000000E+00 0. -1.
         -1   -1    0    0    0  501 -0.00000000000E+00 -0.00000000000E+00 -0.52767231467E+03  0.52767231467E+03  0.00000000000E+00 0.  1.
         23    2    1    2    0    0 -0.45680289282E+03  0.60269881452E+02  0.47974833647E+03  0.67147242537E+03  0.91735544846E+02 0.  0.
         13    1    3    3    0    0 -0.11461634109E+03 -0.13011485847E+02  0.16143990035E+03  0.19841634468E+03  0.00000000000E+00 0. -1.
        -13    1    3    3    0    0 -0.34218655173E+03  0.73281367299E+02  0.31830843611E+03  0.47305608069E+03  0.00000000000E+00 0.  1.
         22    1    1    2    0    0  0.45680289282E+03 -0.60269881452E+02 -0.30889671527E+03  0.55472382517E+03  0.00000000000E+00 0.  1.
<mgrwt>
<rscale>  0 0.12142351E+04</rscale>
<asrwt>0</asrwt>
<pdfrwt beam="1">  1        1 0.10746522E+00 0.12142351E+04</pdfrwt>
<pdfrwt beam="2">  1       -1 0.81180356E-01 0.12142351E+04</pdfrwt>
<totfact> 0.40874712E+01</totfact>
</mgrwt>
</event>
<event>
 6    1  0.1773638E-005  0.3399143E+04  0.7818608E-02  0.8138117E-01
          2   -1    0    0  501    0  0.00000000000E+00  0.00000000000E+00  0.45857453437E+04  0.45857453437E+04  0.00000000000E+00 0. -1.
         -2   -1    0    0    0  501 -0.00000000000E+00 -0.00000000000E+00 -0.62989602180E+03  0.62989602180E+03  0.00000000000E+00 0.  1.
         23    2    1    2    0    0 -0.10876112909E+04 -0.92243694620E+03  0.56440492655E+03  0.15365540702E+04  0.93044342078E+02 0.  0.
         11    1    3    3    0    0 -0.23417403870E+03 -0.24910717670E+03  0.12485126833E+03  0.36397761619E+03  0.00000000000E+00 0. -1.
        -11    1    3    3    0    0 -0.85343725222E+03 -0.67332976949E+03  0.43955365822E+03  0.11725764540E+04  0.00000000000E+00 0.  1.
         22    1    1    2    0    0  0.10876112909E+04  0.92243694620E+03  0.33914443953E+04  0.36790872953E+04  0.00000000000E+00 0. -1.
<mgrwt>
<rscale>  0 0.33991427E+04</rscale>
<asrwt>0</asrwt>
<pdfrwt beam="1">  1        2 0.70549926E+00 0.33991427E+04</pdfrwt>
<pdfrwt beam="2">  1       -2 0.96907083E-01 0.33991427E+04</pdfrwt>
<totfact> 0.74142852E-02</totfact>
</mgrwt>
</event>
<event>
 6    1  0.1773638E-005  0.1826531E+04  0.7818608E-02  0.8692316E-01
         -2   -1    0    0    0  501 -0.00000000000E+00  0.00000000000E+00  0.45195911781E+03  0.45195911781E+03  0.00000000000E+00 0. -1.
          2   -1    0    0  501    0  0.00000000000E+00 -0.00000000000E+00 -0.18454193571E+04  0.18454193571E+04  0.00000000000E+00 0.  1.
         23    2    1    2    0    0 -0.31400726333E+03  0.81985809519E+03 -0.10042798685E+04  0.13370508128E+04  0.91427369732E+02 0.  0.
         13    1    3    3    0    0 -0.17056124515E+03  0.45518764669E+03 -0.62409784474E+03  0.79106576961E+03  0.00000000000E+00 0.  1.
        -13    1    3    3    0    0 -0.14344601819E+03  0.36467044850E+03 -0.38018202378E+03  0.54598504315E+03  0.00000000000E+00 0. -1.
         22    1    1    2    0    0  0.31400726333E+03 -0.81985809519E+03 -0.38918037075E+03  0.96032766213E+03  0.00000000000E+00 0.  1.
<mgrwt>
<rscale>  0 0.18265313E+04</rscale>
<asrwt>0</asrwt>
<pdfrwt beam="1">  1        2 0.28391067E+00 0.18265313E+04</pdfrwt>
<pdfrwt beam="2">  1       -2 0.69532173E-01 0.18265313E+04</pdfrwt>
<totfact> 0.14467697E+01</totfact>
</mgrwt>
</event>
<event>
 6    1  0.1773638E-005  0.5394615E+04  0.7818608E-02  0.7770359E-01
          1   -1    0    0  501    0  0.00000000000E+00  0.00000000000E+00  0.33164210131E+04  0.33164210131E+04  0.00000000000E+00 0. -1.
         -1   -1    0    0    0  501 -0.00000000000E+00 -0.00000000000E+00 -0.21937711686E+04  0.21937711686E+04  0.00000000000E+00 0.  1.
         23    2    1    2    0    0  0.39775253971E+03  0.26044669353E+04 -0.24893908587E+02  0.26364643301E+04  0.94177266068E+02 0.  0.
         13    1    3    3    0    0  0.26251722616E+02  0.28230883504E+03  0.21279786787E+02  0.28432421741E+03  0.00000000000E+00 0. -1.
        -13    1    3    3    0    0  0.37150081709E+03  0.23221581002E+04 -0.46173695374E+02  0.23521401127E+04  0.00000000000E+00 0.  1.
         22    1    1    2    0    0 -0.39775253971E+03 -0.26044669353E+04  0.11475437532E+04  0.28737278516E+04  0.00000000000E+00 0. -1.
<mgrwt>
<rscale>  0 0.53946154E+04</rscale>
<asrwt>0</asrwt>
<pdfrwt beam="1">  1        1 0.51021862E+00 0.53946154E+04</pdfrwt>
<pdfrwt beam="2">  1       -1 0.33750326E+00 0.53946154E+04</pdfrwt>
<totfact> 0.45610910E-03</totfact>
</mgrwt>
</event>
<event>
 6    1  0.1773638E-005  0.3173325E+04  0.7818608E-02  0.8195898E-01
         -2   -1    0    0    0  501 -0.00000000000E+00  0.00000000000E+00  0.35530927727E+04  0.35530927727E+04  0.00000000000E+00 0.  1.
          2   -1    0    0  501    0  0.00000000000E+00 -0.00000000000E+00 -0.70853694686E+03  0.70853694686E+03  0.00000000000E+00 0. -1.
         23    2    1    2    0    0 -0.12153613774E+04  0.10158927413E+04  0.15099701045E+04  0.21903353448E+04  0.91748932202E+02 0.  0.
         13    1    3    3    0    0 -0.21652139940E+03  0.14564934425E+03  0.22076414749E+03  0.34180704600E+03  0.00000000000E+00 0.  1.
        -13    1    3    3    0    0 -0.99883997802E+03  0.87024339700E+03  0.12892059570E+04  0.18485282988E+04  0.00000000000E+00 0. -1.
         22    1    1    2    0    0  0.12153613774E+04 -0.10158927413E+04  0.13345857213E+04  0.20712943748E+04  0.00000000000E+00 0. -1.
<mgrwt>
<rscale>  0 0.31733248E+04</rscale>
<asrwt>0</asrwt>
<pdfrwt beam="1">  1        2 0.10900569E+00 0.31733248E+04</pdfrwt>
<pdfrwt beam="2">  1       -2 0.54662964E+00 0.31733248E+04</pdfrwt>
<totfact> 0.30079019E-02</totfact>
</mgrwt>
</event>
<event>
 6    1  0.1773638E-005  0.2015722E+04  0.7818608E-02  0.8599305E-01
          1   -1    0    0  501    0  0.00000000000E+00  0.00000000000E+00  0.67595889687E+03  0.67595889687E+03  0.00000000000E+00 0. -1.
         -1   -1    0    0    0  501 -0.00000000000E+00 -0.00000000000E+00 -0.15027300931E+04  0.15027300931E+04  0.00000000000E+00 0.  1.
         23    2    1    2    0    0 -0.10820305983E+03  0.98995094998E+03 -0.26110314799E+03  0.10333981421E+04  0.89588395414E+02 0.  0.
         11    1    3    3    0    0 -0.27263240388E+02  0.64382294152E+03 -0.16710358016E+03  0.66571380548E+03  0.00000000000E+00 0.  1.
        -11    1    3    3    0    0 -0.80939819442E+02  0.34612800846E+03 -0.93999567833E+02  0.36768433658E+03  0.00000000000E+00 0. -1.
         22    1    1    2    0    0  0.10820305983E+03 -0.98995094998E+03 -0.56566804827E+03  0.11452908479E+04  0.00000000000E+00 0.  1.
<mgrwt>
<rscale>  0 0.20157220E+04</rscale>
<asrwt>0</asrwt>
<pdfrwt beam="1">  1        1 0.10399368E+00 0.20157220E+04</pdfrwt>
<pdfrwt beam="2">  1       -1 0.23118925E+00 0.20157220E+04</pdfrwt>
<totfact> 0.24663149E+00</totfact>
</mgrwt>
</event>
<event>
 6    1  0.1773638E-005  0.1835323E+04  0.7818608E-02  0.8687738E-01
         -2   -1    0    0    0  501 -0.00000000000E+00  0.00000000000E+00  0.14793921649E+04  0.14793921649E+04  0.00000000000E+00 0.  1.
          2   -1    0    0  501    0  0.00000000000E+00 -0.00000000000E+00 -0.56922173891E+03  0.56922173891E+03  0.00000000000E+00 0. -1.
         23    2    1    2    0    0 -0.29856270534E+02  0.87578927268E+03  0.16088552380E+03  0.89564984899E+03  0.91685621569E+02 0.  0.
         13    1    3    3    0    0  0.23699400864E+02  0.42070576706E+03  0.10304795428E+03  0.43379013926E+03  0.00000000000E+00 0. -1.
        -13    1    3    3    0    0 -0.53555671399E+02  0.45508350562E+03  0.57837569522E+02  0.46185970973E+03  0.00000000000E+00 0.  1.
         22    1    1    2    0    0  0.29856270534E+02 -0.87578927268E+03  0.74928490214E+03  0.11529640548E+04  0.00000000000E+00 0. -1.
<mgrwt>
<rscale>  0 0.18353225E+04</rscale>
<asrwt>0</asrwt>
<pdfrwt beam="1">  1        2 0.87572576E-01 0.18353225E+04</pdfrwt>
<pdfrwt beam="2">  1       -2 0.22759879E+00 0.18353225E+04</pdfrwt>
<totfact> 0.44008145E+00</totfact>
</mgrwt>
</event>
<event>
 6    1  0.1773638E-005  0.7172137E+03  0.7818608E-02  0.9688239E-01
         -1   -1    0    0    0  501 -0.00000000000E+00  0.00000000000E+00  0.98621996433E+03  0.98621996433E+03  0.00000000000E+00 0.  1.
          1   -1    0    0  501    0  0.00000000000E+00 -0.00000000000E+00 -0.13039573244E+03  0.13039573244E+03  0.00000000000E+00 0. -1.
         23    2    1    2    0    0  0.38599015193E+02 -0.34997089624E+03  0.39977160724E+03  0.54046163001E+03  0.91169750291E+02 0.  0.
         11    1    3    3    0    0  0.64792882651E+02 -0.28839039938E+03  0.34223462519E+03  0.45220756161E+03  0.00000000000E+00 0. -1.
        -11    1    3    3    0    0 -0.26193867458E+02 -0.61580496866E+02  0.57536982055E+02  0.88254068409E+02  0.00000000000E+00 0.  1.
         22    1    1    2    0    0 -0.38599015193E+02  0.34997089624E+03  0.45605262465E+03  0.57615406676E+03  0.00000000000E+00 0. -1.
<mgrwt>
<rscale>  0 0.71721370E+03</rscale>
<asrwt>0</asrwt>
<pdfrwt beam="1">  1        1 0.20060883E-01 0.71721370E+03</pdfrwt>
<pdfrwt beam="2">  1       -1 0.15172614E+00 0.71721370E+03</pdfrwt>
<totfact> 0.90051945E+01</totfact>
</mgrwt>
</event>
<event>
 6    1  0.1773638E-005  0.1816250E+04  0.7818608E-02  0.8697705E-01
         -2   -1    0    0    0  501 -0.00000000000E+00  0.00000000000E+00  0.60795274385E+03  0.60795274385E+03  0.00000000000E+00 0. -1.
          2   -1    0    0  501    0  0.00000000000E+00 -0.00000000000E+00 -0.13565054361E+04  0.13565054361E+04  0.00000000000E+00 0.  1.
         23    2    1    2    0    0 -0.10625957092E+03 -0.88246204063E+03 -0.56368319942E+03  0.10565996673E+04  0.92918018383E+02 0.  0.
         13    1    3    3    0    0 -0.54975923284E+02 -0.21341960854E+03 -0.10746534789E+03  0.24519192981E+03  0.00000000000E+00 0. -1.
        -13    1    3    3    0    0 -0.51283647637E+02 -0.66904243210E+03 -0.45621785152E+03  0.81140773752E+03  0.00000000000E+00 0.  1.
         22    1    1    2    0    0  0.10625957092E+03  0.88246204063E+03 -0.18486949285E+03  0.90785851263E+03  0.00000000000E+00 0. -1.
<mgrwt>
<rscale>  0 0.18162502E+04</rscale>
<asrwt>0</asrwt>
<pdfrwt beam="1">  1        2 0.20869314E+00 0.18162502E+04</pdfrwt>
<pdfrwt beam="2">  1       -2 0.93531193E-01 0.18162502E+04</pdfrwt>
<totfact> 0.13970649E+01</totfact>
</mgrwt>
</event>
<event>
 6    1  0.1773638E-005  0.2798157E+04  0.7818608E-02  0.8303841E-01
         -1   -1    0    0    0  501 -0.00000000000E+00  0.00000000000E+00  0.89722809901E+03  0.89722809901E+03  0.00000000000E+00 0.  1.
          1   -1    0    0  501    0  0.00000000000E+00 -0.00000000000E+00 -0.21816314739E+04  0.21816314739E+04  0.00000000000E+00 0. -1.
         23    2    1    2    0    0  0.59669346599E+03  0.92698766188E+03 -0.15880688331E+04  0.19353728314E+04  0.91412035837E+02 0.  0.
         13    1    3    3    0    0  0.42725793832E+03  0.73336290962E+03 -0.12039996706E+04  0.14730871359E+04  0.00000000000E+00 0.  1.
        -13    1    3    3    0    0  0.16943552767E+03  0.19362475226E+03 -0.38406916245E+03  0.46228569551E+03  0.00000000000E+00 0. -1.
         22    1    1    2    0    0 -0.59669346599E+03 -0.92698766188E+03  0.30366545815E+03  0.11434867416E+04  0.00000000000E+00 0.  1.
<mgrwt>
<rscale>  0 0.27981573E+04</rscale>
<asrwt>0</asrwt>
<pdfrwt beam="1">  1        1 0.33563561E+00 0.27981573E+04</pdfrwt>
<pdfrwt beam="2">  1       -1 0.13803509E+00 0.27981573E+04</pdfrwt>
<totfact> 0.84422611E-01</totfact>
</mgrwt>
</event>
<event>
 6    1  0.1773638E-005  0.3807638E+04  0.7818608E-02  0.8044518E-01
          4   -1    0    0  501    0  0.00000000000E+00  0.00000000000E+00  0.25757788292E+04  0.25757788292E+04  0.00000000000E+00 0. -1.
         -4   -1    0    0    0  501 -0.00000000000E+00 -0.00000000000E+00 -0.14071578908E+04  0.14071578908E+04  0.00000000000E+00 0.  1.
         23    2    1    2    0    0 -0.13643523222E+04 -0.18033902747E+03 -0.78924293902E+03  0.15897776391E+04  0.10251390623E+03 0.  0.
         11    1    3    3    0    0 -0.89230085002E+03 -0.15430945244E+03 -0.55587360101E+03  0.10625477280E+04  0.00000000000E+00 0.  1.
        -11    1    3    3    0    0 -0.47205147216E+03 -0.26029575023E+02 -0.23336933802E+03  0.52722991102E+03  0.00000000000E+00 0. -1.
         22    1    1    2    0    0  0.13643523222E+04  0.18033902747E+03  0.19578638774E+04  0.23931590809E+04  0.00000000000E+00 0. -1.
<mgrwt>
<rscale>  0 0.38076384E+04</rscale>
<asrwt>0</asrwt>
<pdfrwt beam="1">  1        4 0.39627366E+00 0.38076384E+04</pdfrwt>
<pdfrwt beam="2">  1       -4 0.21648583E+00 0.38076384E+04</pdfrwt>
<totfact> 0.11685693E-03</totfact>
</mgrwt>
</event>
<event>
 6    1  0.1773638E-005  0.4114753E+04  0.7818608E-02  0.7981789E-01
         -2   -1    0    0    0  501 -0.00000000000E+00  0.00000000000E+00  0.14396115228E+04  0.14396115228E+04  0.00000000000E+00 0.  1.
          2   -1    0    0  501    0  0.00000000000E+00 -0.00000000000E+00 -0.29402366639E+04  0.29402366639E+04  0.00000000000E+00 0. -1.
         23    2    1    2    0    0 -0.68093428865E+03  0.47082929215E+03  0.12529425945E+04  0.15045243785E+04  0.91524491455E+02 0.  0.
         13    1    3    3    0    0 -0.55776018885E+03  0.34044474984E+03  0.99193200434E+03  0.11878249691E+04  0.00000000000E+00 0.  1.
        -13    1    3    3    0    0 -0.12317409980E+03  0.13038454231E+03  0.26101059015E+03  0.31669940939E+03  0.00000000000E+00 0. -1.
         22    1    1    2    0    0  0.68093428865E+03 -0.47082929215E+03 -0.27535677356E+04  0.28753238082E+04  0.00000000000E+00 0. -1.
<mgrwt>
<rscale>  0 0.41147533E+04</rscale>
<asrwt>0</asrwt>
<pdfrwt beam="1">  1        2 0.45234410E+00 0.41147533E+04</pdfrwt>
<pdfrwt beam="2">  1       -2 0.22147870E+00 0.41147533E+04</pdfrwt>
<totfact> 0.14336957E-01</totfact>
</mgrwt>
</event>
<event>
 6    1  0.1773638E-005  0.4071915E+04  0.7818608E-02  0.7990194E-01
          2   -1    0    0  501    0  0.00000000000E+00  0.00000000000E+00  0.19688510844E+04  0.19688510844E+04  0.00000000000E+00 0. -1.
         -2   -1    0    0    0  501 -0.00000000000E+00 -0.00000000000E+00 -0.21053510139E+04  0.21053510139E+04  0.00000000000E+00 0.  1.
         23    2    1    2    0    0  0.75520827605E+03  0.11593697257E+04 -0.15613174989E+04  0.20881047172E+04  0.89393940534E+02 0.  0.
         11    1    3    3    0    0  0.67313817025E+03  0.10612757660E+04 -0.14469560295E+04  0.19165341111E+04  0.00000000000E+00 0. -1.
        -11    1    3    3    0    0  0.82070105803E+02  0.98093959671E+02 -0.11436146939E+03  0.17157060608E+03  0.00000000000E+00 0.  1.
         22    1    1    2    0    0 -0.75520827605E+03 -0.11593697257E+04  0.14248175694E+04  0.19860973811E+04  0.00000000000E+00 0. -1.
<mgrwt>
<rscale>  0 0.40719148E+04</rscale>
<asrwt>0</asrwt>
<pdfrwt beam="1">  1        2 0.30290017E+00 0.40719148E+04</pdfrwt>
<pdfrwt beam="2">  1       -2 0.32390015E+00 0.40719148E+04</pdfrwt>
<totfact> 0.12351311E-01</totfact>
</mgrwt>
</event>
<event>
 6    1  0.1773638E-005  0.2504863E+04  0.7818608E-02  0.8401255E-01
         -1   -1    0    0    0  501 -0.00000000000E+00  0.00000000000E+00  0.52859656181E+03  0.52859656181E+03  0.00000000000E+00 0.  1.
          1   -1    0    0  501    0  0.00000000000E+00 -0.00000000000E+00 -0.29674505259E+04  0.29674505259E+04  0.00000000000E+00 0. -1.
         23    2    1    2    0    0 -0.27456170287E+03 -0.81696115384E+03  0.44114150636E+02  0.86775100197E+03  0.90752892870E+02 0.  0.
         13    1    3    3    0    0 -0.52547527291E+02 -0.27696902602E+03  0.32581790016E+02  0.28378628762E+03  0.00000000000E+00 0. -1.
        -13    1    3    3    0    0 -0.22201417558E+03 -0.53999212782E+03  0.11532360620E+02  0.58396471435E+03  0.00000000000E+00 0.  1.
         22    1    1    2    0    0  0.27456170287E+03  0.81696115384E+03 -0.24829681147E+04  0.26282960857E+04  0.00000000000E+00 0. -1.
<mgrwt>
<rscale>  0 0.25048626E+04</rscale>
<asrwt>0</asrwt>
<pdfrwt beam="1">  1        1 0.45653084E+00 0.25048626E+04</pdfrwt>
<pdfrwt beam="2">  1       -1 0.81322549E-01 0.25048626E+04</pdfrwt>
<totfact> 0.84432060E-01</totfact>
</mgrwt>
</event>
<event>
 6    1  0.1773638E-005  0.9818325E+03  0.7818608E-02  0.9328698E-01
         -4   -1    0    0    0  501 -0.00000000000E+00  0.00000000000E+00  0.44305027736E+03  0.44305027736E+03  0.00000000000E+00 0. -1.
          4   -1    0    0  501    0  0.00000000000E+00 -0.00000000000E+00 -0.54395355015E+03  0.54395355015E+03  0.00000000000E+00 0.  1.
         23    2    1    2    0    0 -0.46638401074E+03 -0.11393579046E+03  0.28006976467E+02  0.48989894704E+03  0.93387246207E+02 0.  0.
         11    1    3    3    0    0 -0.18795327779E+03 -0.55730772672E+02 -0.33479402520E+02  0.19887992369E+03  0.00000000000E+00 0.  1.
        -11    1    3    3    0    0 -0.27843073295E+03 -0.58205017787E+02  0.61486378988E+02  0.29101902335E+03  0.00000000000E+00 0. -1.
         22    1    1    2    0    0  0.46638401074E+03  0.11393579046E+03 -0.12891024926E+03  0.49710488047E+03  0.00000000000E+00 0. -1.
<mgrwt>
<rscale>  0 0.98183251E+03</rscale>
<asrwt>0</asrwt>
<pdfrwt beam="1">  1        4 0.83685162E-01 0.98183251E+03</pdfrwt>
<pdfrwt beam="2">  1       -4 0.68161581E-01 0.98183251E+03</pdfrwt>
<totfact> 0.49348416E+00</totfact>
</mgrwt>
</event>
<event>
 6    1  0.1773638E-005  0.2432497E+04  0.7818608E-02  0.8427436E-01
         -2   -1    0    0    0  501 -0.00000000000E+00  0.00000000000E+00  0.93254734404E+03  0.93254734404E+03  0.00000000000E+00 0.  1.
          2   -1    0    0  501    0  0.00000000000E+00 -0.00000000000E+00 -0.15862583500E+04  0.15862583500E+04  0.00000000000E+00 0. -1.
         23    2    1    2    0    0  0.76683945301E+03 -0.84428782823E+03 -0.75952518683E+03  0.13733532400E+04  0.91410770307E+02 0.  0.
         13    1    3    3    0    0  0.64516933060E+03 -0.66240649533E+03 -0.59484422807E+03  0.10994841908E+04  0.00000000000E+00 0. -1.
        -13    1    3    3    0    0  0.12167012241E+03 -0.18188133290E+03 -0.16468095875E+03  0.27386904922E+03  0.00000000000E+00 0.  1.
         22    1    1    2    0    0 -0.76683945301E+03  0.84428782823E+03  0.10581418082E+03  0.11454524540E+04  0.00000000000E+00 0.  1.
<mgrwt>
<rscale>  0 0.24324975E+04</rscale>
<asrwt>0</asrwt>
<pdfrwt beam="1">  1        2 0.24403975E+00 0.24324975E+04</pdfrwt>
<pdfrwt beam="2">  1       -2 0.14346882E+00 0.24324975E+04</pdfrwt>
<totfact> 0.34306623E+00</totfact>
</mgrwt>
</event>
<event>
 6    1  0.1773638E-005  0.6360679E+03  0.7818608E-02  0.9833279E-01
         -3   -1    0    0    0  501 -0.00000000000E+00  0.00000000000E+00  0.81008977919E+02  0.81008977919E+02  0.00000000000E+00 0.  1.
          3   -1    0    0  501    0  0.00000000000E+00 -0.00000000000E+00 -0.12485728156E+04  0.12485728156E+04  0.00000000000E+00 0. -1.
         23    2    1    2    0    0 -0.27431948565E+03  0.10275965698E+03 -0.81751422980E+03  0.87313305018E+03  0.90670171950E+02 0.  0.
         13    1    3    3    0    0 -0.12918943177E+03  0.56278585029E+02 -0.52139509920E+03  0.54010187732E+03  0.00000000000E+00 0. -1.
        -13    1    3    3    0    0 -0.14513005389E+03  0.46481071950E+02 -0.29611913059E+03  0.33303117286E+03  0.00000000000E+00 0.  1.
         22    1    1    2    0    0  0.27431948565E+03 -0.10275965698E+03 -0.35004960785E+03  0.45644874331E+03  0.00000000000E+00 0.  1.
<mgrwt>
<rscale>  0 0.63606794E+03</rscale>
<asrwt>0</asrwt>
<pdfrwt beam="1">  1        3 0.19208812E+00 0.63606794E+03</pdfrwt>
<pdfrwt beam="2">  1       -3 0.12462920E-01 0.63606794E+03</pdfrwt>
<totfact> 0.23261802E+01</totfact>
</mgrwt>
</event>
<event>
 6    1  0.1773638E-005  0.1129876E+04  0.7818608E-02  0.9176552E-01
          2   -1    0    0  501    0  0.00000000000E+00  0.00000000000E+00  0.12102198164E+04  0.12102198164E+04  0.00000000000E+00 0. -1.
         -2   -1    0    0    0  501 -0.00000000000E+00 -0.00000000000E+00 -0.26371640330E+03  0.26371640330E+03  0.00000000000E+00 0.  1.
         23    2    1    2    0    0  0.65062964521E+02 -0.20788465735E+03 -0.19914052803E+03  0.30776759555E+03  0.87262379365E+02 0.  0.
         11    1    3    3    0    0  0.66662209845E+02 -0.87564494176E+02 -0.12449804450E+03  0.16616604330E+03  0.00000000000E+00 0.  1.
        -11    1    3    3    0    0 -0.15992453243E+01 -0.12032016317E+03 -0.74642483528E+02  0.14160155225E+03  0.00000000000E+00 0. -1.
         22    1    1    2    0    0 -0.65062964521E+02  0.20788465735E+03  0.11456439412E+04  0.11661686242E+04  0.00000000000E+00 0. -1.
<mgrwt>
<rscale>  0 0.11298758E+04</rscale>
<asrwt>0</asrwt>
<pdfrwt beam="1">  1        2 0.18618766E+00 0.11298758E+04</pdfrwt>
<pdfrwt beam="2">  1       -2 0.40571755E-01 0.11298758E+04</pdfrwt>
<totfact> 0.10638763E+02</totfact>
</mgrwt>
</event>
<event>
 6    1  0.1773638E-005  0.2323751E+04  0.7818608E-02  0.8468615E-01
          2   -1    0    0  501    0  0.00000000000E+00  0.00000000000E+00  0.61946778139E+03  0.61946778139E+03  0.00000000000E+00 0. -1.
         -2   -1    0    0    0  501 -0.00000000000E+00 -0.00000000000E+00 -0.21792178604E+04  0.21792178604E+04  0.00000000000E+00 0.  1.
         23    2    1    2    0    0 -0.89054183917E+00 -0.18177569452E+03 -0.21610171028E+04  0.21705413669E+04  0.90618489596E+02 0.  0.
         11    1    3    3    0    0  0.43313568854E+02 -0.11024564850E+03 -0.13433872940E+04  0.13485991213E+04  0.00000000000E+00 0.  1.
        -11    1    3    3    0    0 -0.44204110693E+02 -0.71530046021E+02 -0.81762980877E+03  0.82194224559E+03  0.00000000000E+00 0. -1.
         22    1    1    2    0    0  0.89054183917E+00  0.18177569452E+03  0.60126702379E+03  0.62814427489E+03  0.00000000000E+00 0. -1.
<mgrwt>
<rscale>  0 0.23237515E+04</rscale>
<asrwt>0</asrwt>
<pdfrwt beam="1">  1        2 0.95302736E-01 0.23237515E+04</pdfrwt>
<pdfrwt beam="2">  1       -2 0.33526429E+00 0.23237515E+04</pdfrwt>
<totfact> 0.83160648E-01</totfact>
</mgrwt>
</event>
<event>
 6    1  0.1773638E-005  0.1837853E+04  0.7818608E-02  0.8686425E-01
         -2   -1    0    0    0  501 -0.00000000000E+00  0.00000000000E+00  0.29413557053E+03  0.29413557053E+03  0.00000000000E+00 0.  1.
          2   -1    0    0  501    0  0.00000000000E+00 -0.00000000000E+00 -0.28708723096E+04  0.28708723096E+04  0.00000000000E+00 0. -1.
         23    2    1    2    0    0  0.53582536387E+03 -0.17459146195E+03 -0.46400862338E+02  0.57267482895E+03  0.90622406340E+02 0.  0.
         13    1    3    3    0    0  0.38163019830E+03 -0.12316883436E+03 -0.74058059861E+02  0.40779500518E+03  0.00000000000E+00 0.  1.
        -13    1    3    3    0    0  0.15419516557E+03 -0.51422627583E+02  0.27657197523E+02  0.16487982377E+03  0.00000000000E+00 0. -1.
         22    1    1    2    0    0 -0.53582536387E+03  0.17459146195E+03 -0.25303358768E+04  0.25923330512E+04  0.00000000000E+00 0. -1.
<mgrwt>
<rscale>  0 0.18378527E+04</rscale>
<asrwt>0</asrwt>
<pdfrwt beam="1">  1        2 0.44167266E+00 0.18378527E+04</pdfrwt>
<pdfrwt beam="2">  1       -2 0.45251626E-01 0.18378527E+04</pdfrwt>
<totfact> 0.91506781E+00</totfact>
</mgrwt>
</event>
<event>
 6    1  0.1773638E-005  0.3338779E+04  0.7818608E-02  0.8153097E-01
          1   -1    0    0  501    0  0.00000000000E+00  0.00000000000E+00  0.27621451301E+04  0.27621451301E+04  0.00000000000E+00 0. -1.
         -1   -1    0    0    0  501 -0.00000000000E+00 -0.00000000000E+00 -0.10089484111E+04  0.10089484111E+04  0.00000000000E+00 0.  1.
         23    2    1    2    0    0 -0.62000062855E+03  0.11297279617E+03  0.26217485950E+04  0.26979924307E+04  0.91835878140E+02 0.  0.
         11    1    3    3    0    0 -0.38533987185E+03  0.60387707758E+02  0.18002471943E+04  0.18420161380E+04  0.00000000000E+00 0.  1.
        -11    1    3    3    0    0 -0.23466075670E+03  0.52585088412E+02  0.82150140064E+03  0.85597629261E+03  0.00000000000E+00 0. -1.
         22    1    1    2    0    0  0.62000062855E+03 -0.11297279617E+03 -0.86855187604E+03  0.10731011105E+04  0.00000000000E+00 0.  1.
<mgrwt>
<rscale>  0 0.33387794E+04</rscale>
<asrwt>0</asrwt>
<pdfrwt beam="1">  1        1 0.42494540E+00 0.33387794E+04</pdfrwt>
<pdfrwt beam="2">  1       -1 0.15522283E+00 0.33387794E+04</pdfrwt>
<totfact> 0.23296623E-01</totfact>
</mgrwt>
</event>
<event>
 6    1  0.1773638E-005  0.7460008E+03  0.7818608E-02  0.9641645E-01
         -2   -1    0    0    0  501 -0.00000000000E+00  0.00000000000E+00  0.94690664009E+02  0.94690664009E+02  0.00000000000E+00 0. -1.
          2   -1    0    0  501    0  0.00000000000E+00 -0.00000000000E+00 -0.14693031993E+04  0.14693031993E+04  0.00000000000E+00 0.  1.
         23    2    1    2    0    0 -0.22628022048E+03  0.28150688394E+03 -0.55587759198E+03  0.66913310806E+03  0.91051387420E+02 0.  0.
         13    1    3    3    0    0 -0.18459286491E+03  0.16113911527E+03 -0.37157798906E+03  0.44509610445E+03  0.00000000000E+00 0. -1.
        -13    1    3    3    0    0 -0.41687355573E+02  0.12036776867E+03 -0.18429960293E+03  0.22403700361E+03  0.00000000000E+00 0.  1.
         22    1    1    2    0    0  0.22628022048E+03 -0.28150688394E+03 -0.81873494330E+03  0.89486075524E+03  0.00000000000E+00 0.  1.
<mgrwt>
<rscale>  0 0.74600079E+03</rscale>
<asrwt>0</asrwt>
<pdfrwt beam="1">  1        2 0.22604665E+00 0.74600079E+03</pdfrwt>
<pdfrwt beam="2">  1       -2 0.14567795E-01 0.74600079E+03</pdfrwt>
<totfact> 0.49222045E+02</totfact>
</mgrwt>
</event>
<event>
 6    1  0.1773638E-005  0.2694054E+04  0.7818608E-02  0.8336937E-01
         -2   -1    0    0    0  501 -0.00000000000E+00  0.00000000000E+00  0.18601803814E+04  0.18601803814E+04  0.00000000000E+00 0. -1.
          2   -1    0    0  501    0  0.00000000000E+00 -0.00000000000E+00 -0.97543326269E+03  0.97543326269E+03  0.00000000000E+00 0.  1.
         23    2    1    2    0    0 -0.12889712467E+04 -0.34400031693E+03  0.62566446847E+03  0.14766041105E+04  0.95501724615E+02 0.  0.
         11    1    3    3    0    0 -0.82171452354E+03 -0.17175927292E+03  0.39776026126E+03  0.92893984276E+03  0.00000000000E+00 0.  1.
        -11    1    3    3    0    0 -0.46725672311E+03 -0.17224104401E+03  0.22790420721E+03  0.54766426777E+03  0.00000000000E+00 0. -1.
         22    1    1    2    0    0  0.12889712467E+04  0.34400031693E+03  0.25908265029E+03  0.13590095336E+04  0.00000000000E+00 0. -1.
<mgrwt>
<rscale>  0 0.26940541E+04</rscale>
<asrwt>0</asrwt>
<pdfrwt beam="1">  1        2 0.15006666E+00 0.26940541E+04</pdfrwt>
<pdfrwt beam="2">  1       -2 0.28618160E+00 0.26940541E+04</pdfrwt>
<totfact> 0.88540950E-01</totfact>
</mgrwt>
</event>
<event>
 6    1  0.2779142E-005  0.2873108E+04  0.7818608E-02  0.8280924E-01
          2   -1    0    0  501    0  0.00000000000E+00  0.00000000000E+00  0.11701624546E+04  0.11701624546E+04  0.00000000000E+00 0. -1.
         -2   -1    0    0    0  501 -0.00000000000E+00 -0.00000000000E+00 -0.17635906663E+04  0.17635906663E+04  0.00000000000E+00 0.  1.
         23    2    1    2    0    0 -0.12602794841E+04  0.59026248217E+03  0.60519025522E+02  0.13961051882E+04  0.93450352376E+02 0.  0.
         11    1    3    3    0    0 -0.54030110121E+03  0.30172134513E+03  0.41472123755E+02  0.62022656113E+03  0.00000000000E+00 0.  1.
        -11    1    3    3    0    0 -0.71997838286E+03  0.28854113704E+03  0.19046901767E+02  0.77587862712E+03  0.00000000000E+00 0. -1.
         22    1    1    2    0    0  0.12602794841E+04 -0.59026248217E+03 -0.65394723714E+03  0.15376479327E+04  0.00000000000E+00 0.  1.
<mgrwt>
<rscale>  0 0.28731081E+04</rscale>
<asrwt>0</asrwt>
<pdfrwt beam="1">  1        2 0.18002499E+00 0.28731081E+04</pdfrwt>
<pdfrwt beam="2">  1       -2 0.27132164E+00 0.28731081E+04</pdfrwt>
<totfact> 0.81226313E-01</totfact>
</mgrwt>
</event>
<event>
 6    1  0.1773638E-005  0.4271471E+04  0.7818608E-02  0.7951915E-01
         -2   -1    0    0    0  501 -0.00000000000E+00  0.00000000000E+00  0.14149450156E+04  0.14149450156E+04  0.00000000000E+00 0.  1.
          2   -1    0    0  501    0  0.00000000000E+00 -0.00000000000E+00 -0.32237053307E+04  0.32237053307E+04  0.00000000000E+00 0. -1.
         23    2    1    2    0    0 -0.11719507445E+04  0.11178844854E+04 -0.24151140330E+04  0.29092576489E+04  0.88713050002E+02 0.  0.
         11    1    3    3    0    0 -0.94397903212E+03  0.85275417186E+03 -0.19153599841E+04  0.22993238048E+04  0.00000000000E+00 0.  1.
        -11    1    3    3    0    0 -0.22797171241E+03  0.26513031357E+03 -0.49975404890E+03  0.60993384414E+03  0.00000000000E+00 0. -1.
         22    1    1    2    0    0  0.11719507445E+04 -0.11178844854E+04  0.60635371790E+03  0.17293926973E+04  0.00000000000E+00 0.  1.
<mgrwt>
<rscale>  0 0.42714708E+04</rscale>
<asrwt>0</asrwt>
<pdfrwt beam="1">  1        2 0.49595466E+00 0.42714708E+04</pdfrwt>
<pdfrwt beam="2">  1       -2 0.21768385E+00 0.42714708E+04</pdfrwt>
<totfact> 0.98631118E-02</totfact>
</mgrwt>
</event>
<event>
 6    1  0.1773638E-005  0.2114178E+04  0.7818608E-02  0.8555023E-01
         -2   -1    0    0    0  501 -0.00000000000E+00  0.00000000000E+00  0.15608555196E+04  0.15608555196E+04  0.00000000000E+00 0.  1.
          2   -1    0    0  501    0  0.00000000000E+00 -0.00000000000E+00 -0.71591322718E+03  0.71591322718E+03  0.00000000000E+00 0. -1.
         23    2    1    2    0    0  0.84536881257E+03  0.20127904381E+03 -0.22118539336E+03  0.90134520289E+03  0.91315463101E+02 0.  0.
         13    1    3    3    0    0  0.71405073886E+03  0.13696183419E+03 -0.17273958986E+03  0.74730580594E+03  0.00000000000E+00 0. -1.
        -13    1    3    3    0    0  0.13131807370E+03  0.64317209618E+02 -0.48445803500E+02  0.15403939695E+03  0.00000000000E+00 0.  1.
         22    1    1    2    0    0 -0.84536881257E+03 -0.20127904381E+03  0.10661276858E+04  0.13754235439E+04  0.00000000000E+00 0.  1.
<mgrwt>
<rscale>  0 0.21141780E+04</rscale>
<asrwt>0</asrwt>
<pdfrwt beam="1">  1        2 0.11014050E+00 0.21141780E+04</pdfrwt>
<pdfrwt beam="2">  1       -2 0.24013162E+00 0.21141780E+04</pdfrwt>
<totfact> 0.27089767E+00</totfact>
</mgrwt>
</event>
<event>
 6    1  0.1773638E-005  0.3376094E+04  0.7818608E-02  0.8143799E-01
         -2   -1    0    0    0  501 -0.00000000000E+00  0.00000000000E+00  0.19441611597E+04  0.19441611597E+04  0.00000000000E+00 0.  1.
          2   -1    0    0  501    0  0.00000000000E+00 -0.00000000000E+00 -0.14656721112E+04  0.14656721112E+04  0.00000000000E+00 0. -1.
         23    2    1    2    0    0 -0.53579430048E+03 -0.86584393115E+03  0.15976597929E+04  0.18967885259E+04  0.92350704670E+02 0.  0.
         13    1    3    3    0    0 -0.51978012900E+03 -0.80278117718E+03  0.15147794969E+04  0.17914200862E+04  0.00000000000E+00 0.  1.
        -13    1    3    3    0    0 -0.16014171486E+02 -0.63062753966E+02  0.82880295928E+02  0.10536843967E+03  0.00000000000E+00 0. -1.
         22    1    1    2    0    0  0.53579430048E+03  0.86584393115E+03 -0.11191707443E+04  0.15130447451E+04  0.00000000000E+00 0. -1.
<mgrwt>
<rscale>  0 0.33760941E+04</rscale>
<asrwt>0</asrwt>
<pdfrwt beam="1">  1        2 0.22548802E+00 0.33760941E+04</pdfrwt>
<pdfrwt beam="2">  1       -2 0.29910172E+00 0.33760941E+04</pdfrwt>
<totfact> 0.35464904E-01</totfact>
</mgrwt>
</event>
<event>
 6    1  0.1773638E-005  0.1960612E+04  0.7818608E-02  0.8625261E-01
          3   -1    0    0  501    0  0.00000000000E+00  0.00000000000E+00  0.78192582876E+03  0.78192582876E+03  0.00000000000E+00 0. -1.
         -3   -1    0    0    0  501 -0.00000000000E+00 -0.00000000000E+00 -0.12290160251E+04  0.12290160251E+04  0.00000000000E+00 0.  1.
         23    2    1    2    0    0 -0.58087865369E+03  0.19972827650E+03 -0.10049286376E+04  0.11811857926E+04  0.89481367918E+02 0.  0.
         13    1    3    3    0    0 -0.44343282354E+03  0.14905011155E+03 -0.68728487720E+03  0.83138986473E+03  0.00000000000E+00 0.  1.
        -13    1    3    3    0    0 -0.13744583014E+03  0.50678164955E+02 -0.31764376038E+03  0.34979592785E+03  0.00000000000E+00 0. -1.
         22    1    1    2    0    0  0.58087865369E+03 -0.19972827650E+03  0.55783844123E+03  0.82975606130E+03  0.00000000000E+00 0. -1.
<mgrwt>
<rscale>  0 0.19606115E+04</rscale>
<asrwt>0</asrwt>
<pdfrwt beam="1">  1        3 0.12029628E+00 0.19606115E+04</pdfrwt>
<pdfrwt beam="2">  1       -3 0.18907939E+00 0.19606115E+04</pdfrwt>
<totfact> 0.23608379E-01</totfact>
</mgrwt>
</event>
<event>
 6    1  0.1773638E-005  0.8439117E+03  0.7818608E-02  0.9498545E-01
         -2   -1    0    0    0  501 -0.00000000000E+00  0.00000000000E+00  0.15020149011E+03  0.15020149011E+03  0.00000000000E+00 0.  1.
          2   -1    0    0  501    0  0.00000000000E+00 -0.00000000000E+00 -0.11853860597E+04  0.11853860597E+04  0.00000000000E+00 0. -1.
         23    2    1    2    0    0 -0.28078878799E+03 -0.18623145225E+03 -0.91216546766E+03  0.97689799500E+03  0.93591425757E+02 0.  0.
         13    1    3    3    0    0 -0.10275913250E+03 -0.17829851291E+02 -0.25301227896E+03  0.27366504383E+03  0.00000000000E+00 0.  1.
        -13    1    3    3    0    0 -0.17802965549E+03 -0.16840160095E+03 -0.65915318869E+03  0.70323295116E+03  0.00000000000E+00 0. -1.
         22    1    1    2    0    0  0.28078878799E+03  0.18623145225E+03 -0.12301910188E+03  0.35868955476E+03  0.00000000000E+00 0.  1.
<mgrwt>
<rscale>  0 0.84391173E+03</rscale>
<asrwt>0</asrwt>
<pdfrwt beam="1">  1        2 0.18236708E+00 0.84391173E+03</pdfrwt>
<pdfrwt beam="2">  1       -2 0.23107922E-01 0.84391173E+03</pdfrwt>
<totfact> 0.32054953E+02</totfact>
</mgrwt>
</event>
<event>
 6    1  0.1773638E-005  0.3061520E+04  0.7818608E-02  0.8226378E-01
          2   -1    0    0  501    0  0.00000000000E+00  0.00000000000E+00  0.11988067648E+04  0.11988067648E+04  0.00000000000E+00 0. -1.
         -2   -1    0    0    0  501 -0.00000000000E+00 -0.00000000000E+00 -0.19546320258E+04  0.19546320258E+04  0.00000000000E+00 0.  1.
         23    2    1    2    0    0 -0.75778076113E+03 -0.16021665776E+03  0.97998696389E+03  0.12526639119E+04  0.94294048103E+02 0.  0.
         13    1    3    3    0    0 -0.15138140876E+03 -0.19036853833E+02  0.25357041503E+03  0.29593358732E+03  0.00000000000E+00 0. -1.
        -13    1    3    3    0    0 -0.60639935237E+03 -0.14117980393E+03  0.72641654886E+03  0.95673032462E+03  0.00000000000E+00 0.  1.
         22    1    1    2    0    0  0.75778076113E+03  0.16021665776E+03 -0.17358122249E+04  0.19007748787E+04  0.00000000000E+00 0.  1.
<mgrwt>
<rscale>  0 0.30615199E+04</rscale>
<asrwt>0</asrwt>
<pdfrwt beam="1">  1        2 0.18443181E+00 0.30615199E+04</pdfrwt>
<pdfrwt beam="2">  1       -2 0.30071261E+00 0.30615199E+04</pdfrwt>
<totfact> 0.50839987E-01</totfact>
</mgrwt>
</event>
<event>
 6    1  0.1773638E-005  0.3831617E+04  0.7818608E-02  0.8039404E-01
          1   -1    0    0  501    0  0.00000000000E+00  0.00000000000E+00  0.17352607914E+04  0.17352607914E+04  0.00000000000E+00 0. -1.
         -1   -1    0    0    0  501 -0.00000000000E+00 -0.00000000000E+00 -0.21151411051E+04  0.21151411051E+04  0.00000000000E+00 0.  1.
         23    2    1    2    0    0  0.13783212060E+03  0.19096556357E+04 -0.22163303991E+03  0.19292500180E+04  0.84273879610E+02 0.  0.
         13    1    3    3    0    0  0.77105639019E+02  0.97103748553E+03 -0.70930997171E+02  0.97667306926E+03  0.00000000000E+00 0. -1.
        -13    1    3    3    0    0  0.60726481581E+02  0.93861815022E+03 -0.15070204274E+03  0.95257694869E+03  0.00000000000E+00 0.  1.
         22    1    1    2    0    0 -0.13783212060E+03 -0.19096556357E+04 -0.15824727376E+03  0.19211518785E+04  0.00000000000E+00 0.  1.
<mgrwt>
<rscale>  0 0.38316166E+04</rscale>
<asrwt>0</asrwt>
<pdfrwt beam="1">  1        1 0.26696320E+00 0.38316166E+04</pdfrwt>
<pdfrwt beam="2">  1       -1 0.32540632E+00 0.38316166E+04</pdfrwt>
<totfact> 0.80718262E-02</totfact>
</mgrwt>
</event>
<event>
 6    1  0.1773638E-005  0.9348075E+03  0.7818608E-02  0.9383087E-01
         -1   -1    0    0    0  501 -0.00000000000E+00  0.00000000000E+00  0.21733286583E+03  0.21733286583E+03  0.00000000000E+00 0.  1.
          1   -1    0    0  501    0  0.00000000000E+00 -0.00000000000E+00 -0.10052151135E+04  0.10052151135E+04  0.00000000000E+00 0. -1.
         23    2    1    2    0    0  0.24232597377E+02  0.35771170560E+03 -0.14838783624E+02  0.37040885901E+03  0.91856683093E+02 0.  0.
         11    1    3    3    0    0 -0.29830408903E+02  0.12215959542E+03 -0.26263117895E+02  0.12846233459E+03  0.00000000000E+00 0.  1.
        -11    1    3    3    0    0  0.54063006279E+02  0.23555211019E+03  0.11424334270E+02  0.24194652441E+03  0.00000000000E+00 0. -1.
         22    1    1    2    0    0 -0.24232597377E+02 -0.35771170560E+03 -0.77304346409E+03  0.85213912037E+03  0.00000000000E+00 0. -1.
<mgrwt>
<rscale>  0 0.93480753E+03</rscale>
<asrwt>0</asrwt>
<pdfrwt beam="1">  1        1 0.15464848E+00 0.93480753E+03</pdfrwt>
<pdfrwt beam="2">  1       -1 0.33435826E-01 0.93480753E+03</pdfrwt>
<totfact> 0.12683032E+02</totfact>
</mgrwt>
</event>
<event>
 6    1  0.1773638E-005  0.1443564E+04  0.7818608E-02  0.8922875E-01
         -2   -1    0    0    0  501 -0.00000000000E+00  0.00000000000E+00  0.16678656437E+04  0.16678656437E+04  0.00000000000E+00 0.  1.
          2   -1    0    0  501    0  0.00000000000E+00 -0.00000000000E+00 -0.31235674196E+03  0.31235674196E+03  0.00000000000E+00 0. -1.
         23    2    1    2    0    0  0.45367315679E+03  0.52106382680E+03  0.40651306222E+03  0.80637403591E+03  0.87517833900E+02 0.  0.
         11    1    3    3    0    0  0.26618376229E+03  0.29694949074E+03  0.18449954235E+03  0.43940058772E+03  0.00000000000E+00 0. -1.
        -11    1    3    3    0    0  0.18748939449E+03  0.22411433606E+03  0.22201351987E+03  0.36697344819E+03  0.00000000000E+00 0.  1.
         22    1    1    2    0    0 -0.45367315679E+03 -0.52106382680E+03  0.94899583953E+03  0.11738483498E+04  0.00000000000E+00 0.  1.
<mgrwt>
<rscale>  0 0.14435638E+04</rscale>
<asrwt>0</asrwt>
<pdfrwt beam="1">  1        2 0.48054884E-01 0.14435638E+04</pdfrwt>
<pdfrwt beam="2">  1       -2 0.25659471E+00 0.14435638E+04</pdfrwt>
<totfact> 0.59684787E+00</totfact>
</mgrwt>
</event>
<event>
 6    1  0.1773638E-005  0.3218588E+04  0.7818608E-02  0.8183925E-01
          2   -1    0    0  501    0  0.00000000000E+00  0.00000000000E+00  0.22268083687E+04  0.22268083687E+04  0.00000000000E+00 0. -1.
         -2   -1    0    0    0  501 -0.00000000000E+00 -0.00000000000E+00 -0.11630222438E+04  0.11630222438E+04  0.00000000000E+00 0.  1.
         23    2    1    2    0    0 -0.97403317554E+03  0.33610348614E+03 -0.76764757487E+03  0.12884368900E+04  0.95292391310E+02 0.  0.
         13    1    3    3    0    0 -0.29956933517E+03  0.64519168430E+02 -0.25702419228E+03  0.39995742910E+03  0.00000000000E+00 0. -1.
        -13    1    3    3    0    0 -0.67446384036E+03  0.27158431771E+03 -0.51062338259E+03  0.88847946089E+03  0.00000000000E+00 0.  1.
         22    1    1    2    0    0  0.97403317554E+03 -0.33610348614E+03  0.18314336998E+04  0.21013937225E+04  0.00000000000E+00 0. -1.
<mgrwt>
<rscale>  0 0.32185883E+04</rscale>
<asrwt>0</asrwt>
<pdfrwt beam="1">  1        2 0.34258590E+00 0.32185883E+04</pdfrwt>
<pdfrwt beam="2">  1       -2 0.17892650E+00 0.32185883E+04</pdfrwt>
<totfact> 0.77346070E-01</totfact>
</mgrwt>
</event>
<event>
 6    1  0.1773638E-005  0.1574656E+04  0.7818608E-02  0.8836271E-01
          2   -1    0    0  501    0  0.00000000000E+00  0.00000000000E+00  0.17476198164E+04  0.17476198164E+04  0.00000000000E+00 0. -1.
         -2   -1    0    0    0  501 -0.00000000000E+00 -0.00000000000E+00 -0.35470279739E+03  0.35470279739E+03  0.00000000000E+00 0.  1.
         23    2    1    2    0    0  0.67095448421E+03  0.39077794683E+03  0.54686089902E+03  0.95397672436E+03  0.90152227562E+02 0.  0.
         13    1    3    3    0    0  0.40989050175E+03  0.27101618324E+03  0.38530138769E+03  0.62443346672E+03  0.00000000000E+00 0. -1.
        -13    1    3    3    0    0  0.26106398246E+03  0.11976176359E+03  0.16155951133E+03  0.32954325765E+03  0.00000000000E+00 0.  1.
         22    1    1    2    0    0 -0.67095448421E+03 -0.39077794683E+03  0.84605612001E+03  0.11483458894E+04  0.00000000000E+00 0.  1.
<mgrwt>
<rscale>  0 0.15746563E+04</rscale>
<asrwt>0</asrwt>
<pdfrwt beam="1">  1        2 0.26886458E+00 0.15746563E+04</pdfrwt>
<pdfrwt beam="2">  1       -2 0.54569662E-01 0.15746563E+04</pdfrwt>
<totfact> 0.28011890E+01</totfact>
</mgrwt>
</event>
<event>
 6    1  0.1773638E-005  0.2379155E+04  0.7818608E-02  0.8447349E-01
         -1   -1    0    0    0  501 -0.00000000000E+00  0.00000000000E+00  0.83741086865E+03  0.83741086865E+03  0.00000000000E+00 0.  1.
          1   -1    0    0  501    0  0.00000000000E+00 -0.00000000000E+00 -0.16898445770E+04  0.16898445770E+04  0.00000000000E+00 0. -1.
         23    2    1    2    0    0  0.51882274086E+03  0.79783069332E+03 -0.11818506535E+04  0.15201673783E+04  0.91798906605E+02 0.  0.
         13    1    3    3    0    0  0.16680973432E+03  0.30729324861E+03 -0.48917771065E+03  0.60128983087E+03  0.00000000000E+00 0. -1.
        -13    1    3    3    0    0  0.35201300654E+03  0.49053744472E+03 -0.69267294285E+03  0.91887754744E+03  0.00000000000E+00 0.  1.
         22    1    1    2    0    0 -0.51882274086E+03 -0.79783069332E+03  0.32941694515E+03  0.10070880673E+04  0.00000000000E+00 0.  1.
<mgrwt>
<rscale>  0 0.23791547E+04</rscale>
<asrwt>0</asrwt>
<pdfrwt beam="1">  1        1 0.25997609E+00 0.23791547E+04</pdfrwt>
<pdfrwt beam="2">  1       -1 0.12883244E+00 0.23791547E+04</pdfrwt>
<totfact> 0.22554970E+00</totfact>
</mgrwt>
</event>
<event>
 6    1  0.1773638E-005  0.2547857E+04  0.7818608E-02  0.8386132E-01
          2   -1    0    0  501    0  0.00000000000E+00  0.00000000000E+00  0.27715128053E+04  0.27715128053E+04  0.00000000000E+00 0. -1.
         -2   -1    0    0    0  501 -0.00000000000E+00 -0.00000000000E+00 -0.58556263918E+03  0.58556263918E+03  0.00000000000E+00 0.  1.
         23    2    1    2    0    0  0.39353252783E+03  0.93456457954E+03  0.21070398321E+04  0.23399689385E+04  0.86942366589E+02 0.  0.
         11    1    3    3    0    0  0.29410688579E+03  0.64293171352E+03  0.15428026741E+04  0.16970857786E+04  0.00000000000E+00 0.  1.
        -11    1    3    3    0    0  0.99425642040E+02  0.29163286602E+03  0.56423715802E+03  0.64288315993E+03  0.00000000000E+00 0. -1.
         22    1    1    2    0    0 -0.39353252783E+03 -0.93456457954E+03  0.78910334026E+02  0.10171065060E+04  0.00000000000E+00 0.  1.
<mgrwt>
<rscale>  0 0.25478574E+04</rscale>
<asrwt>0</asrwt>
<pdfrwt beam="1">  1        2 0.42638658E+00 0.25478574E+04</pdfrwt>
<pdfrwt beam="2">  1       -2 0.90086562E-01 0.25478574E+04</pdfrwt>
<totfact> 0.22534326E+00</totfact>
</mgrwt>
</event>
<event>
 6    1  0.2129709E-005  0.3919068E+04  0.7818608E-02  0.8021075E-01
          1   -1    0    0  501    0  0.00000000000E+00  0.00000000000E+00  0.20308897428E+04  0.20308897428E+04  0.00000000000E+00 0. -1.
         -1   -1    0    0    0  501 -0.00000000000E+00 -0.00000000000E+00 -0.18906851739E+04  0.18906851739E+04  0.00000000000E+00 0.  1.
         23    2    1    2    0    0 -0.63027906441E+03  0.85742952144E+03  0.17159570839E+04  0.20201456986E+04  0.63583382948E+02 0.  0.
         13    1    3    3    0    0 -0.21813485917E+03  0.34599212750E+03  0.63912239718E+03  0.75879562970E+03  0.00000000000E+00 0.  1.
        -13    1    3    3    0    0 -0.41214420523E+03  0.51143739394E+03  0.10768346867E+04  0.12613500689E+04  0.00000000000E+00 0. -1.
         22    1    1    2    0    0  0.63027906441E+03 -0.85742952144E+03 -0.15757525149E+04  0.19014292181E+04  0.00000000000E+00 0.  1.
<mgrwt>
<rscale>  0 0.39190678E+04</rscale>
<asrwt>0</asrwt>
<pdfrwt beam="1">  1        1 0.31244458E+00 0.39190678E+04</pdfrwt>
<pdfrwt beam="2">  1       -1 0.29087464E+00 0.39190678E+04</pdfrwt>
<totfact> 0.84658847E-02</totfact>
</mgrwt>
</event>
<event>
 6    1  0.1773638E-005  0.1477318E+04  0.7818608E-02  0.8899678E-01
         -1   -1    0    0    0  501 -0.00000000000E+00  0.00000000000E+00  0.40408739369E+03  0.40408739369E+03  0.00000000000E+00 0.  1.
          1   -1    0    0  501    0  0.00000000000E+00 -0.00000000000E+00 -0.13502458871E+04  0.13502458871E+04  0.00000000000E+00 0. -1.
         23    2    1    2    0    0  0.59588622595E+03  0.42794298050E+03 -0.40565252939E+03  0.84309111431E+03  0.89627359568E+02 0.  0.
         11    1    3    3    0    0  0.20270686410E+03  0.10594684927E+03 -0.96554252049E+02  0.24826907018E+03  0.00000000000E+00 0. -1.
        -11    1    3    3    0    0  0.39317936185E+03  0.32199613123E+03 -0.30909827734E+03  0.59482204412E+03  0.00000000000E+00 0.  1.
         22    1    1    2    0    0 -0.59588622595E+03 -0.42794298050E+03 -0.54050596404E+03  0.91124216650E+03  0.00000000000E+00 0. -1.
<mgrwt>
<rscale>  0 0.14773183E+04</rscale>
<asrwt>0</asrwt>
<pdfrwt beam="1">  1        1 0.20773014E+00 0.14773183E+04</pdfrwt>
<pdfrwt beam="2">  1       -1 0.62167291E-01 0.14773183E+04</pdfrwt>
<totfact> 0.21185729E+01</totfact>
</mgrwt>
</event>
<event>
 6    1  0.1773638E-005  0.3413011E+04  0.7818608E-02  0.8134720E-01
         -2   -1    0    0    0  501 -0.00000000000E+00  0.00000000000E+00  0.13418589583E+04  0.13418589583E+04  0.00000000000E+00 0.  1.
          2   -1    0    0  501    0  0.00000000000E+00 -0.00000000000E+00 -0.21702435754E+04  0.21702435754E+04  0.00000000000E+00 0. -1.
         23    2    1    2    0    0 -0.22392433319E+03  0.16746960085E+04 -0.17864733568E+03  0.17018795189E+04  0.98641768059E+02 0.  0.
         11    1    3    3    0    0 -0.80588943845E+02  0.91940738807E+03 -0.12310629835E+03  0.93110669839E+03  0.00000000000E+00 0. -1.
        -11    1    3    3    0    0 -0.14333538934E+03  0.75528862047E+03 -0.55541037338E+02  0.77077282054E+03  0.00000000000E+00 0.  1.
         22    1    1    2    0    0  0.22392433319E+03 -0.16746960085E+04 -0.64973728142E+03  0.18102230147E+04  0.00000000000E+00 0. -1.
<mgrwt>
<rscale>  0 0.34130109E+04</rscale>
<asrwt>0</asrwt>
<pdfrwt beam="1">  1        2 0.33388363E+00 0.34130109E+04</pdfrwt>
<pdfrwt beam="2">  1       -2 0.20643984E+00 0.34130109E+04</pdfrwt>
<totfact> 0.53622597E-01</totfact>
</mgrwt>
</event>
<event>
 6    1  0.1773638E-005  0.3494173E+04  0.7818608E-02  0.8115172E-01
         -2   -1    0    0    0  501 -0.00000000000E+00  0.00000000000E+00  0.95788755771E+03  0.95788755771E+03  0.00000000000E+00 0.  1.
          2   -1    0    0  501    0  0.00000000000E+00 -0.00000000000E+00 -0.31865033710E+04  0.31865033710E+04  0.00000000000E+00 0. -1.
         23    2    1    2    0    0 -0.27636475855E+03  0.46117821346E+03  0.85499990692E+03  0.10142553511E+04  0.92877618682E+02 0.  0.
         11    1    3    3    0    0 -0.27874360893E+02  0.10262029003E+03  0.21290392514E+03  0.23798316172E+03  0.00000000000E+00 0.  1.
        -11    1    3    3    0    0 -0.24849039766E+03  0.35855792343E+03  0.64209598178E+03  0.77627218938E+03  0.00000000000E+00 0. -1.
         22    1    1    2    0    0  0.27636475855E+03 -0.46117821346E+03 -0.30836157202E+04  0.31301355776E+04  0.00000000000E+00 0. -1.
<mgrwt>
<rscale>  0 0.34941734E+04</rscale>
<asrwt>0</asrwt>
<pdfrwt beam="1">  1        2 0.49023130E+00 0.34941734E+04</pdfrwt>
<pdfrwt beam="2">  1       -2 0.14736731E+00 0.34941734E+04</pdfrwt>
<totfact> 0.34124686E-01</totfact>
</mgrwt>
</event>
<event>
 6    1  0.1773638E-005  0.1594163E+04  0.7818608E-02  0.8824142E-01
         -2   -1    0    0    0  501 -0.00000000000E+00  0.00000000000E+00  0.35130591703E+03  0.35130591703E+03  0.00000000000E+00 0.  1.
          2   -1    0    0  501    0  0.00000000000E+00 -0.00000000000E+00 -0.18085072008E+04  0.18085072008E+04  0.00000000000E+00 0. -1.
         23    2    1    2    0    0  0.26821627700E+03  0.52522546375E+03 -0.14521880059E+04  0.15700446107E+04  0.91587750812E+02 0.  0.
         13    1    3    3    0    0  0.17775977746E+03  0.42850025609E+03 -0.11551329310E+04  0.12448064493E+04  0.00000000000E+00 0. -1.
        -13    1    3    3    0    0  0.90456499535E+02  0.96725207660E+02 -0.29705507490E+03  0.32523816140E+03  0.00000000000E+00 0.  1.
         22    1    1    2    0    0 -0.26821627700E+03 -0.52522546375E+03 -0.50132778410E+01  0.58976850710E+03  0.00000000000E+00 0.  1.
<mgrwt>
<rscale>  0 0.15941635E+04</rscale>
<asrwt>0</asrwt>
<pdfrwt beam="1">  1        2 0.27823189E+00 0.15941635E+04</pdfrwt>
<pdfrwt beam="2">  1       -2 0.54047063E-01 0.15941635E+04</pdfrwt>
<totfact> 0.26398380E+01</totfact>
</mgrwt>
</event>
<event>
 6    1  0.1773638E-005  0.2683326E+04  0.7818608E-02  0.8340435E-01
          2   -1    0    0  501    0  0.00000000000E+00  0.00000000000E+00  0.11013548908E+04  0.11013548908E+04  0.00000000000E+00 0. -1.
         -2   -1    0    0    0  501 -0.00000000000E+00 -0.00000000000E+00 -0.16344049544E+04  0.16344049544E+04  0.00000000000E+00 0.  1.
         23    2    1    2    0    0  0.30091589662E+03  0.74624259080E+03 -0.13593474685E+04  0.15824187063E+04  0.93781878773E+02 0.  0.
         11    1    3    3    0    0  0.12951167488E+03  0.44473511587E+03 -0.76913951631E+03  0.89785198823E+03  0.00000000000E+00 0. -1.
        -11    1    3    3    0    0  0.17140422174E+03  0.30150747493E+03 -0.59020795221E+03  0.68456671810E+03  0.00000000000E+00 0.  1.
         22    1    1    2    0    0 -0.30091589662E+03 -0.74624259080E+03  0.82629740499E+03  0.11533411389E+04  0.00000000000E+00 0. -1.
<mgrwt>
<rscale>  0 0.26833262E+04</rscale>
<asrwt>0</asrwt>
<pdfrwt beam="1">  1        2 0.16943921E+00 0.26833262E+04</pdfrwt>
<pdfrwt beam="2">  1       -2 0.25144692E+00 0.26833262E+04</pdfrwt>
<totfact> 0.12025627E+00</totfact>
</mgrwt>
</event>
<event>
 6    1  0.1773638E-005  0.8210290E+03  0.7818608E-02  0.9530068E-01
          1   -1    0    0  501    0  0.00000000000E+00  0.00000000000E+00  0.12909943023E+04  0.12909943023E+04  0.00000000000E+00 0. -1.
         -1   -1    0    0    0  501 -0.00000000000E+00 -0.00000000000E+00 -0.13053670930E+03  0.13053670930E+03  0.00000000000E+00 0.  1.
         23    2    1    2    0    0  0.26038893843E+03  0.23990972283E+03  0.92890531939E+03  0.99847601544E+03  0.93435467823E+02 0.  0.
         11    1    3    3    0    0  0.57270775461E+02  0.38805602586E+02  0.29669471291E+03  0.30465319493E+03  0.00000000000E+00 0. -1.
        -11    1    3    3    0    0  0.20311816297E+03  0.20110412024E+03  0.63221060648E+03  0.69382282051E+03  0.00000000000E+00 0.  1.
         22    1    1    2    0    0 -0.26038893843E+03 -0.23990972283E+03  0.23155227362E+03  0.42305499617E+03  0.00000000000E+00 0.  1.
<mgrwt>
<rscale>  0 0.82102898E+03</rscale>
<asrwt>0</asrwt>
<pdfrwt beam="1">  1        1 0.19861450E+00 0.82102898E+03</pdfrwt>
<pdfrwt beam="2">  1       -1 0.20082572E-01 0.82102898E+03</pdfrwt>
<totfact> 0.18855326E+02</totfact>
</mgrwt>
</event>
<event>
 6    1  0.1773638E-005  0.2547411E+04  0.7818608E-02  0.8386287E-01
         -1   -1    0    0    0  501 -0.00000000000E+00  0.00000000000E+00  0.14195529624E+04  0.14195529624E+04  0.00000000000E+00 0.  1.
          1   -1    0    0  501    0  0.00000000000E+00 -0.00000000000E+00 -0.11428429785E+04  0.11428429785E+04  0.00000000000E+00 0. -1.
         23    2    1    2    0    0  0.76493237399E+03  0.55066257569E+03 -0.72096353816E+03  0.11899152431E+04  0.88085488889E+02 0.  0.
         11    1    3    3    0    0  0.25883775492E+03  0.13683462503E+03 -0.21493853765E+03  0.36320692855E+03  0.00000000000E+00 0.  1.
        -11    1    3    3    0    0  0.50609461907E+03  0.41382795066E+03 -0.50602500051E+03  0.82670831454E+03  0.00000000000E+00 0. -1.
         22    1    1    2    0    0 -0.76493237399E+03 -0.55066257569E+03  0.99767352215E+03  0.13724806978E+04  0.00000000000E+00 0.  1.
<mgrwt>
<rscale>  0 0.25474113E+04</rscale>
<asrwt>0</asrwt>
<pdfrwt beam="1">  1        1 0.17582200E+00 0.25474113E+04</pdfrwt>
<pdfrwt beam="2">  1       -1 0.21839276E+00 0.25474113E+04</pdfrwt>
<totfact> 0.11754111E+00</totfact>
</mgrwt>
</event>
<event>
 6    1  0.1773638E-005  0.2677267E+04  0.7818608E-02  0.8342419E-01
         -2   -1    0    0    0  501 -0.00000000000E+00  0.00000000000E+00  0.17149136036E+04  0.17149136036E+04  0.00000000000E+00 0.  1.
          2   -1    0    0  501    0  0.00000000000E+00 -0.00000000000E+00 -0.10449151741E+04  0.10449151741E+04  0.00000000000E+00 0. -1.
         23    2    1    2    0    0  0.11178152174E+04  0.37685783264E+03  0.98421132199E+03  0.15390657261E+04  0.92296785817E+02 0.  0.
         11    1    3    3    0    0  0.41695509721E+03  0.10760111790E+03  0.40021963749E+03  0.58788205611E+03  0.00000000000E+00 0.  1.
        -11    1    3    3    0    0  0.70086012021E+03  0.26925671474E+03  0.58399168449E+03  0.95118367001E+03  0.00000000000E+00 0. -1.
         22    1    1    2    0    0 -0.11178152174E+04 -0.37685783264E+03 -0.31421289254E+03  0.12207630516E+04  0.00000000000E+00 0. -1.
<mgrwt>
<rscale>  0 0.26772667E+04</rscale>
<asrwt>0</asrwt>
<pdfrwt beam="1">  1        2 0.16075618E+00 0.26772667E+04</pdfrwt>
<pdfrwt beam="2">  1       -2 0.26383286E+00 0.26772667E+04</pdfrwt>
<totfact> 0.10955884E+00</totfact>
</mgrwt>
</event>
<event>
 6    1  0.1773638E-005  0.2424225E+04  0.7818608E-02  0.8430489E-01
          1   -1    0    0  501    0  0.00000000000E+00  0.00000000000E+00  0.34679141271E+04  0.34679141271E+04  0.00000000000E+00 0. -1.
         -1   -1    0    0    0  501 -0.00000000000E+00 -0.00000000000E+00 -0.42366003265E+03  0.42366003265E+03  0.00000000000E+00 0.  1.
         23    2    1    2    0    0  0.79274593595E+03  0.12759497984E+03  0.29782611026E+04  0.30859181086E+04  0.90137560067E+02 0.  0.
         13    1    3    3    0    0  0.34188451704E+03  0.19147221977E+02  0.13692882925E+04  0.14114538841E+04  0.00000000000E+00 0. -1.
        -13    1    3    3    0    0  0.45086141891E+03  0.10844775787E+03  0.16089728101E+04  0.16744642244E+04  0.00000000000E+00 0.  1.
         22    1    1    2    0    0 -0.79274593595E+03 -0.12759497984E+03  0.65992991878E+02  0.80565605120E+03  0.00000000000E+00 0.  1.
<mgrwt>
<rscale>  0 0.24242249E+04</rscale>
<asrwt>0</asrwt>
<pdfrwt beam="1">  1        1 0.53352523E+00 0.24242249E+04</pdfrwt>
<pdfrwt beam="2">  1       -1 0.65178469E-01 0.24242249E+04</pdfrwt>
<totfact> 0.56590135E-01</totfact>
</mgrwt>
</event>
<event>
 6    1  0.1773638E-005  0.1525239E+04  0.7818608E-02  0.8867841E-01
         -2   -1    0    0    0  501 -0.00000000000E+00  0.00000000000E+00  0.40094023222E+03  0.40094023222E+03  0.00000000000E+00 0.  1.
          2   -1    0    0  501    0  0.00000000000E+00 -0.00000000000E+00 -0.14505614185E+04  0.14505614185E+04  0.00000000000E+00 0. -1.
         23    2    1    2    0    0 -0.14024935994E+03 -0.24676051647E+03 -0.13823860635E+04  0.14141309853E+04  0.90634317168E+02 0.  0.
         13    1    3    3    0    0 -0.75128698708E+02 -0.67754345595E+02 -0.35039520354E+03  0.36470778903E+03  0.00000000000E+00 0. -1.
        -13    1    3    3    0    0 -0.65120661227E+02 -0.17900617088E+03 -0.10319908600E+04  0.10494231963E+04  0.00000000000E+00 0.  1.
         22    1    1    2    0    0  0.14024935994E+03  0.24676051647E+03  0.33276487725E+03  0.43737066543E+03  0.00000000000E+00 0.  1.
<mgrwt>
<rscale>  0 0.15252389E+04</rscale>
<asrwt>0</asrwt>
<pdfrwt beam="1">  1        2 0.22316330E+00 0.15252389E+04</pdfrwt>
<pdfrwt beam="2">  1       -2 0.61683112E-01 0.15252389E+04</pdfrwt>
<totfact> 0.31885787E+01</totfact>
</mgrwt>
</event>
<event>
 6    1  0.1773638E-005  0.3168629E+04  0.7818608E-02  0.8197152E-01
         -4   -1    0    0    0  501 -0.00000000000E+00  0.00000000000E+00  0.16535417353E+04  0.16535417353E+04  0.00000000000E+00 0.  1.
          4   -1    0    0  501    0  0.00000000000E+00 -0.00000000000E+00 -0.15179853171E+04  0.15179853171E+04  0.00000000000E+00 0. -1.
         23    2    1    2    0    0  0.13582085832E+04 -0.28781072557E+03 -0.69307718225E+03  0.15546785088E+04  0.95413394542E+02 0.  0.
         11    1    3    3    0    0  0.33063596848E+03 -0.31474440370E+02 -0.18242318407E+03  0.37893139503E+03  0.00000000000E+00 0. -1.
        -11    1    3    3    0    0  0.10275726147E+04 -0.25633628520E+03 -0.51065399818E+03  0.11757471138E+04  0.00000000000E+00 0.  1.
         22    1    1    2    0    0 -0.13582085832E+04  0.28781072557E+03  0.82863360041E+03  0.16168485436E+04  0.00000000000E+00 0.  1.
<mgrwt>
<rscale>  0 0.31686288E+04</rscale>
<asrwt>0</asrwt>
<pdfrwt beam="1">  1        4 0.23353620E+00 0.31686288E+04</pdfrwt>
<pdfrwt beam="2">  1       -4 0.25439104E+00 0.31686288E+04</pdfrwt>
<totfact> 0.79368808E-03</totfact>
</mgrwt>
</event>
<event>
 6    1  0.1773638E-005  0.5292131E+04  0.7818608E-02  0.7784958E-01
         -2   -1    0    0    0  501 -0.00000000000E+00  0.00000000000E+00  0.50142745645E+04  0.50142745645E+04  0.00000000000E+00 0.  1.
          2   -1    0    0  501    0  0.00000000000E+00 -0.00000000000E+00 -0.13963459823E+04  0.13963459823E+04  0.00000000000E+00 0. -1.
         23    2    1    2    0    0  0.73121168206E+03  0.22376964140E+04  0.34778177560E+03  0.23812513776E+04  0.86314511978E+02 0.  0.
         13    1    3    3    0    0  0.40702582420E+03  0.11107478963E+04  0.18515635665E+03  0.11973778798E+04  0.00000000000E+00 0. -1.
        -13    1    3    3    0    0  0.32418585786E+03  0.11269485177E+04  0.16262541895E+03  0.11838734978E+04  0.00000000000E+00 0.  1.
         22    1    1    2    0    0 -0.73121168206E+03 -0.22376964140E+04  0.32701468066E+04  0.40293691692E+04  0.00000000000E+00 0. -1.
<mgrwt>
<rscale>  0 0.52921308E+04</rscale>
<asrwt>0</asrwt>
<pdfrwt beam="1">  1        2 0.21482246E+00 0.52921308E+04</pdfrwt>
<pdfrwt beam="2">  1       -2 0.77142685E+00 0.52921308E+04</pdfrwt>
<totfact> 0.11763950E-03</totfact>
</mgrwt>
</event>
<event>
 6    1  0.1773638E-005  0.2880443E+04  0.7818608E-02  0.8278720E-01
         -1   -1    0    0    0  501 -0.00000000000E+00  0.00000000000E+00  0.17643047887E+04  0.17643047887E+04  0.00000000000E+00 0.  1.
          1   -1    0    0  501    0  0.00000000000E+00 -0.00000000000E+00 -0.11756683740E+04  0.11756683740E+04  0.00000000000E+00 0. -1.
         23    2    1    2    0    0  0.13201215839E+04 -0.24616792710E+03 -0.23227696633E+03  0.13660549871E+04  0.93989329099E+02 0.  0.
         13    1    3    3    0    0  0.19823309645E+03 -0.62711511855E+01 -0.20092273033E+02  0.19934740355E+03  0.00000000000E+00 0.  1.
        -13    1    3    3    0    0  0.11218884875E+04 -0.23989677592E+03 -0.21218469330E+03  0.11667075835E+04  0.00000000000E+00 0. -1.
         22    1    1    2    0    0 -0.13201215839E+04  0.24616792710E+03  0.82091338101E+03  0.15739181757E+04  0.00000000000E+00 0.  1.
<mgrwt>
<rscale>  0 0.28804426E+04</rscale>
<asrwt>0</asrwt>
<pdfrwt beam="1">  1        1 0.18087206E+00 0.28804426E+04</pdfrwt>
<pdfrwt beam="2">  1       -1 0.27143151E+00 0.28804426E+04</pdfrwt>
<totfact> 0.48415962E-01</totfact>
</mgrwt>
</event>
<event>
 6    1  0.2191837E-005  0.3172924E+04  0.7818608E-02  0.8196005E-01
          2   -1    0    0  501    0  0.00000000000E+00  0.00000000000E+00  0.27200782014E+04  0.27200782014E+04  0.00000000000E+00 0. -1.
         -2   -1    0    0    0  501 -0.00000000000E+00 -0.00000000000E+00 -0.92529006288E+03  0.92529006288E+03  0.00000000000E+00 0.  1.
         23    2    1    2    0    0 -0.32925017001E+03  0.14795898040E+04  0.14310100730E+04  0.20865462271E+04  0.91069568340E+02 0.  0.
         11    1    3    3    0    0 -0.72677470095E+02  0.40299531667E+03  0.33677659171E+03  0.53019403301E+03  0.00000000000E+00 0.  1.
        -11    1    3    3    0    0 -0.25657269992E+03  0.10765944873E+04  0.10942334813E+04  0.15563521941E+04  0.00000000000E+00 0. -1.
         22    1    1    2    0    0  0.32925017001E+03 -0.14795898040E+04  0.36377806549E+03  0.15588220371E+04  0.00000000000E+00 0. -1.
<mgrwt>
<rscale>  0 0.31729238E+04</rscale>
<asrwt>0</asrwt>
<pdfrwt beam="1">  1        2 0.41847357E+00 0.31729238E+04</pdfrwt>
<pdfrwt beam="2">  1       -2 0.14235232E+00 0.31729238E+04</pdfrwt>
<totfact> 0.74940789E-01</totfact>
</mgrwt>
</event>
<event>
 6    1  0.1773638E-005  0.2730081E+04  0.7818608E-02  0.8325310E-01
          1   -1    0    0  501    0  0.00000000000E+00  0.00000000000E+00  0.22613506998E+04  0.22613506998E+04  0.00000000000E+00 0. -1.
         -1   -1    0    0    0  501 -0.00000000000E+00 -0.00000000000E+00 -0.82399210946E+03  0.82399210946E+03  0.00000000000E+00 0.  1.
         23    2    1    2    0    0  0.36679831567E+03 -0.21330964137E+02 -0.76285331294E+03  0.85466389159E+03  0.11622898139E+03 0.  0.
         11    1    3    3    0    0  0.72401570629E+02  0.20401643272E+02 -0.79617591506E+02  0.10953161806E+03  0.00000000000E+00 0. -1.
        -11    1    3    3    0    0  0.29439674504E+03 -0.41732607409E+02 -0.68323572144E+03  0.74513227353E+03  0.00000000000E+00 0.  1.
         22    1    1    2    0    0 -0.36679831567E+03  0.21330964137E+02  0.22002119033E+04  0.22306789177E+04  0.00000000000E+00 0. -1.
<mgrwt>
<rscale>  0 0.27300807E+04</rscale>
<asrwt>0</asrwt>
<pdfrwt beam="1">  1        1 0.34790011E+00 0.27300807E+04</pdfrwt>
<pdfrwt beam="2">  1       -1 0.12676802E+00 0.27300807E+04</pdfrwt>
<totfact> 0.93057970E-01</totfact>
</mgrwt>
</event>
<event>
 6    1  0.1773638E-005  0.2421554E+04  0.7818608E-02  0.8431478E-01
          1   -1    0    0  501    0  0.00000000000E+00  0.00000000000E+00  0.12238285071E+04  0.12238285071E+04  0.00000000000E+00 0.  1.
         -1   -1    0    0    0  501 -0.00000000000E+00 -0.00000000000E+00 -0.11978651150E+04  0.11978651150E+04  0.00000000000E+00 0. -1.
         23    2    1    2    0    0  0.72280516999E+03  0.88877863086E+03 -0.37352320527E+03  0.12084482594E+04  0.91939340536E+02 0.  0.
         11    1    3    3    0    0  0.49148806872E+03  0.53466273104E+03 -0.23008267550E+03  0.76181546008E+03  0.00000000000E+00 0.  1.
        -11    1    3    3    0    0  0.23131710127E+03  0.35411589983E+03 -0.14344052977E+03  0.44663279932E+03  0.00000000000E+00 0. -1.
         22    1    1    2    0    0 -0.72280516999E+03 -0.88877863086E+03  0.39948659738E+03  0.12132453626E+04  0.00000000000E+00 0.  1.
<mgrwt>
<rscale>  0 0.24215544E+04</rscale>
<asrwt>0</asrwt>
<pdfrwt beam="1">  1        1 0.18828131E+00 0.24215544E+04</pdfrwt>
<pdfrwt beam="2">  1       -1 0.18428694E+00 0.24215544E+04</pdfrwt>
<totfact> 0.17807852E+00</totfact>
</mgrwt>
</event>
<event>
 6    1  0.1773638E-005  0.1294840E+04  0.7818608E-02  0.9033667E-01
         -2   -1    0    0    0  501 -0.00000000000E+00  0.00000000000E+00  0.28615137243E+03  0.28615137243E+03  0.00000000000E+00 0.  1.
          2   -1    0    0  501    0  0.00000000000E+00 -0.00000000000E+00 -0.14647927420E+04  0.14647927420E+04  0.00000000000E+00 0. -1.
         23    2    1    2    0    0 -0.38816549434E+03  0.39817246545E+03 -0.15218453106E+03  0.58354212515E+03  0.90263597790E+02 0.  0.
         11    1    3    3    0    0 -0.27868220236E+03  0.25230945245E+03 -0.13856252543E+03  0.40065371976E+03  0.00000000000E+00 0. -1.
        -11    1    3    3    0    0 -0.10948329198E+03  0.14586301301E+03 -0.13622005626E+02  0.18288840538E+03  0.00000000000E+00 0.  1.
         22    1    1    2    0    0  0.38816549434E+03 -0.39817246545E+03 -0.10264568385E+04  0.11674019892E+04  0.00000000000E+00 0. -1.
<mgrwt>
<rscale>  0 0.12948397E+04</rscale>
<asrwt>0</asrwt>
<pdfrwt beam="1">  1        2 0.22535273E+00 0.12948397E+04</pdfrwt>
<pdfrwt beam="2">  1       -2 0.44023288E-01 0.12948397E+04</pdfrwt>
<totfact> 0.63740492E+01</totfact>
</mgrwt>
</event>
<event>
 6    1  0.1773638E-005  0.3172713E+04  0.7818608E-02  0.8196061E-01
         -2   -1    0    0    0  501 -0.00000000000E+00  0.00000000000E+00  0.11507129123E+04  0.11507129123E+04  0.00000000000E+00 0.  1.
          2   -1    0    0  501    0  0.00000000000E+00 -0.00000000000E+00 -0.21869286423E+04  0.21869286423E+04  0.00000000000E+00 0. -1.
         23    2    1    2    0    0  0.73234120528E+03 -0.79304470465E+03  0.70240143521E+03  0.12911730863E+04  0.92285524701E+02 0.  0.
         13    1    3    3    0    0  0.61359436108E+03 -0.63536130670E+03  0.53754024781E+03  0.10339881760E+04  0.00000000000E+00 0. -1.
        -13    1    3    3    0    0  0.11874684420E+03 -0.15768339795E+03  0.16486118740E+03  0.25718491034E+03  0.00000000000E+00 0.  1.
         22    1    1    2    0    0 -0.73234120528E+03  0.79304470465E+03 -0.17386171653E+04  0.20464684683E+04  0.00000000000E+00 0. -1.
<mgrwt>
<rscale>  0 0.31727131E+04</rscale>
<asrwt>0</asrwt>
<pdfrwt beam="1">  1        2 0.33645056E+00 0.31727131E+04</pdfrwt>
<pdfrwt beam="2">  1       -2 0.17703276E+00 0.31727131E+04</pdfrwt>
<totfact> 0.84280722E-01</totfact>
</mgrwt>
</event>
<event>
 6    1  0.1773638E-005  0.1424288E+04  0.7818608E-02  0.8936423E-01
         -2   -1    0    0    0  501 -0.00000000000E+00  0.00000000000E+00  0.25579713737E+03  0.25579713737E+03  0.00000000000E+00 0. -1.
          2   -1    0    0  501    0  0.00000000000E+00 -0.00000000000E+00 -0.19826223852E+04  0.19826223852E+04  0.00000000000E+00 0.  1.
         23    2    1    2    0    0 -0.33378263610E+03 -0.73937417735E+02  0.11038267888E+03  0.36967380529E+03  0.87159604276E+02 0.  0.
         13    1    3    3    0    0 -0.29125294822E+03 -0.90300720278E+02  0.81183102622E+02  0.31555220817E+03  0.00000000000E+00 0.  1.
        -13    1    3    3    0    0 -0.42529687885E+02  0.16363302543E+02  0.29199576257E+02  0.54121597124E+02  0.00000000000E+00 0. -1.
         22    1    1    2    0    0  0.33378263610E+03  0.73937417735E+02 -0.18372079267E+04  0.18687457173E+04  0.00000000000E+00 0.  1.
<mgrwt>
<rscale>  0 0.14242881E+04</rscale>
<asrwt>0</asrwt>
<pdfrwt beam="1">  1        2 0.30501884E+00 0.14242881E+04</pdfrwt>
<pdfrwt beam="2">  1       -2 0.39353405E-01 0.14242881E+04</pdfrwt>
<totfact> 0.40549271E+01</totfact>
</mgrwt>
</event>
<event>
 6    1  0.1773638E-005  0.2459762E+04  0.7818608E-02  0.8417463E-01
          2   -1    0    0  501    0  0.00000000000E+00  0.00000000000E+00  0.19395942199E+04  0.19395942199E+04  0.00000000000E+00 0. -1.
         -2   -1    0    0    0  501 -0.00000000000E+00 -0.00000000000E+00 -0.77985727897E+03  0.77985727897E+03  0.00000000000E+00 0.  1.
         23    2    1    2    0    0 -0.42306611375E+03 -0.46001637775E+03  0.17495676037E+04  0.18600911466E+04  0.91390751442E+02 0.  0.
         13    1    3    3    0    0 -0.39668794687E+03 -0.43794220811E+03  0.15756184823E+04  0.16827739915E+04  0.00000000000E+00 0.  1.
        -13    1    3    3    0    0 -0.26378166881E+02 -0.22074169642E+02  0.17394912140E+03  0.17731715509E+03  0.00000000000E+00 0. -1.
         22    1    1    2    0    0  0.42306611375E+03  0.46001637775E+03 -0.58983066272E+03  0.85936035229E+03  0.00000000000E+00 0.  1.
<mgrwt>
<rscale>  0 0.24597615E+04</rscale>
<asrwt>0</asrwt>
<pdfrwt beam="1">  1        2 0.29839911E+00 0.24597615E+04</pdfrwt>
<pdfrwt beam="2">  1       -2 0.11997804E+00 0.24597615E+04</pdfrwt>
<totfact> 0.34315917E+00</totfact>
</mgrwt>
</event>
<event>
 6    1  0.1773638E-005  0.6216775E+03  0.7818608E-02  0.9861426E-01
         -1   -1    0    0    0  501 -0.00000000000E+00  0.00000000000E+00  0.41955041514E+03  0.41955041514E+03  0.00000000000E+00 0.  1.
          1   -1    0    0  501    0  0.00000000000E+00 -0.00000000000E+00 -0.23029583521E+03  0.23029583521E+03  0.00000000000E+00 0. -1.
         23    2    1    2    0    0 -0.30979061650E+02  0.43234120442E+02  0.40976903227E+03  0.42300816907E+03  0.90533749822E+02 0.  0.
         13    1    3    3    0    0 -0.12191707799E+02  0.65577740332E+02  0.35220070962E+03  0.35846118008E+03  0.00000000000E+00 0. -1.
        -13    1    3    3    0    0 -0.18787353851E+02 -0.22343619890E+02  0.57568322651E+02  0.64546988987E+02  0.00000000000E+00 0.  1.
         22    1    1    2    0    0  0.30979061650E+02 -0.43234120442E+02 -0.22051445234E+03  0.22683808129E+03  0.00000000000E+00 0. -1.
<mgrwt>
<rscale>  0 0.62167745E+03</rscale>
<asrwt>0</asrwt>
<pdfrwt beam="1">  1        1 0.35430129E-01 0.62167745E+03</pdfrwt>
<pdfrwt beam="2">  1       -1 0.64546218E-01 0.62167745E+03</pdfrwt>
<totfact> 0.30559675E+02</totfact>
</mgrwt>
</event>
<event>
 6    1  0.1773638E-005  0.1624826E+04  0.7818608E-02  0.8805440E-01
          2   -1    0    0  501    0  0.00000000000E+00  0.00000000000E+00  0.13748659455E+04  0.13748659455E+04  0.00000000000E+00 0. -1.
         -2   -1    0    0    0  501 -0.00000000000E+00 -0.00000000000E+00 -0.48005788226E+03  0.48005788226E+03  0.00000000000E+00 0.  1.
         23    2    1    2    0    0 -0.28193602032E+03 -0.69944658783E+03  0.78569461652E+03  0.10929401055E+04  0.92133571422E+02 0.  0.
         13    1    3    3    0    0 -0.63897959878E+02 -0.25641118644E+03  0.23956916094E+03  0.35668337315E+03  0.00000000000E+00 0.  1.
        -13    1    3    3    0    0 -0.21803806044E+03 -0.44303540138E+03  0.54612545557E+03  0.73625673233E+03  0.00000000000E+00 0. -1.
         22    1    1    2    0    0  0.28193602032E+03  0.69944658783E+03  0.10911344673E+03  0.76198372229E+03  0.00000000000E+00 0.  1.
<mgrwt>
<rscale>  0 0.16248264E+04</rscale>
<asrwt>0</asrwt>
<pdfrwt beam="1">  1        2 0.21151784E+00 0.16248264E+04</pdfrwt>
<pdfrwt beam="2">  1       -2 0.73855059E-01 0.16248264E+04</pdfrwt>
<totfact> 0.23656073E+01</totfact>
</mgrwt>
</event>
<event>
 6    1  0.1773638E-005  0.1596821E+04  0.7818608E-02  0.8822504E-01
         -1   -1    0    0    0  501 -0.00000000000E+00  0.00000000000E+00  0.10432562109E+04  0.10432562109E+04  0.00000000000E+00 0.  1.
          1   -1    0    0  501    0  0.00000000000E+00 -0.00000000000E+00 -0.61102828483E+03  0.61102828483E+03  0.00000000000E+00 0. -1.
         23    2    1    2    0    0  0.19154960689E+03 -0.60291720606E+03  0.71682679202E+03  0.96060090521E+03  0.93343666488E+02 0.  0.
         11    1    3    3    0    0  0.86051021633E+02 -0.20962847790E+03  0.31929994245E+03  0.39153713785E+03  0.00000000000E+00 0.  1.
        -11    1    3    3    0    0  0.10549858526E+03 -0.39328872817E+03  0.39752684957E+03  0.56906376736E+03  0.00000000000E+00 0. -1.
         22    1    1    2    0    0 -0.19154960689E+03  0.60291720606E+03 -0.28459886594E+03  0.69368359052E+03  0.00000000000E+00 0. -1.
<mgrwt>
<rscale>  0 0.15968207E+04</rscale>
<asrwt>0</asrwt>
<pdfrwt beam="1">  1        1 0.94004352E-01 0.15968207E+04</pdfrwt>
<pdfrwt beam="2">  1       -1 0.16050096E+00 0.15968207E+04</pdfrwt>
<totfact> 0.92739351E+00</totfact>
</mgrwt>
</event>
<event>
 6    1  0.1773638E-005  0.1375235E+04  0.7818608E-02  0.8971943E-01
         -2   -1    0    0    0  501 -0.00000000000E+00  0.00000000000E+00  0.35624891951E+03  0.35624891951E+03  0.00000000000E+00 0.  1.
          2   -1    0    0  501    0  0.00000000000E+00 -0.00000000000E+00 -0.13272111223E+04  0.13272111223E+04  0.00000000000E+00 0. -1.
         23    2    1    2    0    0  0.58045099712E+03  0.30602092529E+03 -0.72678111880E+03  0.98331964978E+03  0.90191863385E+02 0.  0.
         11    1    3    3    0    0  0.31708336663E+03  0.12027089719E+03 -0.34643157879E+03  0.48479045874E+03  0.00000000000E+00 0.  1.
        -11    1    3    3    0    0  0.26336763049E+03  0.18575002810E+03 -0.38034954001E+03  0.49852919104E+03  0.00000000000E+00 0. -1.
         22    1    1    2    0    0 -0.58045099712E+03 -0.30602092529E+03 -0.24418108400E+03  0.70014039203E+03  0.00000000000E+00 0.  1.
<mgrwt>
<rscale>  0 0.13752346E+04</rscale>
<asrwt>0</asrwt>
<pdfrwt beam="1">  1        2 0.20418633E+00 0.13752346E+04</pdfrwt>
<pdfrwt beam="2">  1       -2 0.54807525E-01 0.13752346E+04</pdfrwt>
<totfact> 0.48663560E+01</totfact>
</mgrwt>
</event>
<event>
 6    1  0.1773638E-005  0.2141726E+04  0.7818608E-02  0.8543082E-01
          2   -1    0    0  501    0  0.00000000000E+00  0.00000000000E+00  0.11200101993E+04  0.11200101993E+04  0.00000000000E+00 0.  1.
         -2   -1    0    0    0  501 -0.00000000000E+00 -0.00000000000E+00 -0.10238726409E+04  0.10238726409E+04  0.00000000000E+00 0. -1.
         23    2    1    2    0    0 -0.22457690641E+03 -0.63569323952E+03 -0.78183626153E+03  0.10369145886E+04  0.96867138725E+02 0.  0.
         11    1    3    3    0    0 -0.77907736792E+02 -0.10686992536E+03 -0.15820817091E+03  0.20620529029E+03  0.00000000000E+00 0. -1.
        -11    1    3    3    0    0 -0.14666916962E+03 -0.52882331416E+03 -0.62362809062E+03  0.83070929833E+03  0.00000000000E+00 0.  1.
         22    1    1    2    0    0  0.22457690641E+03  0.63569323952E+03  0.87797381989E+03  0.11069682516E+04  0.00000000000E+00 0.  1.
<mgrwt>
<rscale>  0 0.21417262E+04</rscale>
<asrwt>0</asrwt>
<pdfrwt beam="1">  1        2 0.17230926E+00 0.21417262E+04</pdfrwt>
<pdfrwt beam="2">  1       -2 0.15751887E+00 0.21417262E+04</pdfrwt>
<totfact> 0.51116118E+00</totfact>
</mgrwt>
</event>
<event>
 6    1  0.1773638E-005  0.1367080E+04  0.7818608E-02  0.8977999E-01
         -2   -1    0    0    0  501 -0.00000000000E+00  0.00000000000E+00  0.69904955304E+03  0.69904955304E+03  0.00000000000E+00 0. -1.
          2   -1    0    0  501    0  0.00000000000E+00 -0.00000000000E+00 -0.66837458649E+03  0.66837458649E+03  0.00000000000E+00 0.  1.
         23    2    1    2    0    0 -0.13029847595E+03  0.52266005740E+03 -0.40083036765E+03  0.67724439346E+03  0.88564984070E+02 0.  0.
         11    1    3    3    0    0 -0.65251258193E+02  0.33949529622E+03 -0.20805150188E+03  0.40348508062E+03  0.00000000000E+00 0. -1.
        -11    1    3    3    0    0 -0.65047217753E+02  0.18316476119E+03 -0.19277886578E+03  0.27375931284E+03  0.00000000000E+00 0.  1.
         22    1    1    2    0    0  0.13029847595E+03 -0.52266005740E+03  0.43150533420E+03  0.69017974607E+03  0.00000000000E+00 0. -1.
<mgrwt>
<rscale>  0 0.13670800E+04</rscale>
<asrwt>0</asrwt>
<pdfrwt beam="1">  1        2 0.10282686E+00 0.13670800E+04</pdfrwt>
<pdfrwt beam="2">  1       -2 0.10754609E+00 0.13670800E+04</pdfrwt>
<totfact> 0.29401761E+01</totfact>
</mgrwt>
</event>
<event>
 6    1  0.1773638E-005  0.4041645E+04  0.7818608E-02  0.7996198E-01
         -1   -1    0    0    0  501 -0.00000000000E+00  0.00000000000E+00  0.14353306454E+04  0.14353306454E+04  0.00000000000E+00 0. -1.
          1   -1    0    0  501    0  0.00000000000E+00 -0.00000000000E+00 -0.28451454881E+04  0.28451454881E+04  0.00000000000E+00 0.  1.
         23    2    1    2    0    0 -0.14479838989E+04  0.71670855123E+03  0.57853921384E+03  0.17184690349E+04  0.89998238593E+02 0.  0.
         11    1    3    3    0    0 -0.39459870183E+03  0.15839342454E+03  0.17534472275E+03  0.45993736989E+03  0.00000000000E+00 0.  1.
        -11    1    3    3    0    0 -0.10533851971E+04  0.55831512669E+03  0.40319449109E+03  0.12585316650E+04  0.00000000000E+00 0. -1.
         22    1    1    2    0    0  0.14479838989E+04 -0.71670855123E+03 -0.19883540566E+04  0.25620070986E+04  0.00000000000E+00 0.  1.
<mgrwt>
<rscale>  0 0.40416455E+04</rscale>
<asrwt>0</asrwt>
<pdfrwt beam="1">  1        1 0.43771469E+00 0.40416455E+04</pdfrwt>
<pdfrwt beam="2">  1       -1 0.22082010E+00 0.40416455E+04</pdfrwt>
<totfact> 0.65557764E-02</totfact>
</mgrwt>
</event>
<event>
 6    1  0.1773638E-005  0.2147889E+04  0.7818608E-02  0.8540437E-01
         -1   -1    0    0    0  501 -0.00000000000E+00  0.00000000000E+00  0.11699472348E+04  0.11699472348E+04  0.00000000000E+00 0.  1.
          1   -1    0    0  501    0  0.00000000000E+00 -0.00000000000E+00 -0.98581910681E+03  0.98581910681E+03  0.00000000000E+00 0. -1.
         23    2    1    2    0    0 -0.27939915040E+03 -0.38335346088E+03  0.10574510602E+04  0.11619269657E+04  0.82751239035E+02 0.  0.
         13    1    3    3    0    0 -0.11797417035E+03 -0.16551141148E+03  0.35659246430E+03  0.41045111499E+03  0.00000000000E+00 0. -1.
        -13    1    3    3    0    0 -0.16142498005E+03 -0.21784204940E+03  0.70085859595E+03  0.75147585070E+03  0.00000000000E+00 0.  1.
         22    1    1    2    0    0  0.27939915040E+03  0.38335346088E+03 -0.87332293224E+03  0.99383937595E+03  0.00000000000E+00 0. -1.
<mgrwt>
<rscale>  0 0.21478886E+04</rscale>
<asrwt>0</asrwt>
<pdfrwt beam="1">  1        1 0.15166448E+00 0.21478886E+04</pdfrwt>
<pdfrwt beam="2">  1       -1 0.17999188E+00 0.21478886E+04</pdfrwt>
<totfact> 0.29593068E+00</totfact>
</mgrwt>
</event>
<event>
 6    1  0.1773638E-005  0.1549798E+04  0.7818608E-02  0.8851997E-01
         -1   -1    0    0    0  501 -0.00000000000E+00  0.00000000000E+00  0.55306578856E+03  0.55306578856E+03  0.00000000000E+00 0.  1.
          1   -1    0    0  501    0  0.00000000000E+00 -0.00000000000E+00 -0.10857086016E+04  0.10857086016E+04  0.00000000000E+00 0. -1.
         23    2    1    2    0    0 -0.25815237780E+02  0.26961074730E+03  0.49747073224E+03  0.57364984453E+03  0.90777933101E+02 0.  0.
         11    1    3    3    0    0  0.18512416416E+02  0.15094122840E+03  0.20789396440E+03  0.25757690973E+03  0.00000000000E+00 0.  1.
        -11    1    3    3    0    0 -0.44327654197E+02  0.11866951889E+03  0.28957676784E+03  0.31607293480E+03  0.00000000000E+00 0. -1.
         22    1    1    2    0    0  0.25815237780E+02 -0.26961074730E+03 -0.10301135452E+04  0.10651245456E+04  0.00000000000E+00 0. -1.
<mgrwt>
<rscale>  0 0.15497978E+04</rscale>
<asrwt>0</asrwt>
<pdfrwt beam="1">  1        1 0.16703209E+00 0.15497978E+04</pdfrwt>
<pdfrwt beam="2">  1       -1 0.85087044E-01 0.15497978E+04</pdfrwt>
<totfact> 0.17110313E+01</totfact>
</mgrwt>
</event>
<event>
 6    1  0.1773638E-005  0.1656108E+04  0.7818608E-02  0.8786801E-01
         -3   -1    0    0    0  501 -0.00000000000E+00  0.00000000000E+00  0.11162121976E+04  0.11162121976E+04  0.00000000000E+00 0.  1.
          3   -1    0    0  501    0  0.00000000000E+00 -0.00000000000E+00 -0.61428581940E+03  0.61428581940E+03  0.00000000000E+00 0. -1.
         23    2    1    2    0    0 -0.42581546323E+03  0.15982477983E+03 -0.46839043077E+03  0.65887425897E+03  0.88673133081E+02 0.  0.
         11    1    3    3    0    0 -0.29747679205E+03  0.89275306835E+02 -0.26518619875E+03  0.40839471376E+03  0.00000000000E+00 0. -1.
        -11    1    3    3    0    0 -0.12833867117E+03  0.70549472993E+02 -0.20320423203E+03  0.25047954521E+03  0.00000000000E+00 0.  1.
         22    1    1    2    0    0  0.42581546323E+03 -0.15982477983E+03  0.97031680894E+03  0.10716237580E+04  0.00000000000E+00 0.  1.
<mgrwt>
<rscale>  0 0.16561079E+04</rscale>
<asrwt>0</asrwt>
<pdfrwt beam="1">  1        3 0.94505511E-01 0.16561079E+04</pdfrwt>
<pdfrwt beam="2">  1       -3 0.17172495E+00 0.16561079E+04</pdfrwt>
<totfact> 0.56094278E-01</totfact>
</mgrwt>
</event>
<event>
 6    1  0.1773638E-005  0.2618559E+04  0.7818608E-02  0.8361924E-01
         -1   -1    0    0    0  501 -0.00000000000E+00  0.00000000000E+00  0.12149558959E+04  0.12149558959E+04  0.00000000000E+00 0.  1.
          1   -1    0    0  501    0  0.00000000000E+00 -0.00000000000E+00 -0.14109256547E+04  0.14109256547E+04  0.00000000000E+00 0. -1.
         23    2    1    2    0    0  0.59167825894E+03 -0.30372231137E+03  0.10308185153E+04  0.12304103492E+04  0.94828325712E+02 0.  0.
         13    1    3    3    0    0  0.19556487396E+03 -0.52485579552E+02  0.29552147689E+03  0.35823637349E+03  0.00000000000E+00 0.  1.
        -13    1    3    3    0    0  0.39611338497E+03 -0.25123673182E+03  0.73529703844E+03  0.87217397571E+03  0.00000000000E+00 0. -1.
         22    1    1    2    0    0 -0.59167825894E+03  0.30372231137E+03 -0.12267882741E+04  0.13954712014E+04  0.00000000000E+00 0. -1.
<mgrwt>
<rscale>  0 0.26185587E+04</rscale>
<asrwt>0</asrwt>
<pdfrwt beam="1">  1        1 0.21706548E+00 0.26185587E+04</pdfrwt>
<pdfrwt beam="2">  1       -1 0.18691629E+00 0.26185587E+04</pdfrwt>
<totfact> 0.12330860E+00</totfact>
</mgrwt>
</event>
<event>
 6    1  0.1773638E-005  0.2898772E+04  0.7818608E-02  0.8273243E-01
         -3   -1    0    0    0  501 -0.00000000000E+00  0.00000000000E+00  0.20645722317E+04  0.20645722317E+04  0.00000000000E+00 0.  1.
          3   -1    0    0  501    0  0.00000000000E+00 -0.00000000000E+00 -0.10175086737E+04  0.10175086737E+04  0.00000000000E+00 0. -1.
         23    2    1    2    0    0 -0.17739041560E+03  0.13754103180E+04  0.81289429255E+02  0.13921280748E+04  0.90508026779E+02 0.  0.
         13    1    3    3    0    0 -0.24039415135E+02  0.35843182362E+03 -0.11942282053E+02  0.35943550710E+03  0.00000000000E+00 0. -1.
        -13    1    3    3    0    0 -0.15335100047E+03  0.10169784943E+04  0.93231711309E+02  0.10326925677E+04  0.00000000000E+00 0.  1.
         22    1    1    2    0    0  0.17739041560E+03 -0.13754103180E+04  0.96577412870E+03  0.16899528307E+04  0.00000000000E+00 0.  1.
<mgrwt>
<rscale>  0 0.28987723E+04</rscale>
<asrwt>0</asrwt>
<pdfrwt beam="1">  1        3 0.15653980E+00 0.28987723E+04</pdfrwt>
<pdfrwt beam="2">  1       -3 0.31762650E+00 0.28987723E+04</pdfrwt>
<totfact> 0.19646641E-02</totfact>
</mgrwt>
</event>
<event>
 6    1  0.1773638E-005  0.1228964E+04  0.7818608E-02  0.9087876E-01
         -2   -1    0    0    0  501 -0.00000000000E+00  0.00000000000E+00  0.23625857075E+03  0.23625857075E+03  0.00000000000E+00 0. -1.
          2   -1    0    0  501    0  0.00000000000E+00 -0.00000000000E+00 -0.15981978740E+04  0.15981978740E+04  0.00000000000E+00 0.  1.
         23    2    1    2    0    0  0.59082303890E+03  0.50361609686E+02 -0.90565588523E+03  0.10862567972E+04  0.90183656910E+02 0.  0.
         13    1    3    3    0    0  0.29114722385E+03  0.24665585018E+00 -0.51188210868E+03  0.58888883500E+03  0.00000000000E+00 0.  1.
        -13    1    3    3    0    0  0.29967581505E+03  0.50114953836E+02 -0.39377377654E+03  0.49736796219E+03  0.00000000000E+00 0. -1.
         22    1    1    2    0    0 -0.59082303890E+03 -0.50361609686E+02 -0.45628341802E+03  0.74819964755E+03  0.00000000000E+00 0. -1.
<mgrwt>
<rscale>  0 0.12289637E+04</rscale>
<asrwt>0</asrwt>
<pdfrwt beam="1">  1        2 0.24587660E+00 0.12289637E+04</pdfrwt>
<pdfrwt beam="2">  1       -2 0.36347472E-01 0.12289637E+04</pdfrwt>
<totfact> 0.78399718E+01</totfact>
</mgrwt>
</event>
<event>
 6    1  0.1773638E-005  0.1911560E+04  0.7818608E-02  0.8649124E-01
          2   -1    0    0  501    0  0.00000000000E+00  0.00000000000E+00  0.10325294722E+04  0.10325294722E+04  0.00000000000E+00 0. -1.
         -2   -1    0    0    0  501 -0.00000000000E+00 -0.00000000000E+00 -0.88473527473E+03  0.88473527473E+03  0.00000000000E+00 0.  1.
         23    2    1    2    0    0 -0.42349745480E+03 -0.63180768668E+03  0.65101361148E+03  0.10052555223E+04  0.90492516802E+02 0.  0.
         11    1    3    3    0    0 -0.20466829103E+03 -0.33467260040E+03  0.27998943091E+03  0.48196362958E+03  0.00000000000E+00 0.  1.
        -11    1    3    3    0    0 -0.21882916377E+03 -0.29713508628E+03  0.37102418058E+03  0.52329189272E+03  0.00000000000E+00 0. -1.
         22    1    1    2    0    0  0.42349745480E+03  0.63180768668E+03 -0.50321941402E+03  0.91200922463E+03  0.00000000000E+00 0.  1.
<mgrwt>
<rscale>  0 0.19115598E+04</rscale>
<asrwt>0</asrwt>
<pdfrwt beam="1">  1        2 0.15885069E+00 0.19115598E+04</pdfrwt>
<pdfrwt beam="2">  1       -2 0.13611312E+00 0.19115598E+04</pdfrwt>
<totfact> 0.86792366E+00</totfact>
</mgrwt>
</event>
<event>
 6    1  0.1773638E-005  0.1392206E+04  0.7818608E-02  0.8959480E-01
          1   -1    0    0  501    0  0.00000000000E+00  0.00000000000E+00  0.28196418570E+04  0.28196418570E+04  0.00000000000E+00 0. -1.
         -1   -1    0    0    0  501 -0.00000000000E+00 -0.00000000000E+00 -0.17185131260E+03  0.17185131260E+03  0.00000000000E+00 0.  1.
         23    2    1    2    0    0 -0.24841852661E+03 -0.35447343769E+03  0.24923334980E+04  0.25315691806E+04  0.98757624910E+02 0.  0.
         13    1    3    3    0    0 -0.14790042340E+03 -0.28712923191E+03  0.18090208568E+04  0.18376273266E+04  0.00000000000E+00 0. -1.
        -13    1    3    3    0    0 -0.10051810320E+03 -0.67344205781E+02  0.68331264112E+03  0.69394185393E+03  0.00000000000E+00 0.  1.
         22    1    1    2    0    0  0.24841852661E+03  0.35447343769E+03  0.15545704641E+03  0.45992398901E+03  0.00000000000E+00 0.  1.
<mgrwt>
<rscale>  0 0.13922057E+04</rscale>
<asrwt>0</asrwt>
<pdfrwt beam="1">  1        1 0.43379102E+00 0.13922057E+04</pdfrwt>
<pdfrwt beam="2">  1       -1 0.26438665E-01 0.13922057E+04</pdfrwt>
<totfact> 0.10075986E+01</totfact>
</mgrwt>
</event>
<event>
 6    1  0.1773638E-005  0.1294786E+04  0.7818608E-02  0.9033710E-01
          4   -1    0    0  501    0  0.00000000000E+00  0.00000000000E+00  0.36531272138E+03  0.36531272138E+03  0.00000000000E+00 0. -1.
         -4   -1    0    0    0  501 -0.00000000000E+00 -0.00000000000E+00 -0.11472845071E+04  0.11472845071E+04  0.00000000000E+00 0.  1.
         23    2    1    2    0    0 -0.31684258530E+03  0.35162925644E+03 -0.90349312079E+03  0.10239257716E+04  0.89954481203E+02 0.  0.
         13    1    3    3    0    0 -0.10557651584E+03  0.15130644752E+03 -0.43257061134E+03  0.47027372407E+03  0.00000000000E+00 0. -1.
        -13    1    3    3    0    0 -0.21126606946E+03  0.20032280892E+03 -0.47092250945E+03  0.55365204758E+03  0.00000000000E+00 0.  1.
         22    1    1    2    0    0  0.31684258530E+03 -0.35162925644E+03  0.12152133507E+03  0.48867145683E+03  0.00000000000E+00 0. -1.
<mgrwt>
<rscale>  0 0.12947859E+04</rscale>
<asrwt>0</asrwt>
<pdfrwt beam="1">  1        4 0.56201957E-01 0.12947859E+04</pdfrwt>
<pdfrwt beam="2">  1       -4 0.17650531E+00 0.12947859E+04</pdfrwt>
<totfact> 0.11232072E+00</totfact>
</mgrwt>
</event>
<event>
 6    1  0.1773638E-005  0.1424085E+04  0.7818608E-02  0.8936567E-01
          2   -1    0    0  501    0  0.00000000000E+00  0.00000000000E+00  0.20644097349E+04  0.20644097349E+04  0.00000000000E+00 0. -1.
         -2   -1    0    0    0  501 -0.00000000000E+00 -0.00000000000E+00 -0.24559310768E+03  0.24559310768E+03  0.00000000000E+00 0.  1.
         23    2    1    2    0    0  0.26047483586E+02  0.66017406404E+03  0.13321206075E+04  0.14894047181E+04  0.85280919850E+02 0.  0.
         11    1    3    3    0    0 -0.27068658005E+02  0.31246139709E+03  0.66421838831E+03  0.73454128835E+03  0.00000000000E+00 0. -1.
        -11    1    3    3    0    0  0.53116141590E+02  0.34771266695E+03  0.66790221917E+03  0.75486342978E+03  0.00000000000E+00 0.  1.
         22    1    1    2    0    0 -0.26047483586E+02 -0.66017406404E+03  0.48669601974E+03  0.82059812446E+03  0.00000000000E+00 0. -1.
<mgrwt>
<rscale>  0 0.14240854E+04</rscale>
<asrwt>0</asrwt>
<pdfrwt beam="1">  1        2 0.31760149E+00 0.14240854E+04</pdfrwt>
<pdfrwt beam="2">  1       -2 0.37783556E-01 0.14240854E+04</pdfrwt>
<totfact> 0.39535397E+01</totfact>
</mgrwt>
</event>
<event>
 6    1  0.1773638E-005  0.1535952E+04  0.7818608E-02  0.8860891E-01
          1   -1    0    0  501    0  0.00000000000E+00  0.00000000000E+00  0.36236544845E+03  0.36236544845E+03  0.00000000000E+00 0. -1.
         -1   -1    0    0    0  501 -0.00000000000E+00 -0.00000000000E+00 -0.16276031576E+04  0.16276031576E+04  0.00000000000E+00 0.  1.
         23    2    1    2    0    0 -0.48320257289E+02 -0.68822613657E+03 -0.20595873230E+03  0.72582383066E+03  0.91712438784E+02 0.  0.
         11    1    3    3    0    0 -0.41619571337E+02 -0.39942259620E+03 -0.16454949413E+03  0.43398978685E+03  0.00000000000E+00 0. -1.
        -11    1    3    3    0    0 -0.67006859518E+01 -0.28880354037E+03 -0.41409238170E+02  0.29183404381E+03  0.00000000000E+00 0.  1.
         22    1    1    2    0    0  0.48320257289E+02  0.68822613657E+03 -0.10592789769E+04  0.12641447754E+04  0.00000000000E+00 0.  1.
<mgrwt>
<rscale>  0 0.15359520E+04</rscale>
<asrwt>0</asrwt>
<pdfrwt beam="1">  1        1 0.55748530E-01 0.15359520E+04</pdfrwt>
<pdfrwt beam="2">  1       -1 0.25040049E+00 0.15359520E+04</pdfrwt>
<totfact> 0.45752022E+00</totfact>
</mgrwt>
</event>
<event>
 6    1  0.1773638E-005  0.2247265E+04  0.7818608E-02  0.8499009E-01
          2   -1    0    0  501    0  0.00000000000E+00  0.00000000000E+00  0.10787523371E+04  0.10787523371E+04  0.00000000000E+00 0. -1.
         -2   -1    0    0    0  501 -0.00000000000E+00 -0.00000000000E+00 -0.11703796945E+04  0.11703796945E+04  0.00000000000E+00 0.  1.
         23    2    1    2    0    0 -0.10871209478E+04  0.81840239634E+02  0.21805273667E+03  0.11158043912E+04  0.94565657036E+02 0.  0.
         13    1    3    3    0    0 -0.87643486127E+03  0.65284891758E+02  0.13708806456E+03  0.88949048369E+03  0.00000000000E+00 0. -1.
        -13    1    3    3    0    0 -0.21068608651E+03  0.16555347876E+02  0.80964672114E+02  0.22631390749E+03  0.00000000000E+00 0.  1.
         22    1    1    2    0    0  0.10871209478E+04 -0.81840239634E+02 -0.30968009399E+03  0.11333276404E+04  0.00000000000E+00 0.  1.
<mgrwt>
<rscale>  0 0.22472649E+04</rscale>
<asrwt>0</asrwt>
<pdfrwt beam="1">  1        2 0.16596190E+00 0.22472649E+04</pdfrwt>
<pdfrwt beam="2">  1       -2 0.18005841E+00 0.22472649E+04</pdfrwt>
<totfact> 0.37039312E+00</totfact>
</mgrwt>
</event>
<event>
 6    1  0.1773638E-005  0.2262703E+04  0.7818608E-02  0.8492774E-01
          2   -1    0    0  501    0  0.00000000000E+00  0.00000000000E+00  0.12358953241E+04  0.12358953241E+04  0.00000000000E+00 0. -1.
         -2   -1    0    0    0  501 -0.00000000000E+00 -0.00000000000E+00 -0.10356513370E+04  0.10356513370E+04  0.00000000000E+00 0.  1.
         23    2    1    2    0    0 -0.18280827355E+03  0.75484878804E+03  0.92331230611E+03  0.12103947626E+04  0.96614227798E+02 0.  0.
         11    1    3    3    0    0 -0.12192494884E+03  0.30339269677E+03  0.37464560359E+03  0.49726466785E+03  0.00000000000E+00 0. -1.
        -11    1    3    3    0    0 -0.60883324711E+02  0.45145609127E+03  0.54866670252E+03  0.71313009474E+03  0.00000000000E+00 0.  1.
         22    1    1    2    0    0  0.18280827355E+03 -0.75484878804E+03 -0.72306831908E+03  0.10611518985E+04  0.00000000000E+00 0.  1.
<mgrwt>
<rscale>  0 0.22627034E+04</rscale>
<asrwt>0</asrwt>
<pdfrwt beam="1">  1        2 0.19013774E+00 0.22627034E+04</pdfrwt>
<pdfrwt beam="2">  1       -2 0.15933097E+00 0.22627034E+04</pdfrwt>
<totfact> 0.41779720E+00</totfact>
</mgrwt>
</event>
<event>
 6    1  0.1773638E-005  0.4739930E+04  0.7818608E-02  0.7869928E-01
         -1   -1    0    0    0  501 -0.00000000000E+00  0.00000000000E+00  0.48139500674E+04  0.48139500674E+04  0.00000000000E+00 0. -1.
          1   -1    0    0  501    0  0.00000000000E+00 -0.00000000000E+00 -0.11667619145E+04  0.11667619145E+04  0.00000000000E+00 0.  1.
         23    2    1    2    0    0  0.15970662323E+04 -0.15501879598E+04  0.28482635178E+04  0.36159743996E+04  0.94670640467E+02 0.  0.
         11    1    3    3    0    0  0.67082096210E+03 -0.58970823141E+03  0.11186016942E+04  0.14314420393E+04  0.00000000000E+00 0. -1.
        -11    1    3    3    0    0  0.92624527021E+03 -0.96047972840E+03  0.17296618236E+04  0.21845323603E+04  0.00000000000E+00 0.  1.
         22    1    1    2    0    0 -0.15970662323E+04  0.15501879598E+04  0.79892463505E+03  0.23647375824E+04  0.00000000000E+00 0.  1.
<mgrwt>
<rscale>  0 0.47399298E+04</rscale>
<asrwt>0</asrwt>
<pdfrwt beam="1">  1        1 0.17950184E+00 0.47399298E+04</pdfrwt>
<pdfrwt beam="2">  1       -1 0.74060769E+00 0.47399298E+04</pdfrwt>
<totfact> 0.11715486E-03</totfact>
</mgrwt>
</event>
<event>
 6    1  0.1773638E-005  0.1744974E+04  0.7818608E-02  0.8736122E-01
         -1   -1    0    0    0  501 -0.00000000000E+00  0.00000000000E+00  0.36339806689E+03  0.36339806689E+03  0.00000000000E+00 0.  1.
          1   -1    0    0  501    0  0.00000000000E+00 -0.00000000000E+00 -0.20947658174E+04  0.20947658174E+04  0.00000000000E+00 0. -1.
         23    2    1    2    0    0  0.64193234089E+03  0.19918304016E+03 -0.16471062092E+04  0.17807784540E+04  0.80386715636E+02 0.  0.
         11    1    3    3    0    0  0.30605612076E+03  0.98817221698E+02 -0.89379051225E+03  0.94989297932E+03  0.00000000000E+00 0. -1.
        -11    1    3    3    0    0  0.33587622013E+03  0.10036581846E+03 -0.75331569698E+03  0.83088547471E+03  0.00000000000E+00 0.  1.
         22    1    1    2    0    0 -0.64193234089E+03 -0.19918304016E+03 -0.84261541262E+02  0.67738543024E+03  0.00000000000E+00 0.  1.
<mgrwt>
<rscale>  0 0.17449743E+04</rscale>
<asrwt>0</asrwt>
<pdfrwt beam="1">  1        1 0.32227166E+00 0.17449743E+04</pdfrwt>
<pdfrwt beam="2">  1       -1 0.55907396E-01 0.17449743E+04</pdfrwt>
<totfact> 0.78859069E+00</totfact>
</mgrwt>
</event>
<event>
 6    1  0.1773638E-005  0.1453177E+04  0.7818608E-02  0.8916201E-01
          2   -1    0    0  501    0  0.00000000000E+00  0.00000000000E+00  0.10558786158E+04  0.10558786158E+04  0.00000000000E+00 0. -1.
         -2   -1    0    0    0  501 -0.00000000000E+00 -0.00000000000E+00 -0.49999171699E+03  0.49999171699E+03  0.00000000000E+00 0.  1.
         23    2    1    2    0    0  0.39082535883E+03  0.32781546863E+03  0.82872098996E+03  0.97738447823E+03  0.91074126444E+02 0.  0.
         11    1    3    3    0    0  0.43144062039E+02  0.76993926667E+02  0.16782430953E+03  0.18961664933E+03  0.00000000000E+00 0.  1.
        -11    1    3    3    0    0  0.34768129679E+03  0.25082154196E+03  0.66089668043E+03  0.78776782890E+03  0.00000000000E+00 0. -1.
         22    1    1    2    0    0 -0.39082535883E+03 -0.32781546863E+03 -0.27283409118E+03  0.57848585453E+03  0.00000000000E+00 0.  1.
<mgrwt>
<rscale>  0 0.14531766E+04</rscale>
<asrwt>0</asrwt>
<pdfrwt beam="1">  1        2 0.16244286E+00 0.14531766E+04</pdfrwt>
<pdfrwt beam="2">  1       -2 0.76921803E-01 0.14531766E+04</pdfrwt>
<totfact> 0.33973004E+01</totfact>
</mgrwt>
</event>
<event>
 6    1  0.1773638E-005  0.3894123E+04  0.7818608E-02  0.8026253E-01
          1   -1    0    0  501    0  0.00000000000E+00  0.00000000000E+00  0.25328455513E+04  0.25328455513E+04  0.00000000000E+00 0. -1.
         -1   -1    0    0    0  501 -0.00000000000E+00 -0.00000000000E+00 -0.14967544276E+04  0.14967544276E+04  0.00000000000E+00 0.  1.
         23    2    1    2    0    0 -0.60399887213E+03 -0.10687514011E+04 -0.10440940712E+04  0.16141880804E+04  0.91796158053E+02 0.  0.
         13    1    3    3    0    0 -0.36171069102E+03 -0.70735821610E+03 -0.63650616863E+03  0.10180031300E+04  0.00000000000E+00 0.  1.
        -13    1    3    3    0    0 -0.24228818111E+03 -0.36139318497E+03 -0.40758790254E+03  0.59618495046E+03  0.00000000000E+00 0. -1.
         22    1    1    2    0    0  0.60399887213E+03  0.10687514011E+04  0.20801851949E+04  0.24154118986E+04  0.00000000000E+00 0. -1.
<mgrwt>
<rscale>  0 0.38941226E+04</rscale>
<asrwt>0</asrwt>
<pdfrwt beam="1">  1        1 0.38966855E+00 0.38941226E+04</pdfrwt>
<pdfrwt beam="2">  1       -1 0.23026991E+00 0.38941226E+04</pdfrwt>
<totfact> 0.95385727E-02</totfact>
</mgrwt>
</event>
<event>
 6    1  0.1773638E-005  0.3256377E+04  0.7818608E-02  0.8174085E-01
          1   -1    0    0  501    0  0.00000000000E+00  0.00000000000E+00  0.12307519441E+04  0.12307519441E+04  0.00000000000E+00 0. -1.
         -1   -1    0    0    0  501 -0.00000000000E+00 -0.00000000000E+00 -0.21539664664E+04  0.21539664664E+04  0.00000000000E+00 0.  1.
         23    2    1    2    0    0  0.12802952175E+04  0.61191339056E+03 -0.12891383641E+04  0.19192853347E+04  0.90468960774E+02 0.  0.
         13    1    3    3    0    0  0.11386723592E+04  0.57154938604E+03 -0.11386795387E+04  0.17087523326E+04  0.00000000000E+00 0. -1.
        -13    1    3    3    0    0  0.14162285824E+03  0.40364004519E+02 -0.15045882537E+03  0.21053300209E+03  0.00000000000E+00 0.  1.
         22    1    1    2    0    0 -0.12802952175E+04 -0.61191339056E+03  0.36592384182E+03  0.14654330757E+04  0.00000000000E+00 0.  1.
<mgrwt>
<rscale>  0 0.32563774E+04</rscale>
<asrwt>0</asrwt>
<pdfrwt beam="1">  1        1 0.18934646E+00 0.32563774E+04</pdfrwt>
<pdfrwt beam="2">  1       -1 0.33137945E+00 0.32563774E+04</pdfrwt>
<totfact> 0.17415451E-01</totfact>
</mgrwt>
</event>
<event>
 6    1  0.1773638E-005  0.1423764E+04  0.7818608E-02  0.8936794E-01
          1   -1    0    0  501    0  0.00000000000E+00  0.00000000000E+00  0.12980344543E+04  0.12980344543E+04  0.00000000000E+00 0. -1.
         -1   -1    0    0    0  501 -0.00000000000E+00 -0.00000000000E+00 -0.39041795983E+03  0.39041795983E+03  0.00000000000E+00 0.  1.
         23    2    1    2    0    0 -0.56600608101E+03  0.12899845590E+03  0.93814875273E+03  0.11071300387E+04  0.92791998526E+02 0.  0.
         11    1    3    3    0    0 -0.27219878402E+03  0.22106640255E+02  0.39047550159E+03  0.47649973652E+03  0.00000000000E+00 0.  1.
        -11    1    3    3    0    0 -0.29380729700E+03  0.10689181564E+03  0.54767325114E+03  0.63063030219E+03  0.00000000000E+00 0. -1.
         22    1    1    2    0    0  0.56600608101E+03 -0.12899845590E+03 -0.30532258259E+02  0.58132237542E+03  0.00000000000E+00 0.  1.
<mgrwt>
<rscale>  0 0.14237640E+04</rscale>
<asrwt>0</asrwt>
<pdfrwt beam="1">  1        1 0.19969761E+00 0.14237640E+04</pdfrwt>
<pdfrwt beam="2">  1       -1 0.60064302E-01 0.14237640E+04</pdfrwt>
<totfact> 0.24822017E+01</totfact>
</mgrwt>
</event>
<event>
 6    1  0.1773638E-005  0.2193028E+04  0.7818608E-02  0.8521336E-01
         -2   -1    0    0    0  501 -0.00000000000E+00  0.00000000000E+00  0.19163001288E+04  0.19163001288E+04  0.00000000000E+00 0.  1.
          2   -1    0    0  501    0  0.00000000000E+00 -0.00000000000E+00 -0.62742929199E+03  0.62742929199E+03  0.00000000000E+00 0. -1.
         23    2    1    2    0    0 -0.83537762592E+03 -0.30895188314E+03  0.13836425155E+04  0.16480237129E+04  0.90600793828E+02 0.  0.
         13    1    3    3    0    0 -0.29423834400E+03 -0.14287970760E+03  0.45285871190E+03  0.55863389340E+03  0.00000000000E+00 0. -1.
        -13    1    3    3    0    0 -0.54113928193E+03 -0.16607217554E+03  0.93078380356E+03  0.10893898195E+04  0.00000000000E+00 0.  1.
         22    1    1    2    0    0  0.83537762592E+03  0.30895188314E+03 -0.94771678657E+02  0.89570570784E+03  0.00000000000E+00 0. -1.
<mgrwt>
<rscale>  0 0.21930279E+04</rscale>
<asrwt>0</asrwt>
<pdfrwt beam="1">  1        2 0.96527584E-01 0.21930279E+04</pdfrwt>
<pdfrwt beam="2">  1       -2 0.29481540E+00 0.21930279E+04</pdfrwt>
<totfact> 0.14693379E+00</totfact>
</mgrwt>
</event>
<event>
 6    1  0.1773638E-005  0.2450347E+04  0.7818608E-02  0.8420891E-01
          2   -1    0    0  501    0  0.00000000000E+00  0.00000000000E+00  0.12738336646E+04  0.12738336646E+04  0.00000000000E+00 0.  1.
         -2   -1    0    0    0  501 -0.00000000000E+00 -0.00000000000E+00 -0.11783724738E+04  0.11783724738E+04  0.00000000000E+00 0. -1.
         23    2    1    2    0    0 -0.87067229583E+03  0.61113763951E+03  0.65263700689E+03  0.12513712824E+04  0.91845318423E+02 0.  0.
         11    1    3    3    0    0 -0.31587092915E+03  0.18816625124E+03  0.18590035536E+03  0.41199505351E+03  0.00000000000E+00 0.  1.
        -11    1    3    3    0    0 -0.55480136667E+03  0.42297138827E+03  0.46673665153E+03  0.83937622890E+03  0.00000000000E+00 0. -1.
         22    1    1    2    0    0  0.87067229583E+03 -0.61113763951E+03 -0.55717581609E+03  0.12008348559E+04  0.00000000000E+00 0. -1.
<mgrwt>
<rscale>  0 0.24503473E+04</rscale>
<asrwt>0</asrwt>
<pdfrwt beam="1">  1        2 0.19597441E+00 0.24503473E+04</pdfrwt>
<pdfrwt beam="2">  1       -2 0.18128807E+00 0.24503473E+04</pdfrwt>
<totfact> 0.27246250E+00</totfact>
</mgrwt>
</event>
<event>
 6    1  0.1773638E-005  0.2865113E+04  0.7818608E-02  0.8283334E-01
         -2   -1    0    0    0  501 -0.00000000000E+00  0.00000000000E+00  0.99719193537E+03  0.99719193537E+03  0.00000000000E+00 0.  1.
          2   -1    0    0  501    0  0.00000000000E+00 -0.00000000000E+00 -0.20579971137E+04  0.20579971137E+04  0.00000000000E+00 0. -1.
         23    2    1    2    0    0 -0.12531102715E+04  0.28991501260E+03 -0.11999204150E+04  0.17614776762E+04  0.93051244874E+02 0.  0.
         11    1    3    3    0    0 -0.95535066855E+03  0.18740174449E+03 -0.87483495764E+03  0.13088737589E+04  0.00000000000E+00 0. -1.
        -11    1    3    3    0    0 -0.29775960299E+03  0.10251326811E+03 -0.32508545738E+03  0.45260391725E+03  0.00000000000E+00 0.  1.
         22    1    1    2    0    0  0.12531102715E+04 -0.28991501260E+03  0.13911523672E+03  0.12937113729E+04  0.00000000000E+00 0.  1.
<mgrwt>
<rscale>  0 0.28651130E+04</rscale>
<asrwt>0</asrwt>
<pdfrwt beam="1">  1        2 0.31661494E+00 0.28651130E+04</pdfrwt>
<pdfrwt beam="2">  1       -2 0.15341414E+00 0.28651130E+04</pdfrwt>
<totfact> 0.15148775E+00</totfact>
</mgrwt>
</event>
<event>
 6    1  0.1773638E-005  0.2528977E+04  0.7818608E-02  0.8392735E-01
         -1   -1    0    0    0  501 -0.00000000000E+00  0.00000000000E+00  0.79406937230E+03  0.79406937230E+03  0.00000000000E+00 0.  1.
          1   -1    0    0  501    0  0.00000000000E+00 -0.00000000000E+00 -0.20135909910E+04  0.20135909910E+04  0.00000000000E+00 0. -1.
         23    2    1    2    0    0  0.57802780888E+03 -0.69405271107E+03  0.36922726684E+03  0.98010781004E+03  0.91963205359E+02 0.  0.
         13    1    3    3    0    0  0.27430889591E+03 -0.26073216879E+03  0.14185658925E+03  0.40416571617E+03  0.00000000000E+00 0. -1.
        -13    1    3    3    0    0  0.30371891297E+03 -0.43332054228E+03  0.22737067759E+03  0.57594209387E+03  0.00000000000E+00 0.  1.
         22    1    1    2    0    0 -0.57802780888E+03  0.69405271107E+03 -0.15887488855E+04  0.18275525532E+04  0.00000000000E+00 0. -1.
<mgrwt>
<rscale>  0 0.25289768E+04</rscale>
<asrwt>0</asrwt>
<pdfrwt beam="1">  1        1 0.30978323E+00 0.25289768E+04</pdfrwt>
<pdfrwt beam="2">  1       -1 0.12216452E+00 0.25289768E+04</pdfrwt>
<totfact> 0.15313064E+00</totfact>
</mgrwt>
</event>
<event>
 6    1  0.1773638E-005  0.1381661E+04  0.7818608E-02  0.8967201E-01
         -2   -1    0    0    0  501 -0.00000000000E+00  0.00000000000E+00  0.29884363471E+03  0.29884363471E+03  0.00000000000E+00 0.  1.
          2   -1    0    0  501    0  0.00000000000E+00 -0.00000000000E+00 -0.15969775379E+04  0.15969775379E+04  0.00000000000E+00 0. -1.
         23    2    1    2    0    0  0.51549112373E+02  0.33458761331E+03  0.16979027794E+03  0.38936586843E+03  0.90392804185E+02 0.  0.
         11    1    3    3    0    0  0.63660368466E+02  0.26937244721E+03  0.10328023729E+03  0.29543352086E+03  0.00000000000E+00 0.  1.
        -11    1    3    3    0    0 -0.12111256093E+02  0.65215166093E+02  0.66510040652E+02  0.93932347571E+02  0.00000000000E+00 0. -1.
         22    1    1    2    0    0 -0.51549112373E+02 -0.33458761331E+03 -0.14679241812E+04  0.15064553042E+04  0.00000000000E+00 0. -1.
<mgrwt>
<rscale>  0 0.13816607E+04</rscale>
<asrwt>0</asrwt>
<pdfrwt beam="1">  1        2 0.24568885E+00 0.13816607E+04</pdfrwt>
<pdfrwt beam="2">  1       -2 0.45975944E-01 0.13816607E+04</pdfrwt>
<totfact> 0.48933245E+01</totfact>
</mgrwt>
</event>
<event>
 6    1  0.2146647E-005  0.4048635E+04  0.7818608E-02  0.7994806E-01
         -1   -1    0    0    0  501 -0.00000000000E+00  0.00000000000E+00  0.20765293026E+04  0.20765293026E+04  0.00000000000E+00 0.  1.
          1   -1    0    0  501    0  0.00000000000E+00 -0.00000000000E+00 -0.19734189293E+04  0.19734189293E+04  0.00000000000E+00 0. -1.
         23    2    1    2    0    0 -0.45189276403E+02  0.46733001656E+03 -0.19171231128E+04  0.19758742810E+04  0.90987523649E+02 0.  0.
         11    1    3    3    0    0 -0.36304429936E+02  0.13866698234E+03 -0.73686126147E+03  0.75067373891E+03  0.00000000000E+00 0. -1.
        -11    1    3    3    0    0 -0.88848464675E+01  0.32866303421E+03 -0.11802618513E+04  0.12252005421E+04  0.00000000000E+00 0.  1.
         22    1    1    2    0    0  0.45189276403E+02 -0.46733001656E+03  0.20202334862E+04  0.20740739509E+04  0.00000000000E+00 0.  1.
<mgrwt>
<rscale>  0 0.40486354E+04</rscale>
<asrwt>0</asrwt>
<pdfrwt beam="1">  1        1 0.30360291E+00 0.40486354E+04</pdfrwt>
<pdfrwt beam="2">  1       -1 0.31946605E+00 0.40486354E+04</pdfrwt>
<totfact> 0.59740373E-02</totfact>
</mgrwt>
</event>
<event>
 6    1  0.1773638E-005  0.2029098E+04  0.7818608E-02  0.8593136E-01
         -2   -1    0    0    0  501 -0.00000000000E+00  0.00000000000E+00  0.22844851809E+03  0.22844851809E+03  0.00000000000E+00 0. -1.
          2   -1    0    0  501    0  0.00000000000E+00 -0.00000000000E+00 -0.45056518632E+04  0.45056518632E+04  0.00000000000E+00 0.  1.
         23    2    1    2    0    0  0.16620537138E+03 -0.79694947967E+03 -0.73837920375E+03  0.11028431607E+04  0.91139947139E+02 0.  0.
         13    1    3    3    0    0  0.95646969813E+02 -0.43251350125E+03 -0.46202316483E+03  0.64006380654E+03  0.00000000000E+00 0. -1.
        -13    1    3    3    0    0  0.70558401566E+02 -0.36443597842E+03 -0.27635603892E+03  0.46277935417E+03  0.00000000000E+00 0.  1.
         22    1    1    2    0    0 -0.16620537138E+03  0.79694947967E+03 -0.35388241413E+04  0.36312572206E+04  0.00000000000E+00 0.  1.
<mgrwt>
<rscale>  0 0.20290978E+04</rscale>
<asrwt>0</asrwt>
<pdfrwt beam="1">  1        2 0.69317715E+00 0.20290978E+04</pdfrwt>
<pdfrwt beam="2">  1       -2 0.35145929E-01 0.20290978E+04</pdfrwt>
<totfact> 0.86973962E-01</totfact>
</mgrwt>
</event>
<event>
 6    1  0.1773638E-005  0.4285535E+04  0.7818608E-02  0.7949298E-01
          2   -1    0    0  501    0  0.00000000000E+00  0.00000000000E+00  0.25825274944E+04  0.25825274944E+04  0.00000000000E+00 0. -1.
         -2   -1    0    0    0  501 -0.00000000000E+00 -0.00000000000E+00 -0.17778908047E+04  0.17778908047E+04  0.00000000000E+00 0.  1.
         23    2    1    2    0    0  0.11059562401E+04  0.11960343027E+04  0.18172983294E+04  0.24423148465E+04  0.93227317954E+02 0.  0.
         11    1    3    3    0    0  0.80851919530E+03  0.86243501753E+03  0.12563418840E+04  0.17250774992E+04  0.00000000000E+00 0.  1.
        -11    1    3    3    0    0  0.29743704484E+03  0.33359928517E+03  0.56095644537E+03  0.71723734726E+03  0.00000000000E+00 0. -1.
         22    1    1    2    0    0 -0.11059562401E+04 -0.11960343027E+04 -0.10126616397E+04  0.19181034526E+04  0.00000000000E+00 0.  1.
<mgrwt>
<rscale>  0 0.42855347E+04</rscale>
<asrwt>0</asrwt>
<pdfrwt beam="1">  1        2 0.39731192E+00 0.42855347E+04</pdfrwt>
<pdfrwt beam="2">  1       -2 0.27352166E+00 0.42855347E+04</pdfrwt>
<totfact> 0.11079843E-01</totfact>
</mgrwt>
</event>
<event>
 6    1  0.1773638E-005  0.8585373E+03  0.7818608E-02  0.9478950E-01
         -1   -1    0    0    0  501 -0.00000000000E+00  0.00000000000E+00  0.29589487321E+03  0.29589487321E+03  0.00000000000E+00 0.  1.
          1   -1    0    0  501    0  0.00000000000E+00 -0.00000000000E+00 -0.62276031623E+03  0.62276031623E+03  0.00000000000E+00 0. -1.
         23    2    1    2    0    0  0.40635461257E+03  0.12110882736E+03 -0.14346665902E+03  0.45667409329E+03  0.90427462687E+02 0.  0.
         13    1    3    3    0    0  0.12830984853E+03 -0.46379368169E+01 -0.41825131507E+02  0.13503432643E+03  0.00000000000E+00 0.  1.
        -13    1    3    3    0    0  0.27804476404E+03  0.12574676418E+03 -0.10164152751E+03  0.32163976686E+03  0.00000000000E+00 0. -1.
         22    1    1    2    0    0 -0.40635461257E+03 -0.12110882736E+03 -0.18339878400E+03  0.46198109615E+03  0.00000000000E+00 0. -1.
<mgrwt>
<rscale>  0 0.85853733E+03</rscale>
<asrwt>0</asrwt>
<pdfrwt beam="1">  1        1 0.95809278E-01 0.85853733E+03</pdfrwt>
<pdfrwt beam="2">  1       -1 0.45522289E-01 0.85853733E+03</pdfrwt>
<totfact> 0.15688420E+02</totfact>
</mgrwt>
</event>
<event>
 6    1  0.1773638E-005  0.5285239E+04  0.7818608E-02  0.7785952E-01
          2   -1    0    0  501    0  0.00000000000E+00  0.00000000000E+00  0.36324311981E+04  0.36324311981E+04  0.00000000000E+00 0. -1.
         -2   -1    0    0    0  501 -0.00000000000E+00 -0.00000000000E+00 -0.19225244930E+04  0.19225244930E+04  0.00000000000E+00 0.  1.
         23    2    1    2    0    0  0.22078870408E+04  0.46897075286E+03  0.22978301849E+04  0.32224993099E+04  0.98891312722E+02 0.  0.
         11    1    3    3    0    0  0.14960737756E+04  0.28465322630E+03  0.15965006572E+04  0.22063722601E+04  0.00000000000E+00 0.  1.
        -11    1    3    3    0    0  0.71181326518E+03  0.18431752657E+03  0.70132952765E+03  0.10161270499E+04  0.00000000000E+00 0. -1.
         22    1    1    2    0    0 -0.22078870408E+04 -0.46897075286E+03 -0.58792347975E+03  0.23324563812E+04  0.00000000000E+00 0.  1.
<mgrwt>
<rscale>  0 0.52852390E+04</rscale>
<asrwt>0</asrwt>
<pdfrwt beam="1">  1        2 0.55883557E+00 0.52852390E+04</pdfrwt>
<pdfrwt beam="2">  1       -2 0.29577300E+00 0.52852390E+04</pdfrwt>
<totfact> 0.15665031E-02</totfact>
</mgrwt>
</event>
<event>
 6    1  0.1773638E-005  0.1374981E+04  0.7818608E-02  0.8972130E-01
          1   -1    0    0  501    0  0.00000000000E+00  0.00000000000E+00  0.16278174058E+04  0.16278174058E+04  0.00000000000E+00 0. -1.
         -1   -1    0    0    0  501 -0.00000000000E+00 -0.00000000000E+00 -0.29035399566E+03  0.29035399566E+03  0.00000000000E+00 0.  1.
         23    2    1    2    0    0 -0.35269340621E+03 -0.18297202965E+03 -0.10561600004E+03  0.42139166265E+03  0.92438041228E+02 0.  0.
         13    1    3    3    0    0 -0.29253641778E+03 -0.16537769476E+03 -0.12045332173E+03  0.35698226898E+03  0.00000000000E+00 0. -1.
        -13    1    3    3    0    0 -0.60156988436E+02 -0.17594334890E+02  0.14837321692E+02  0.64409393670E+02  0.00000000000E+00 0.  1.
         22    1    1    2    0    0  0.35269340621E+03  0.18297202965E+03  0.14430794101E+04  0.14967797388E+04  0.00000000000E+00 0. -1.
<mgrwt>
<rscale>  0 0.13749811E+04</rscale>
<asrwt>0</asrwt>
<pdfrwt beam="1">  1        1 0.25043344E+00 0.13749811E+04</pdfrwt>
<pdfrwt beam="2">  1       -1 0.44669846E-01 0.13749811E+04</pdfrwt>
<totfact> 0.25904751E+01</totfact>
</mgrwt>
</event>
<event>
 6    1  0.1773638E-005  0.2129230E+04  0.7818608E-02  0.8548476E-01
         -2   -1    0    0    0  501 -0.00000000000E+00  0.00000000000E+00  0.20904437692E+04  0.20904437692E+04  0.00000000000E+00 0.  1.
          2   -1    0    0  501    0  0.00000000000E+00 -0.00000000000E+00 -0.54218371812E+03  0.54218371812E+03  0.00000000000E+00 0. -1.
         23    2    1    2    0    0  0.68663807493E+03  0.31625274404E+03  0.16989722429E+04  0.18617826204E+04  0.90775542977E+02 0.  0.
         13    1    3    3    0    0  0.36328356830E+03  0.16953388152E+03  0.10109059706E+04  0.10874960089E+04  0.00000000000E+00 0. -1.
        -13    1    3    3    0    0  0.32335450664E+03  0.14671886252E+03  0.68806627229E+03  0.77428661143E+03  0.00000000000E+00 0.  1.
         22    1    1    2    0    0 -0.68663807493E+03 -0.31625274404E+03 -0.15071219188E+03  0.77084486691E+03  0.00000000000E+00 0. -1.
<mgrwt>
<rscale>  0 0.21292295E+04</rscale>
<asrwt>0</asrwt>
<pdfrwt beam="1">  1        2 0.83412881E-01 0.21292295E+04</pdfrwt>
<pdfrwt beam="2">  1       -2 0.32160673E+00 0.21292295E+04</pdfrwt>
<totfact> 0.12061473E+00</totfact>
</mgrwt>
</event>
<event>
 6    1  0.1773638E-005  0.1598438E+04  0.7818608E-02  0.8821508E-01
         -2   -1    0    0    0  501 -0.00000000000E+00  0.00000000000E+00  0.49827274516E+03  0.49827274516E+03  0.00000000000E+00 0. -1.
          2   -1    0    0  501    0  0.00000000000E+00 -0.00000000000E+00 -0.12819312439E+04  0.12819312439E+04  0.00000000000E+00 0.  1.
         23    2    1    2    0    0 -0.64847742009E+03 -0.35777118495E+03 -0.66339458184E+02  0.74915123043E+03  0.91123307598E+02 0.  0.
         11    1    3    3    0    0 -0.13814825148E+03 -0.11036509587E+03 -0.40643962445E+02  0.18143132435E+03  0.00000000000E+00 0. -1.
        -11    1    3    3    0    0 -0.51032916862E+03 -0.24740608909E+03 -0.25695495740E+02  0.56771990608E+03  0.00000000000E+00 0.  1.
         22    1    1    2    0    0  0.64847742009E+03  0.35777118495E+03 -0.71731904059E+03  0.10310527587E+04  0.00000000000E+00 0. -1.
<mgrwt>
<rscale>  0 0.15984385E+04</rscale>
<asrwt>0</asrwt>
<pdfrwt beam="1">  1        2 0.19722019E+00 0.15984385E+04</pdfrwt>
<pdfrwt beam="2">  1       -2 0.76657347E-01 0.15984385E+04</pdfrwt>
<totfact> 0.24710773E+01</totfact>
</mgrwt>
</event>
<event>
 6    1  0.1773638E-005  0.1936959E+04  0.7818608E-02  0.8636675E-01
         -2   -1    0    0    0  501 -0.00000000000E+00  0.00000000000E+00  0.44801172136E+03  0.44801172136E+03  0.00000000000E+00 0. -1.
          2   -1    0    0  501    0  0.00000000000E+00 -0.00000000000E+00 -0.20935894679E+04  0.20935894679E+04  0.00000000000E+00 0.  1.
         23    2    1    2    0    0  0.68663709541E+03 -0.43094425679E+03 -0.13448918245E+03  0.82679154915E+03  0.91178244667E+02 0.  0.
         13    1    3    3    0    0  0.31202416377E+03 -0.21593510745E+03 -0.10569961931E+03  0.39390285468E+03  0.00000000000E+00 0.  1.
        -13    1    3    3    0    0  0.37461293165E+03 -0.21500914934E+03 -0.28789563134E+02  0.43288869447E+03  0.00000000000E+00 0. -1.
         22    1    1    2    0    0 -0.68663709541E+03  0.43094425679E+03 -0.15110885641E+04  0.17148096401E+04  0.00000000000E+00 0.  1.
<mgrwt>
<rscale>  0 0.19369591E+04</rscale>
<asrwt>0</asrwt>
<pdfrwt beam="1">  1        2 0.32209069E+00 0.19369591E+04</pdfrwt>
<pdfrwt beam="2">  1       -2 0.68924880E-01 0.19369591E+04</pdfrwt>
<totfact> 0.10637362E+01</totfact>
</mgrwt>
</event>
<event>
 6    1  0.1773638E-005  0.2865545E+04  0.7818608E-02  0.8283203E-01
         -2   -1    0    0    0  501 -0.00000000000E+00  0.00000000000E+00  0.68076887649E+03  0.68076887649E+03  0.00000000000E+00 0. -1.
          2   -1    0    0  501    0  0.00000000000E+00 -0.00000000000E+00 -0.30154691476E+04  0.30154691476E+04  0.00000000000E+00 0.  1.
         23    2    1    2    0    0  0.78374556051E+03  0.61591048818E+03  0.15556239443E+03  0.10138862618E+04  0.10081101285E+03 0.  0.
         13    1    3    3    0    0  0.23499860671E+03  0.18144657316E+03  0.93280587611E+02  0.31120487157E+03  0.00000000000E+00 0.  1.
        -13    1    3    3    0    0  0.54874695380E+03  0.43446391502E+03  0.62281806816E+02  0.70268139026E+03  0.00000000000E+00 0. -1.
         22    1    1    2    0    0 -0.78374556051E+03 -0.61591048818E+03 -0.24902626656E+04  0.26823517623E+04  0.00000000000E+00 0.  1.
<mgrwt>
<rscale>  0 0.28655454E+04</rscale>
<asrwt>0</asrwt>
<pdfrwt beam="1">  1        2 0.46391833E+00 0.28655454E+04</pdfrwt>
<pdfrwt beam="2">  1       -2 0.10473367E+00 0.28655454E+04</pdfrwt>
<totfact> 0.10893279E+00</totfact>
</mgrwt>
</event>
<event>
 6    1  0.1773638E-005  0.2951418E+04  0.7818608E-02  0.8257741E-01
          2   -1    0    0  501    0  0.00000000000E+00  0.00000000000E+00  0.29170348961E+04  0.29170348961E+04  0.00000000000E+00 0. -1.
         -2   -1    0    0    0  501 -0.00000000000E+00 -0.00000000000E+00 -0.74655177756E+03  0.74655177756E+03  0.00000000000E+00 0.  1.
         23    2    1    2    0    0 -0.11348631665E+04 -0.91879934956E+03  0.83138413166E+03  0.16823515165E+04  0.83668387524E+02 0.  0.
         13    1    3    3    0    0 -0.43852715008E+03 -0.36205754619E+03  0.37058655253E+03  0.67876809076E+03  0.00000000000E+00 0. -1.
        -13    1    3    3    0    0 -0.69633601644E+03 -0.55674180337E+03  0.46079757913E+03  0.10035834257E+04  0.00000000000E+00 0.  1.
         22    1    1    2    0    0  0.11348631665E+04  0.91879934956E+03  0.13390989869E+04  0.19812351572E+04  0.00000000000E+00 0. -1.
<mgrwt>
<rscale>  0 0.29514184E+04</rscale>
<asrwt>0</asrwt>
<pdfrwt beam="1">  1        2 0.44877459E+00 0.29514184E+04</pdfrwt>
<pdfrwt beam="2">  1       -2 0.11485412E+00 0.29514184E+04</pdfrwt>
<totfact> 0.99635571E-01</totfact>
</mgrwt>
</event>
<event>
 6    1  0.1773638E-005  0.2396129E+04  0.7818608E-02  0.8440954E-01
          2   -1    0    0  501    0  0.00000000000E+00  0.00000000000E+00  0.30098233662E+04  0.30098233662E+04  0.00000000000E+00 0.  1.
         -2   -1    0    0    0  501 -0.00000000000E+00 -0.00000000000E+00 -0.47689121302E+03  0.47689121302E+03  0.00000000000E+00 0. -1.
         23    2    1    2    0    0 -0.23501580557E+03 -0.85122695458E+03  0.93965536045E+02  0.89280287744E+03  0.91911364597E+02 0.  0.
         11    1    3    3    0    0 -0.11129839163E+03 -0.31302243940E+03 -0.23332391347E+01  0.33222857125E+03  0.00000000000E+00 0. -1.
        -11    1    3    3    0    0 -0.12371741394E+03 -0.53820451517E+03  0.96298775180E+02  0.56057430619E+03  0.00000000000E+00 0.  1.
         22    1    1    2    0    0  0.23501580557E+03  0.85122695458E+03  0.24389666171E+04  0.25939117018E+04  0.00000000000E+00 0.  1.
<mgrwt>
<rscale>  0 0.23961288E+04</rscale>
<asrwt>0</asrwt>
<pdfrwt beam="1">  1        2 0.46304974E+00 0.23961288E+04</pdfrwt>
<pdfrwt beam="2">  1       -2 0.73367881E-01 0.23961288E+04</pdfrwt>
<totfact> 0.25900185E+00</totfact>
</mgrwt>
</event>
<event>
 6    1  0.1773638E-005  0.8357159E+03  0.7818608E-02  0.9509712E-01
         -2   -1    0    0    0  501 -0.00000000000E+00  0.00000000000E+00  0.29351750747E+03  0.29351750747E+03  0.00000000000E+00 0.  1.
          2   -1    0    0  501    0  0.00000000000E+00 -0.00000000000E+00 -0.59487178773E+03  0.59487178773E+03  0.00000000000E+00 0. -1.
         23    2    1    2    0    0  0.36562002215E+03 -0.51869972744E+02 -0.34831136966E+03  0.51613472785E+03  0.93304621470E+02 0.  0.
         11    1    3    3    0    0  0.14769969180E+03 -0.42081391366E+02 -0.89877898775E+02  0.17794403374E+03  0.00000000000E+00 0.  1.
        -11    1    3    3    0    0  0.21792033035E+03 -0.97885813784E+01 -0.25843347088E+03  0.33819069410E+03  0.00000000000E+00 0. -1.
         22    1    1    2    0    0 -0.36562002215E+03  0.51869972744E+02  0.46957089395E+02  0.37225456735E+03  0.00000000000E+00 0.  1.
<mgrwt>
<rscale>  0 0.83571594E+03</rscale>
<asrwt>0</asrwt>
<pdfrwt beam="1">  1        2 0.91518736E-01 0.83571594E+03</pdfrwt>
<pdfrwt beam="2">  1       -2 0.45156540E-01 0.83571594E+03</pdfrwt>
<totfact> 0.23433307E+02</totfact>
</mgrwt>
</event>
<event>
 6    1  0.1773638E-005  0.2209530E+04  0.7818608E-02  0.8514472E-01
         -2   -1    0    0    0  501 -0.00000000000E+00  0.00000000000E+00  0.71756624677E+03  0.71756624677E+03  0.00000000000E+00 0. -1.
          2   -1    0    0  501    0  0.00000000000E+00 -0.00000000000E+00 -0.17008967348E+04  0.17008967348E+04  0.00000000000E+00 0.  1.
         23    2    1    2    0    0 -0.77497088908E+03  0.64518391324E+03 -0.32125590211E+01  0.10122363584E+04  0.88147399279E+02 0.  0.
         13    1    3    3    0    0 -0.51512633740E+03  0.47927186516E+03  0.97226407547E+01  0.70366980464E+03  0.00000000000E+00 0.  1.
        -13    1    3    3    0    0 -0.25984455168E+03  0.16591204808E+03 -0.12935199776E+02  0.30856655381E+03  0.00000000000E+00 0. -1.
         22    1    1    2    0    0  0.77497088908E+03 -0.64518391324E+03 -0.98011792902E+03  0.14062266231E+04  0.00000000000E+00 0.  1.
<mgrwt>
<rscale>  0 0.22095303E+04</rscale>
<asrwt>0</asrwt>
<pdfrwt beam="1">  1        2 0.26167642E+00 0.22095303E+04</pdfrwt>
<pdfrwt beam="2">  1       -2 0.11039481E+00 0.22095303E+04</pdfrwt>
<totfact> 0.58277204E+00</totfact>
</mgrwt>
</event>
<event>
 6    1  0.1773638E-005  0.1759905E+04  0.7818608E-02  0.8727917E-01
         -1   -1    0    0    0  501 -0.00000000000E+00  0.00000000000E+00  0.30025776218E+03  0.30025776218E+03  0.00000000000E+00 0.  1.
          1   -1    0    0  501    0  0.00000000000E+00 -0.00000000000E+00 -0.25788387160E+04  0.25788387160E+04  0.00000000000E+00 0. -1.
         23    2    1    2    0    0  0.29306067019E+03 -0.74335181457E+03 -0.54841212800E+03  0.97333137133E+03  0.90341682779E+02 0.  0.
         13    1    3    3    0    0  0.31237526419E+02 -0.13474938029E+03 -0.62924751961E+02  0.15196283412E+03  0.00000000000E+00 0. -1.
        -13    1    3    3    0    0  0.26182314377E+03 -0.60860243428E+03 -0.48548737604E+03  0.82136853721E+03  0.00000000000E+00 0.  1.
         22    1    1    2    0    0 -0.29306067019E+03  0.74335181457E+03 -0.17301688259E+04  0.19057651069E+04  0.00000000000E+00 0. -1.
<mgrwt>
<rscale>  0 0.17599049E+04</rscale>
<asrwt>0</asrwt>
<pdfrwt beam="1">  1        1 0.39674442E+00 0.17599049E+04</pdfrwt>
<pdfrwt beam="2">  1       -1 0.46193501E-01 0.17599049E+04</pdfrwt>
<totfact> 0.52788465E+00</totfact>
</mgrwt>
</event>
<event>
 6    1  0.1773638E-005  0.7191558E+03  0.7818608E-02  0.9685023E-01
          2   -1    0    0  501    0  0.00000000000E+00  0.00000000000E+00  0.29118875817E+04  0.29118875817E+04  0.00000000000E+00 0. -1.
         -2   -1    0    0    0  501 -0.00000000000E+00 -0.00000000000E+00 -0.44402910118E+02  0.44402910118E+02  0.00000000000E+00 0.  1.
         23    2    1    2    0    0  0.19222020429E+03  0.22644466030E+03  0.22473651544E+04  0.22687048559E+04  0.90254057549E+02 0.  0.
         13    1    3    3    0    0  0.30508394657E+02  0.89948565150E+02  0.54191069408E+03  0.55017152496E+03  0.00000000000E+00 0. -1.
        -13    1    3    3    0    0  0.16171180964E+03  0.13649609515E+03  0.17054544603E+04  0.17185333309E+04  0.00000000000E+00 0.  1.
         22    1    1    2    0    0 -0.19222020429E+03 -0.22644466030E+03  0.62011951718E+03  0.68758563590E+03  0.00000000000E+00 0.  1.
<mgrwt>
<rscale>  0 0.71915585E+03</rscale>
<asrwt>0</asrwt>
<pdfrwt beam="1">  1        2 0.44798255E+00 0.71915585E+03</pdfrwt>
<pdfrwt beam="2">  1       -2 0.68312193E-02 0.71915585E+03</pdfrwt>
<totfact> 0.26381124E+02</totfact>
</mgrwt>
</event>
<event>
 6    1  0.1773638E-005  0.2577285E+04  0.7818608E-02  0.8375958E-01
          2   -1    0    0  501    0  0.00000000000E+00  0.00000000000E+00  0.80297408569E+03  0.80297408569E+03  0.00000000000E+00 0. -1.
         -2   -1    0    0    0  501 -0.00000000000E+00 -0.00000000000E+00 -0.20680611670E+04  0.20680611670E+04  0.00000000000E+00 0.  1.
         23    2    1    2    0    0 -0.77841830616E+03  0.90580546144E+03 -0.11675374920E+04  0.16727304018E+04  0.92003305983E+02 0.  0.
         11    1    3    3    0    0 -0.18902870333E+03  0.27897551926E+03 -0.30757699252E+03  0.45624861354E+03  0.00000000000E+00 0.  1.
        -11    1    3    3    0    0 -0.58938960283E+03  0.62682994219E+03 -0.85996049952E+03  0.12164817882E+04  0.00000000000E+00 0. -1.
         22    1    1    2    0    0  0.77841830616E+03 -0.90580546144E+03 -0.97549589244E+02  0.11983048509E+04  0.00000000000E+00 0. -1.
<mgrwt>
<rscale>  0 0.25772850E+04</rscale>
<asrwt>0</asrwt>
<pdfrwt beam="1">  1        2 0.12353448E+00 0.25772850E+04</pdfrwt>
<pdfrwt beam="2">  1       -2 0.31816325E+00 0.25772850E+04</pdfrwt>
<totfact> 0.74673613E-01</totfact>
</mgrwt>
</event>
<event>
 6    1  0.1773638E-005  0.1872853E+04  0.7818608E-02  0.8668488E-01
         -1   -1    0    0    0  501 -0.00000000000E+00  0.00000000000E+00  0.11193716539E+04  0.11193716539E+04  0.00000000000E+00 0.  1.
          1   -1    0    0  501    0  0.00000000000E+00 -0.00000000000E+00 -0.78338131621E+03  0.78338131621E+03  0.00000000000E+00 0. -1.
         23    2    1    2    0    0  0.70967163714E+03  0.32307288639E+03 -0.35420036969E+03  0.86142058559E+03  0.92615338409E+02 0.  0.
         13    1    3    3    0    0  0.56759791779E+03  0.29653768370E+03 -0.29825050483E+03  0.70643850247E+03  0.00000000000E+00 0.  1.
        -13    1    3    3    0    0  0.14207371935E+03  0.26535202685E+02 -0.55949864860E+02  0.15498208312E+03  0.00000000000E+00 0. -1.
         22    1    1    2    0    0 -0.70967163714E+03 -0.32307288639E+03  0.69019070734E+03  0.10413323845E+04  0.00000000000E+00 0.  1.
<mgrwt>
<rscale>  0 0.18728533E+04</rscale>
<asrwt>0</asrwt>
<pdfrwt beam="1">  1        1 0.12052020E+00 0.18728533E+04</pdfrwt>
<pdfrwt beam="2">  1       -1 0.17221102E+00 0.18728533E+04</pdfrwt>
<totfact> 0.50826252E+00</totfact>
</mgrwt>
</event>
<event>
 6    1  0.1773638E-005  0.2030518E+04  0.7818608E-02  0.8592484E-01
          1   -1    0    0  501    0  0.00000000000E+00  0.00000000000E+00  0.11579667219E+04  0.11579667219E+04  0.00000000000E+00 0. -1.
         -1   -1    0    0    0  501 -0.00000000000E+00 -0.00000000000E+00 -0.89013843369E+03  0.89013843369E+03  0.00000000000E+00 0.  1.
         23    2    1    2    0    0  0.64474365627E+03  0.78140039341E+03  0.15197512181E+03  0.10284469220E+04  0.91245145354E+02 0.  0.
         13    1    3    3    0    0  0.44310289740E+03  0.48310846157E+03  0.70755206041E+02  0.65934836202E+03  0.00000000000E+00 0.  1.
        -13    1    3    3    0    0  0.20164075886E+03  0.29829193185E+03  0.81219915771E+02  0.36909855995E+03  0.00000000000E+00 0. -1.
         22    1    1    2    0    0 -0.64474365627E+03 -0.78140039341E+03  0.11585316635E+03  0.10196582336E+04  0.00000000000E+00 0.  1.
<mgrwt>
<rscale>  0 0.20305178E+04</rscale>
<asrwt>0</asrwt>
<pdfrwt beam="1">  1        1 0.17814873E+00 0.20305178E+04</pdfrwt>
<pdfrwt beam="2">  1       -1 0.13694437E+00 0.20305178E+04</pdfrwt>
<totfact> 0.47141741E+00</totfact>
</mgrwt>
</event>
<event>
 6    1  0.1773638E-005  0.1274055E+04  0.7818608E-02  0.9050397E-01
         -2   -1    0    0    0  501 -0.00000000000E+00  0.00000000000E+00  0.32212767806E+03  0.32212767806E+03  0.00000000000E+00 0.  1.
          2   -1    0    0  501    0  0.00000000000E+00 -0.00000000000E+00 -0.12597613585E+04  0.12597613585E+04  0.00000000000E+00 0. -1.
         23    2    1    2    0    0  0.39214113754E+03  0.18537372967E+03  0.10221271593E+03  0.45520424504E+03  0.92872891621E+02 0.  0.
         11    1    3    3    0    0  0.22068088168E+03  0.11038888215E+03  0.10940287367E+02  0.24699280704E+03  0.00000000000E+00 0.  1.
        -11    1    3    3    0    0  0.17146025586E+03  0.74984847526E+02  0.91272428562E+02  0.20821143800E+03  0.00000000000E+00 0. -1.
         22    1    1    2    0    0 -0.39214113754E+03 -0.18537372967E+03 -0.10398463963E+04  0.11266847915E+04  0.00000000000E+00 0. -1.
<mgrwt>
<rscale>  0 0.12740549E+04</rscale>
<asrwt>0</asrwt>
<pdfrwt beam="1">  1        2 0.19380944E+00 0.12740549E+04</pdfrwt>
<pdfrwt beam="2">  1       -2 0.49558104E-01 0.12740549E+04</pdfrwt>
<totfact> 0.66025248E+01</totfact>
</mgrwt>
</event>
<event>
 6    1  0.1773638E-005  0.2048025E+04  0.7818608E-02  0.8584491E-01
          2   -1    0    0  501    0  0.00000000000E+00  0.00000000000E+00  0.91221402842E+03  0.91221402842E+03  0.00000000000E+00 0. -1.
         -2   -1    0    0    0  501 -0.00000000000E+00 -0.00000000000E+00 -0.11495131263E+04  0.11495131263E+04  0.00000000000E+00 0.  1.
         23    2    1    2    0    0 -0.30054617510E+02 -0.89901127092E+03  0.36942440046E+03  0.97672118760E+03  0.91571531419E+02 0.  0.
         11    1    3    3    0    0 -0.57648869919E+02 -0.52945868435E+03  0.19525822192E+03  0.56725273368E+03  0.00000000000E+00 0.  1.
        -11    1    3    3    0    0  0.27594252409E+02 -0.36955258657E+03  0.17416617854E+03  0.40946845392E+03  0.00000000000E+00 0. -1.
         22    1    1    2    0    0  0.30054617510E+02  0.89901127092E+03 -0.60672349839E+03  0.10850059672E+04  0.00000000000E+00 0.  1.
<mgrwt>
<rscale>  0 0.20480254E+04</rscale>
<asrwt>0</asrwt>
<pdfrwt beam="1">  1        2 0.14034062E+00 0.20480254E+04</pdfrwt>
<pdfrwt beam="2">  1       -2 0.17684817E+00 0.20480254E+04</pdfrwt>
<totfact> 0.50759645E+00</totfact>
</mgrwt>
</event>
<event>
 6    1  0.1773638E-005  0.5071181E+03  0.7818608E-02  0.1011938E+00
          2   -1    0    0  501    0  0.00000000000E+00  0.00000000000E+00  0.19331876068E+03  0.19331876068E+03  0.00000000000E+00 0. -1.
         -2   -1    0    0    0  501 -0.00000000000E+00 -0.00000000000E+00 -0.33257087410E+03  0.33257087410E+03  0.00000000000E+00 0.  1.
         23    2    1    2    0    0 -0.40276629398E+02 -0.15714089312E+03 -0.26310421124E+03  0.32179453611E+03  0.89512179812E+02 0.  0.
         11    1    3    3    0    0 -0.42531192206E+01 -0.14006782867E+03 -0.23278872585E+03  0.27171248874E+03  0.00000000000E+00 0.  1.
        -11    1    3    3    0    0 -0.36023510177E+02 -0.17073064449E+02 -0.30315485385E+02  0.50082047375E+02  0.00000000000E+00 0. -1.
         22    1    1    2    0    0  0.40276629398E+02  0.15714089312E+03  0.12385209781E+03  0.20409509866E+03  0.00000000000E+00 0. -1.
<mgrwt>
<rscale>  0 0.50711809E+03</rscale>
<asrwt>0</asrwt>
<pdfrwt beam="1">  1        2 0.29741348E-01 0.50711809E+03</pdfrwt>
<pdfrwt beam="2">  1       -2 0.51164749E-01 0.50711809E+03</pdfrwt>
<totfact> 0.65282343E+02</totfact>
</mgrwt>
</event>
<event>
 6    1  0.1773638E-005  0.3277625E+04  0.7818608E-02  0.8168612E-01
          1   -1    0    0  501    0  0.00000000000E+00  0.00000000000E+00  0.11105034618E+04  0.11105034618E+04  0.00000000000E+00 0. -1.
         -1   -1    0    0    0  501 -0.00000000000E+00 -0.00000000000E+00 -0.24184588296E+04  0.24184588296E+04  0.00000000000E+00 0.  1.
         23    2    1    2    0    0 -0.93060506304E+03  0.89848720448E+03  0.42720351683E+03  0.13646884190E+04  0.81034536943E+02 0.  0.
         11    1    3    3    0    0 -0.57855315775E+03  0.50447773544E+03  0.24419675922E+03  0.80551449342E+03  0.00000000000E+00 0.  1.
        -11    1    3    3    0    0 -0.35205190530E+03  0.39400946905E+03  0.18300675761E+03  0.55917392558E+03  0.00000000000E+00 0. -1.
         22    1    1    2    0    0  0.93060506304E+03 -0.89848720448E+03 -0.17351588846E+04  0.21642738724E+04  0.00000000000E+00 0.  1.
<mgrwt>
<rscale>  0 0.32776253E+04</rscale>
<asrwt>0</asrwt>
<pdfrwt beam="1">  1        1 0.17084669E+00 0.32776253E+04</pdfrwt>
<pdfrwt beam="2">  1       -1 0.37207059E+00 0.32776253E+04</pdfrwt>
<totfact> 0.11444111E-01</totfact>
</mgrwt>
</event>
<event>
 6    1  0.1773638E-005  0.3161633E+04  0.7818608E-02  0.8199024E-01
          2   -1    0    0  501    0  0.00000000000E+00  0.00000000000E+00  0.35090019046E+04  0.35090019046E+04  0.00000000000E+00 0. -1.
         -2   -1    0    0    0  501 -0.00000000000E+00 -0.00000000000E+00 -0.71216291061E+03  0.71216291061E+03  0.00000000000E+00 0.  1.
         23    2    1    2    0    0 -0.57339881092E+03  0.14014476591E+04  0.80313951163E+03  0.17176314394E+04  0.11127869928E+03 0.  0.
         13    1    3    3    0    0 -0.17992245323E+03  0.31475362887E+03  0.18904476897E+03  0.40887633918E+03  0.00000000000E+00 0. -1.
        -13    1    3    3    0    0 -0.39347635769E+03  0.10866940303E+04  0.61409474266E+03  0.13087551003E+04  0.00000000000E+00 0.  1.
         22    1    1    2    0    0  0.57339881092E+03 -0.14014476591E+04  0.19936994823E+04  0.25035333758E+04  0.00000000000E+00 0. -1.
<mgrwt>
<rscale>  0 0.31616331E+04</rscale>
<asrwt>0</asrwt>
<pdfrwt beam="1">  1        2 0.53984644E+00 0.31616331E+04</pdfrwt>
<pdfrwt beam="2">  1       -2 0.10956353E+00 0.31616331E+04</pdfrwt>
<totfact> 0.44845126E-01</totfact>
</mgrwt>
</event>
<event>
 6    1  0.1773638E-005  0.8961465E+03  0.7818608E-02  0.9430411E-01
         -1   -1    0    0    0  501 -0.00000000000E+00  0.00000000000E+00  0.51533660849E+03  0.51533660849E+03  0.00000000000E+00 0.  1.
          1   -1    0    0  501    0  0.00000000000E+00 -0.00000000000E+00 -0.38958930190E+03  0.38958930190E+03  0.00000000000E+00 0. -1.
         23    2    1    2    0    0 -0.39106458852E+03  0.17936678239E+03 -0.45025893144E+02  0.44203559858E+03  0.90907559290E+02 0.  0.
         11    1    3    3    0    0 -0.13318920922E+03  0.18255588458E+02 -0.29126357954E+02  0.13755354117E+03  0.00000000000E+00 0.  1.
        -11    1    3    3    0    0 -0.25787537930E+03  0.16111119393E+03 -0.15899535190E+02  0.30448205740E+03  0.00000000000E+00 0. -1.
         22    1    1    2    0    0  0.39106458852E+03 -0.17936678239E+03  0.17077319974E+03  0.46289031181E+03  0.00000000000E+00 0.  1.
<mgrwt>
<rscale>  0 0.89614648E+03</rscale>
<asrwt>0</asrwt>
<pdfrwt beam="1">  1        1 0.59936815E-01 0.89614648E+03</pdfrwt>
<pdfrwt beam="2">  1       -1 0.79282556E-01 0.89614648E+03</pdfrwt>
<totfact> 0.99673799E+01</totfact>
</mgrwt>
</event>
<event>
 6    1  0.1773638E-005  0.5841379E+03  0.7818608E-02  0.9938873E-01
          1   -1    0    0  501    0  0.00000000000E+00  0.00000000000E+00  0.75180770659E+03  0.75180770659E+03  0.00000000000E+00 0. -1.
         -1   -1    0    0    0  501 -0.00000000000E+00 -0.00000000000E+00 -0.11346552661E+03  0.11346552661E+03  0.00000000000E+00 0.  1.
         23    2    1    2    0    0  0.23312299984E+03  0.15896507962E+03  0.38653622068E+03  0.48709011521E+03  0.90721005492E+02 0.  0.
         11    1    3    3    0    0  0.20041631024E+03  0.10646120268E+03  0.25266129064E+03  0.33961509518E+03  0.00000000000E+00 0.  1.
        -11    1    3    3    0    0  0.32706689609E+02  0.52503876935E+02  0.13387493004E+03  0.14747502003E+03  0.00000000000E+00 0. -1.
         22    1    1    2    0    0 -0.23312299984E+03 -0.15896507962E+03  0.25180595929E+03  0.37818311799E+03  0.00000000000E+00 0.  1.
<mgrwt>
<rscale>  0 0.58413785E+03</rscale>
<asrwt>0</asrwt>
<pdfrwt beam="1">  1        1 0.11566272E+00 0.58413785E+03</pdfrwt>
<pdfrwt beam="2">  1       -1 0.17456235E-01 0.58413785E+03</pdfrwt>
<totfact> 0.63230171E+02</totfact>
</mgrwt>
</event>
<event>
 6    1  0.1773638E-005  0.8686118E+03  0.7818608E-02  0.9465692E-01
         -1   -1    0    0    0  501 -0.00000000000E+00  0.00000000000E+00  0.47963241436E+03  0.47963241436E+03  0.00000000000E+00 0.  1.
          1   -1    0    0  501    0  0.00000000000E+00 -0.00000000000E+00 -0.39326286737E+03  0.39326286737E+03  0.00000000000E+00 0. -1.
         23    2    1    2    0    0  0.78520687689E+02 -0.31718286765E+03 -0.23666028634E+03  0.41341868478E+03  0.90202260916E+02 0.  0.
         11    1    3    3    0    0  0.35896316921E+02 -0.78288734199E+02 -0.20717796169E+02  0.88582721504E+02  0.00000000000E+00 0.  1.
        -11    1    3    3    0    0  0.42624370767E+02 -0.23889413345E+03 -0.21594249017E+03  0.32483596328E+03  0.00000000000E+00 0. -1.
         22    1    1    2    0    0 -0.78520687689E+02  0.31718286765E+03  0.32302983332E+03  0.45947659695E+03  0.00000000000E+00 0. -1.
<mgrwt>
<rscale>  0 0.86861181E+03</rscale>
<asrwt>0</asrwt>
<pdfrwt beam="1">  1        1 0.60501980E-01 0.86861181E+03</pdfrwt>
<pdfrwt beam="2">  1       -1 0.73789602E-01 0.86861181E+03</pdfrwt>
<totfact> 0.11464289E+02</totfact>
</mgrwt>
</event>
<event>
 6    1  0.1773638E-005  0.2123160E+04  0.7818608E-02  0.8551109E-01
          2   -1    0    0  501    0  0.00000000000E+00  0.00000000000E+00  0.20821725454E+04  0.20821725454E+04  0.00000000000E+00 0. -1.
         -2   -1    0    0    0  501 -0.00000000000E+00 -0.00000000000E+00 -0.54123861244E+03  0.54123861244E+03  0.00000000000E+00 0.  1.
         23    2    1    2    0    0 -0.15310127236E+03  0.40367779138E+03  0.19677040323E+04  0.20163456948E+04  0.85994438482E+02 0.  0.
         11    1    3    3    0    0 -0.45754416032E+02  0.14620080569E+03  0.89201992807E+03  0.90507883317E+03  0.00000000000E+00 0.  1.
        -11    1    3    3    0    0 -0.10734685633E+03  0.25747698569E+03  0.10756841042E+04  0.11112668616E+04  0.00000000000E+00 0. -1.
         22    1    1    2    0    0  0.15310127236E+03 -0.40367779138E+03 -0.42677009926E+03  0.60706546309E+03  0.00000000000E+00 0.  1.
<mgrwt>
<rscale>  0 0.21231601E+04</rscale>
<asrwt>0</asrwt>
<pdfrwt beam="1">  1        2 0.32033423E+00 0.21231601E+04</pdfrwt>
<pdfrwt beam="2">  1       -2 0.83267480E-01 0.21231601E+04</pdfrwt>
<totfact> 0.69820920E+00</totfact>
</mgrwt>
</event>
<event>
 6    1  0.1773638E-005  0.5018974E+04  0.7818608E-02  0.7825587E-01
          2   -1    0    0  501    0  0.00000000000E+00  0.00000000000E+00  0.40098622900E+04  0.40098622900E+04  0.00000000000E+00 0. -1.
         -2   -1    0    0    0  501 -0.00000000000E+00 -0.00000000000E+00 -0.15705090046E+04  0.15705090046E+04  0.00000000000E+00 0.  1.
         23    2    1    2    0    0  0.19031232728E+04  0.20971267108E+03 -0.58220677850E+03  0.20032659262E+04  0.90840752766E+02 0.  0.
         11    1    3    3    0    0  0.93159182816E+03  0.91008168386E+02 -0.23873169909E+03  0.96599101712E+03  0.00000000000E+00 0. -1.
        -11    1    3    3    0    0  0.97153144466E+03  0.11870450269E+03 -0.34347507941E+03  0.10372749091E+04  0.00000000000E+00 0.  1.
         22    1    1    2    0    0 -0.19031232728E+04 -0.20971267108E+03  0.30215600639E+04  0.35771053683E+04  0.00000000000E+00 0. -1.
<mgrwt>
<rscale>  0 0.50189739E+04</rscale>
<asrwt>0</asrwt>
<pdfrwt beam="1">  1        2 0.61690189E+00 0.50189739E+04</pdfrwt>
<pdfrwt beam="2">  1       -2 0.24161677E+00 0.50189739E+04</pdfrwt>
<totfact> 0.17590317E-02</totfact>
</mgrwt>
</event>
<event>
 6    1  0.1773638E-005  0.2439283E+04  0.7818608E-02  0.8424941E-01
          1   -1    0    0  501    0  0.00000000000E+00  0.00000000000E+00  0.16948963385E+04  0.16948963385E+04  0.00000000000E+00 0. -1.
         -1   -1    0    0    0  501 -0.00000000000E+00 -0.00000000000E+00 -0.87764991055E+03  0.87764991055E+03  0.00000000000E+00 0.  1.
         23    2    1    2    0    0  0.10001517227E+04  0.17162298841E+03  0.11195058751E+04  0.15137173243E+04  0.91042929272E+02 0.  0.
         13    1    3    3    0    0  0.93210749879E+03  0.16757601218E+03  0.10731811154E+04  0.14313014412E+04  0.00000000000E+00 0.  1.
        -13    1    3    3    0    0  0.68044223919E+02  0.40469762270E+01  0.46324759635E+02  0.82415883060E+02  0.00000000000E+00 0. -1.
         22    1    1    2    0    0 -0.10001517227E+04 -0.17162298841E+03 -0.30225944709E+03  0.10588289248E+04  0.00000000000E+00 0.  1.
<mgrwt>
<rscale>  0 0.24392832E+04</rscale>
<asrwt>0</asrwt>
<pdfrwt beam="1">  1        1 0.26075328E+00 0.24392832E+04</pdfrwt>
<pdfrwt beam="2">  1       -1 0.13502306E+00 0.24392832E+04</pdfrwt>
<totfact> 0.19755509E+00</totfact>
</mgrwt>
</event>
<event>
 6    1  0.1773638E-005  0.4164015E+04  0.7818608E-02  0.7972253E-01
          1   -1    0    0  501    0  0.00000000000E+00  0.00000000000E+00  0.41777250814E+04  0.41777250814E+04  0.00000000000E+00 0. -1.
         -1   -1    0    0    0  501 -0.00000000000E+00 -0.00000000000E+00 -0.10375874278E+04  0.10375874278E+04  0.00000000000E+00 0.  1.
         23    2    1    2    0    0  0.18185201385E+04 -0.91487152755E+03  0.10301534744E+04  0.22834123330E+04  0.93543016522E+02 0.  0.
         13    1    3    3    0    0  0.95493046309E+03 -0.43440664086E+03  0.55542323397E+03  0.11870536162E+04  0.00000000000E+00 0.  1.
        -13    1    3    3    0    0  0.86358967538E+03 -0.48046488669E+03  0.47473024039E+03  0.10963587168E+04  0.00000000000E+00 0. -1.
         22    1    1    2    0    0 -0.18185201385E+04  0.91487152755E+03  0.21099841793E+04  0.29319001762E+04  0.00000000000E+00 0. -1.
<mgrwt>
<rscale>  0 0.41640149E+04</rscale>
<asrwt>0</asrwt>
<pdfrwt beam="1">  1        1 0.64272693E+00 0.41640149E+04</pdfrwt>
<pdfrwt beam="2">  1       -1 0.15962884E+00 0.41640149E+04</pdfrwt>
<totfact> 0.15002393E-02</totfact>
</mgrwt>
</event>
<event>
 6    1  0.1773638E-005  0.1927175E+04  0.7818608E-02  0.8641447E-01
         -1   -1    0    0    0  501 -0.00000000000E+00  0.00000000000E+00  0.11184140216E+04  0.11184140216E+04  0.00000000000E+00 0.  1.
          1   -1    0    0  501    0  0.00000000000E+00 -0.00000000000E+00 -0.83019433620E+03  0.83019433620E+03  0.00000000000E+00 0. -1.
         23    2    1    2    0    0  0.42009785789E+03 -0.84285646798E+03 -0.54842800864E+02  0.94632042248E+03  0.75002489102E+02 0.  0.
         13    1    3    3    0    0  0.31907303665E+03 -0.56224139895E+03 -0.39924501380E+02  0.64770128857E+03  0.00000000000E+00 0.  1.
        -13    1    3    3    0    0  0.10102482124E+03 -0.28061506903E+03 -0.14918299483E+02  0.29861913390E+03  0.00000000000E+00 0. -1.
         22    1    1    2    0    0 -0.42009785789E+03  0.84285646798E+03  0.34306248626E+03  0.10022879353E+04  0.00000000000E+00 0. -1.
<mgrwt>
<rscale>  0 0.19271751E+04</rscale>
<asrwt>0</asrwt>
<pdfrwt beam="1">  1        1 0.12772220E+00 0.19271751E+04</pdfrwt>
<pdfrwt beam="2">  1       -1 0.17206370E+00 0.19271751E+04</pdfrwt>
<totfact> 0.46180845E+00</totfact>
</mgrwt>
</event>
<event>
 6    1  0.1773638E-005  0.2459366E+04  0.7818608E-02  0.8417606E-01
          2   -1    0    0  501    0  0.00000000000E+00  0.00000000000E+00  0.12240145765E+04  0.12240145765E+04  0.00000000000E+00 0. -1.
         -2   -1    0    0    0  501 -0.00000000000E+00 -0.00000000000E+00 -0.12353776206E+04  0.12353776206E+04  0.00000000000E+00 0.  1.
         23    2    1    2    0    0 -0.69008881888E+03 -0.10144870998E+04  0.46648489183E+02  0.12310713956E+04  0.89185457843E+02 0.  0.
         11    1    3    3    0    0 -0.44171676401E+03 -0.60030717518E+03  0.62030076133E+02  0.74788377073E+03  0.00000000000E+00 0. -1.
        -11    1    3    3    0    0 -0.24837205487E+03 -0.41417992458E+03 -0.15381586951E+02  0.48318762482E+03  0.00000000000E+00 0.  1.
         22    1    1    2    0    0  0.69008881888E+03  0.10144870998E+04 -0.58011533221E+02  0.12283208015E+04  0.00000000000E+00 0.  1.
<mgrwt>
<rscale>  0 0.24593659E+04</rscale>
<asrwt>0</asrwt>
<pdfrwt beam="1">  1        2 0.18830994E+00 0.24593659E+04</pdfrwt>
<pdfrwt beam="2">  1       -2 0.19005809E+00 0.24593659E+04</pdfrwt>
<totfact> 0.25396407E+00</totfact>
</mgrwt>
</event>
<event>
 6    1  0.1773638E-005  0.1810385E+04  0.7818608E-02  0.8700796E-01
         -2   -1    0    0    0  501 -0.00000000000E+00  0.00000000000E+00  0.48146693900E+03  0.48146693900E+03  0.00000000000E+00 0.  1.
          2   -1    0    0  501    0  0.00000000000E+00 -0.00000000000E+00 -0.17018271724E+04  0.17018271724E+04  0.00000000000E+00 0. -1.
         23    2    1    2    0    0  0.29698822433E+03 -0.51670030550E+03 -0.14296866402E+04  0.15516306285E+04  0.91501404432E+02 0.  0.
         11    1    3    3    0    0  0.14673759333E+03 -0.33331195731E+03 -0.92189520884E+03  0.99122124587E+03  0.00000000000E+00 0.  1.
        -11    1    3    3    0    0  0.15025063100E+03 -0.18338834820E+03 -0.50779143137E+03  0.56040938263E+03  0.00000000000E+00 0. -1.
         22    1    1    2    0    0 -0.29698822433E+03  0.51670030550E+03  0.20932640677E+03  0.63166348293E+03  0.00000000000E+00 0.  1.
<mgrwt>
<rscale>  0 0.18103851E+04</rscale>
<asrwt>0</asrwt>
<pdfrwt beam="1">  1        2 0.26181956E+00 0.18103851E+04</pdfrwt>
<pdfrwt beam="2">  1       -2 0.74071837E-01 0.18103851E+04</pdfrwt>
<totfact> 0.15148082E+01</totfact>
</mgrwt>
</event>
<event>
 6    1  0.1773638E-005  0.2659261E+04  0.7818608E-02  0.8348346E-01
          1   -1    0    0  501    0  0.00000000000E+00  0.00000000000E+00  0.33191553679E+04  0.33191553679E+04  0.00000000000E+00 0. -1.
         -1   -1    0    0    0  501 -0.00000000000E+00 -0.00000000000E+00 -0.53264055528E+03  0.53264055528E+03  0.00000000000E+00 0.  1.
         23    2    1    2    0    0 -0.31894277576E+03  0.85568830036E+03 -0.18416134406E+01  0.91771028702E+03  0.90894542042E+02 0.  0.
         11    1    3    3    0    0 -0.66539538391E+02  0.24298807372E+03  0.33305352146E+02  0.25412587554E+03  0.00000000000E+00 0.  1.
        -11    1    3    3    0    0 -0.25240323737E+03  0.61270022664E+03 -0.35146965587E+02  0.66358441148E+03  0.00000000000E+00 0. -1.
         22    1    1    2    0    0  0.31894277576E+03 -0.85568830036E+03  0.27883564261E+04  0.29340856362E+04  0.00000000000E+00 0. -1.
<mgrwt>
<rscale>  0 0.26592606E+04</rscale>
<asrwt>0</asrwt>
<pdfrwt beam="1">  1        1 0.51063928E+00 0.26592606E+04</pdfrwt>
<pdfrwt beam="2">  1       -1 0.81944703E-01 0.26592606E+04</pdfrwt>
<totfact> 0.44826422E-01</totfact>
</mgrwt>
</event>
<event>
 6    1  0.1773638E-005  0.2832797E+04  0.7818608E-02  0.8293158E-01
          2   -1    0    0  501    0  0.00000000000E+00  0.00000000000E+00  0.91873331168E+03  0.91873331168E+03  0.00000000000E+00 0. -1.
         -2   -1    0    0    0  501 -0.00000000000E+00 -0.00000000000E+00 -0.21836413534E+04  0.21836413534E+04  0.00000000000E+00 0.  1.
         23    2    1    2    0    0 -0.13611579477E+04 -0.50872040867E+02 -0.21391296967E+03  0.13819300817E+04  0.92914309911E+02 0.  0.
         11    1    3    3    0    0 -0.30873517732E+03 -0.47531995383E+02 -0.33719780348E+02  0.31418740250E+03  0.00000000000E+00 0.  1.
        -11    1    3    3    0    0 -0.10524227704E+04 -0.33400454836E+01 -0.18019318932E+03  0.10677426792E+04  0.00000000000E+00 0. -1.
         22    1    1    2    0    0  0.13611579477E+04  0.50872040867E+02 -0.10509950721E+04  0.17204445834E+04  0.00000000000E+00 0.  1.
<mgrwt>
<rscale>  0 0.28327965E+04</rscale>
<asrwt>0</asrwt>
<pdfrwt beam="1">  1        2 0.14134359E+00 0.28327965E+04</pdfrwt>
<pdfrwt beam="2">  1       -2 0.33594482E+00 0.28327965E+04</pdfrwt>
<totfact> 0.47112060E-01</totfact>
</mgrwt>
</event>
<event>
 6    1  0.1773638E-005  0.7909946E+03  0.7818608E-02  0.9573144E-01
          1   -1    0    0  501    0  0.00000000000E+00  0.00000000000E+00  0.16651785010E+04  0.16651785010E+04  0.00000000000E+00 0. -1.
         -1   -1    0    0    0  501 -0.00000000000E+00 -0.00000000000E+00 -0.93934747403E+02  0.93934747403E+02  0.00000000000E+00 0.  1.
         23    2    1    2    0    0 -0.18900263952E+03 -0.34145775467E+03  0.76219785106E+03  0.86085344835E+03  0.88361187187E+02 0.  0.
         13    1    3    3    0    0 -0.60494186503E+02 -0.19728793492E+03  0.41854052055E+03  0.46664573630E+03  0.00000000000E+00 0. -1.
        -13    1    3    3    0    0 -0.12850845302E+03 -0.14416981976E+03  0.34365733051E+03  0.39420771205E+03  0.00000000000E+00 0.  1.
         22    1    1    2    0    0  0.18900263952E+03  0.34145775467E+03  0.80904590249E+03  0.89825980000E+03  0.00000000000E+00 0. -1.
<mgrwt>
<rscale>  0 0.79099462E+03</rscale>
<asrwt>0</asrwt>
<pdfrwt beam="1">  1        1 0.25618129E+00 0.79099462E+03</pdfrwt>
<pdfrwt beam="2">  1       -1 0.14451501E-01 0.79099462E+03</pdfrwt>
<totfact> 0.17927650E+02</totfact>
</mgrwt>
</event>
<event>
 6    1  0.1773638E-005  0.1219615E+04  0.7818608E-02  0.9095858E-01
         -2   -1    0    0    0  501 -0.00000000000E+00  0.00000000000E+00  0.17249900745E+03  0.17249900745E+03  0.00000000000E+00 0.  1.
          2   -1    0    0  501    0  0.00000000000E+00 -0.00000000000E+00 -0.21557536330E+04  0.21557536330E+04  0.00000000000E+00 0. -1.
         23    2    1    2    0    0  0.49820180345E+03 -0.28436987179E+03 -0.62283323749E+03  0.85183209940E+03  0.92873154902E+02 0.  0.
         13    1    3    3    0    0  0.35279991178E+03 -0.16318707867E+03 -0.37629416551E+03  0.54101303070E+03  0.00000000000E+00 0.  1.
        -13    1    3    3    0    0  0.14540189167E+03 -0.12118279312E+03 -0.24653907198E+03  0.31081906869E+03  0.00000000000E+00 0. -1.
         22    1    1    2    0    0 -0.49820180345E+03  0.28436987179E+03 -0.13604213880E+04  0.14764205410E+04  0.00000000000E+00 0. -1.
<mgrwt>
<rscale>  0 0.12196153E+04</rscale>
<asrwt>0</asrwt>
<pdfrwt beam="1">  1        2 0.33165440E+00 0.12196153E+04</pdfrwt>
<pdfrwt beam="2">  1       -2 0.26538309E-01 0.12196153E+04</pdfrwt>
<totfact> 0.69497116E+01</totfact>
</mgrwt>
</event>
<event>
 6    1  0.1773638E-005  0.2039201E+04  0.7818608E-02  0.8588509E-01
         -3   -1    0    0    0  501 -0.00000000000E+00  0.00000000000E+00  0.60023312484E+03  0.60023312484E+03  0.00000000000E+00 0.  1.
          3   -1    0    0  501    0  0.00000000000E+00 -0.00000000000E+00 -0.17319689318E+04  0.17319689318E+04  0.00000000000E+00 0. -1.
         23    2    1    2    0    0  0.82409193895E+03 -0.56731094119E+02 -0.12473012245E+04  0.14981149469E+04  0.79007016214E+02 0.  0.
         11    1    3    3    0    0  0.44051245576E+03 -0.84846801918E+01 -0.72340787757E+03  0.84701958112E+03  0.00000000000E+00 0.  1.
        -11    1    3    3    0    0  0.38357948319E+03 -0.48246413927E+02 -0.52389334694E+03  0.65109536578E+03  0.00000000000E+00 0. -1.
         22    1    1    2    0    0 -0.82409193895E+03  0.56731094119E+02  0.11556541755E+03  0.83408710973E+03  0.00000000000E+00 0.  1.
<mgrwt>
<rscale>  0 0.20392009E+04</rscale>
<asrwt>0</asrwt>
<pdfrwt beam="1">  1        3 0.26645676E+00 0.20392009E+04</pdfrwt>
<pdfrwt beam="2">  1       -3 0.92343557E-01 0.20392009E+04</pdfrwt>
<totfact> 0.15143838E-01</totfact>
</mgrwt>
</event>
<event>
 6    1  0.1773638E-005  0.2757144E+04  0.7818608E-02  0.8316698E-01
         -1   -1    0    0    0  501 -0.00000000000E+00  0.00000000000E+00  0.16547736863E+04  0.16547736863E+04  0.00000000000E+00 0.  1.
          1   -1    0    0  501    0  0.00000000000E+00 -0.00000000000E+00 -0.11484719743E+04  0.11484719743E+04  0.00000000000E+00 0. -1.
         23    2    1    2    0    0 -0.73415380106E+02  0.11684411216E+04  0.99059612684E+03  0.15362864849E+04  0.90835038922E+02 0.  0.
         11    1    3    3    0    0 -0.42313379144E+02  0.31714533087E+03  0.31557355487E+03  0.44939765407E+03  0.00000000000E+00 0. -1.
        -11    1    3    3    0    0 -0.31102000962E+02  0.85129579077E+03  0.67502257197E+03  0.10868888308E+04  0.00000000000E+00 0.  1.
         22    1    1    2    0    0  0.73415380106E+02 -0.11684411216E+04 -0.48429441487E+03  0.12669591758E+04  0.00000000000E+00 0. -1.
<mgrwt>
<rscale>  0 0.27571443E+04</rscale>
<asrwt>0</asrwt>
<pdfrwt beam="1">  1        1 0.17668800E+00 0.27571443E+04</pdfrwt>
<pdfrwt beam="2">  1       -1 0.25458057E+00 0.27571443E+04</pdfrwt>
<totfact> 0.65947605E-01</totfact>
</mgrwt>
</event>
<event>
 6    1  0.1773638E-005  0.9381807E+03  0.7818608E-02  0.9379073E-01
         -1   -1    0    0    0  501 -0.00000000000E+00  0.00000000000E+00  0.12473423347E+03  0.12473423347E+03  0.00000000000E+00 0.  1.
          1   -1    0    0  501    0  0.00000000000E+00 -0.00000000000E+00 -0.17641169806E+04  0.17641169806E+04  0.00000000000E+00 0. -1.
         23    2    1    2    0    0 -0.23351058024E+03 -0.30801261201E+03 -0.30859490880E+03  0.50306795869E+03  0.91910788753E+02 0.  0.
         11    1    3    3    0    0 -0.17315047927E+03 -0.27663103302E+03 -0.27699722931E+03  0.42805756850E+03  0.00000000000E+00 0.  1.
        -11    1    3    3    0    0 -0.60360100969E+02 -0.31381578990E+02 -0.31597679489E+02  0.75010390200E+02  0.00000000000E+00 0. -1.
         22    1    1    2    0    0  0.23351058024E+03  0.30801261201E+03 -0.13307878384E+04  0.13857832554E+04  0.00000000000E+00 0. -1.
<mgrwt>
<rscale>  0 0.93818075E+03</rscale>
<asrwt>0</asrwt>
<pdfrwt beam="1">  1        1 0.27140261E+00 0.93818075E+03</pdfrwt>
<pdfrwt beam="2">  1       -1 0.19189882E-01 0.93818075E+03</pdfrwt>
<totfact> 0.95337558E+01</totfact>
</mgrwt>
</event>
<event>
 6    1  0.1773638E-005  0.7197910E+03  0.7818608E-02  0.9683973E-01
          1   -1    0    0  501    0  0.00000000000E+00  0.00000000000E+00  0.17981269637E+04  0.17981269637E+04  0.00000000000E+00 0. -1.
         -1   -1    0    0    0  501 -0.00000000000E+00 -0.00000000000E+00 -0.72033166425E+02  0.72033166425E+02  0.00000000000E+00 0.  1.
         23    2    1    2    0    0 -0.14294948852E+03  0.32367112730E+03  0.83404073953E+03  0.91049549456E+03  0.90446312869E+02 0.  0.
         13    1    3    3    0    0 -0.64960865450E+02  0.11084652470E+03  0.41023892939E+03  0.42988701454E+03  0.00000000000E+00 0. -1.
        -13    1    3    3    0    0 -0.77988623065E+02  0.21282460259E+03  0.42380181013E+03  0.48060848002E+03  0.00000000000E+00 0.  1.
         22    1    1    2    0    0  0.14294948852E+03 -0.32367112730E+03  0.89205305770E+03  0.95966463552E+03  0.00000000000E+00 0. -1.
<mgrwt>
<rscale>  0 0.71979102E+03</rscale>
<asrwt>0</asrwt>
<pdfrwt beam="1">  1        1 0.27663488E+00 0.71979102E+03</pdfrwt>
<pdfrwt beam="2">  1       -1 0.11082027E-01 0.71979102E+03</pdfrwt>
<totfact> 0.22486116E+02</totfact>
</mgrwt>
</event>
<event>
 6    1  0.1773638E-005  0.4811360E+04  0.7818608E-02  0.7858284E-01
         -1   -1    0    0    0  501 -0.00000000000E+00  0.00000000000E+00  0.23158416055E+04  0.23158416055E+04  0.00000000000E+00 0.  1.
          1   -1    0    0  501    0  0.00000000000E+00 -0.00000000000E+00 -0.24990037954E+04  0.24990037954E+04  0.00000000000E+00 0. -1.
         23    2    1    2    0    0  0.46033922279E+03  0.23505323243E+04  0.12363730943E+03  0.24000906845E+04  0.90745258652E+02 0.  0.
         13    1    3    3    0    0  0.22801731264E+03  0.11537316144E+04  0.10608828229E+03  0.11808231267E+04  0.00000000000E+00 0.  1.
        -13    1    3    3    0    0  0.23232191015E+03  0.11968007099E+04  0.17549027138E+02  0.12192675578E+04  0.00000000000E+00 0. -1.
         22    1    1    2    0    0 -0.46033922279E+03 -0.23505323243E+04 -0.30679949928E+03  0.24147547164E+04  0.00000000000E+00 0. -1.
<mgrwt>
<rscale>  0 0.48113603E+04</rscale>
<asrwt>0</asrwt>
<pdfrwt beam="1">  1        1 0.38446212E+00 0.48113603E+04</pdfrwt>
<pdfrwt beam="2">  1       -1 0.35628332E+00 0.48113603E+04</pdfrwt>
<totfact> 0.14035389E-02</totfact>
</mgrwt>
</event>
<event>
 6    1  0.1773638E-005  0.4341791E+04  0.7818608E-02  0.7938935E-01
         -2   -1    0    0    0  501 -0.00000000000E+00  0.00000000000E+00  0.19938387847E+04  0.19938387847E+04  0.00000000000E+00 0.  1.
          2   -1    0    0  501    0  0.00000000000E+00 -0.00000000000E+00 -0.23636749244E+04  0.23636749244E+04  0.00000000000E+00 0. -1.
         23    2    1    2    0    0  0.73506588021E+03 -0.12127440559E+04  0.14634965929E+04  0.20397175788E+04  0.86922553771E+02 0.  0.
         13    1    3    3    0    0  0.45125526478E+03 -0.81531460602E+03  0.98720053806E+03  0.13575470979E+04  0.00000000000E+00 0.  1.
        -13    1    3    3    0    0  0.28381061543E+03 -0.39742944984E+03  0.47629605487E+03  0.68217048082E+03  0.00000000000E+00 0. -1.
         22    1    1    2    0    0 -0.73506588021E+03  0.12127440559E+04 -0.18333327327E+04  0.23177961304E+04  0.00000000000E+00 0. -1.
<mgrwt>
<rscale>  0 0.43417908E+04</rscale>
<asrwt>0</asrwt>
<pdfrwt beam="1">  1        2 0.36364229E+00 0.43417908E+04</pdfrwt>
<pdfrwt beam="2">  1       -2 0.30674443E+00 0.43417908E+04</pdfrwt>
<totfact> 0.92486780E-02</totfact>
</mgrwt>
</event>
<event>
 6    1  0.1773638E-005  0.2526492E+04  0.7818608E-02  0.8393608E-01
         -2   -1    0    0    0  501 -0.00000000000E+00  0.00000000000E+00  0.66015541366E+03  0.66015541366E+03  0.00000000000E+00 0.  1.
          2   -1    0    0  501    0  0.00000000000E+00 -0.00000000000E+00 -0.24172951349E+04  0.24172951349E+04  0.00000000000E+00 0. -1.
         23    2    1    2    0    0  0.13217977331E+03 -0.11202969633E+04 -0.19176000488E+03  0.11479556833E+04  0.92160582056E+02 0.  0.
         11    1    3    3    0    0  0.49864284416E+02 -0.74840023505E+03 -0.10587193067E+03  0.75749470255E+03  0.00000000000E+00 0. -1.
        -11    1    3    3    0    0  0.82315488897E+02 -0.37189672829E+03 -0.85888074214E+02  0.39046098078E+03  0.00000000000E+00 0.  1.
         22    1    1    2    0    0 -0.13217977331E+03  0.11202969633E+04 -0.15653797163E+04  0.19294948652E+04  0.00000000000E+00 0. -1.
<mgrwt>
<rscale>  0 0.25264920E+04</rscale>
<asrwt>0</asrwt>
<pdfrwt beam="1">  1        2 0.37189156E+00 0.25264920E+04</pdfrwt>
<pdfrwt beam="2">  1       -2 0.10156237E+00 0.25264920E+04</pdfrwt>
<totfact> 0.27523059E+00</totfact>
</mgrwt>
</event>
<event>
 6    1  0.1773638E-005  0.1337353E+04  0.7818608E-02  0.9000457E-01
         -1   -1    0    0    0  501 -0.00000000000E+00  0.00000000000E+00  0.26497108862E+03  0.26497108862E+03  0.00000000000E+00 0.  1.
          1   -1    0    0  501    0  0.00000000000E+00 -0.00000000000E+00 -0.16874607461E+04  0.16874607461E+04  0.00000000000E+00 0. -1.
         23    2    1    2    0    0  0.52684699418E+03  0.40470396571E+03 -0.77226969406E+03  0.10228410344E+04  0.91925220667E+02 0.  0.
         11    1    3    3    0    0  0.35433045910E+03  0.22406304180E+03 -0.51821263969E+03  0.66655732003E+03  0.00000000000E+00 0. -1.
        -11    1    3    3    0    0  0.17251653508E+03  0.18064092391E+03 -0.25405705436E+03  0.35628371439E+03  0.00000000000E+00 0.  1.
         22    1    1    2    0    0 -0.52684699418E+03 -0.40470396571E+03 -0.65021996340E+03  0.92959080027E+03  0.00000000000E+00 0.  1.
<mgrwt>
<rscale>  0 0.13373531E+04</rscale>
<asrwt>0</asrwt>
<pdfrwt beam="1">  1        1 0.25960933E+00 0.13373531E+04</pdfrwt>
<pdfrwt beam="2">  1       -1 0.40764785E-01 0.13373531E+04</pdfrwt>
<totfact> 0.28021121E+01</totfact>
</mgrwt>
</event>
<event>
 6    1  0.1773638E-005  0.5085173E+03  0.7818608E-02  0.1011579E+00
         -1   -1    0    0    0  501 -0.00000000000E+00  0.00000000000E+00  0.12978653060E+04  0.12978653060E+04  0.00000000000E+00 0.  1.
          1   -1    0    0  501    0  0.00000000000E+00 -0.00000000000E+00 -0.49810610876E+02  0.49810610876E+02  0.00000000000E+00 0. -1.
         23    2    1    2    0    0 -0.18661280962E+03  0.32067970193E+01  0.10698225610E+04  0.10896036055E+04  0.88775451641E+02 0.  0.
         11    1    3    3    0    0 -0.96244180039E+02  0.25595376897E+02  0.35364901547E+03  0.36740398970E+03  0.00000000000E+00 0. -1.
        -11    1    3    3    0    0 -0.90368629576E+02 -0.22388579877E+02  0.71617354555E+03  0.72219961580E+03  0.00000000000E+00 0.  1.
         22    1    1    2    0    0  0.18661280962E+03 -0.32067970193E+01  0.17823213406E+03  0.25807231132E+03  0.00000000000E+00 0. -1.
<mgrwt>
<rscale>  0 0.50851731E+03</rscale>
<asrwt>0</asrwt>
<pdfrwt beam="1">  1        1 0.76631719E-02 0.50851731E+03</pdfrwt>
<pdfrwt beam="2">  1       -1 0.19967156E+00 0.50851731E+03</pdfrwt>
<totfact> 0.15223451E+02</totfact>
</mgrwt>
</event>
<event>
 6    1  0.1773638E-005  0.3092999E+04  0.7818608E-02  0.8217662E-01
         -2   -1    0    0    0  501 -0.00000000000E+00  0.00000000000E+00  0.18057731461E+04  0.18057731461E+04  0.00000000000E+00 0.  1.
          2   -1    0    0  501    0  0.00000000000E+00 -0.00000000000E+00 -0.13244520778E+04  0.13244520778E+04  0.00000000000E+00 0. -1.
         23    2    1    2    0    0 -0.13113451561E+04 -0.29427041524E+03  0.10125202252E+04  0.16850976379E+04  0.90197822941E+02 0.  0.
         11    1    3    3    0    0 -0.64843945563E+03 -0.17829910201E+03  0.46631755783E+03  0.81836199944E+03  0.00000000000E+00 0. -1.
        -11    1    3    3    0    0 -0.66290570045E+03 -0.11597131323E+03  0.54620266734E+03  0.86673563846E+03  0.00000000000E+00 0.  1.
         22    1    1    2    0    0  0.13113451561E+04  0.29427041524E+03 -0.53119915679E+03  0.14451275860E+04  0.00000000000E+00 0. -1.
<mgrwt>
<rscale>  0 0.30929985E+04</rscale>
<asrwt>0</asrwt>
<pdfrwt beam="1">  1        2 0.20376186E+00 0.30929985E+04</pdfrwt>
<pdfrwt beam="2">  1       -2 0.27781125E+00 0.30929985E+04</pdfrwt>
<totfact> 0.59017700E-01</totfact>
</mgrwt>
</event>
<event>
 6    1  0.1773638E-005  0.2690383E+04  0.7818608E-02  0.8338132E-01
         -2   -1    0    0    0  501 -0.00000000000E+00  0.00000000000E+00  0.25653887199E+04  0.25653887199E+04  0.00000000000E+00 0.  1.
          2   -1    0    0  501    0  0.00000000000E+00 -0.00000000000E+00 -0.70536678203E+03  0.70536678203E+03  0.00000000000E+00 0. -1.
         23    2    1    2    0    0 -0.29492032629E+03 -0.93748223640E+03  0.20444348270E+04  0.22708259763E+04  0.10528964976E+03 0.  0.
         13    1    3    3    0    0 -0.22551774050E+03 -0.54542040936E+03  0.12109161543E+04  0.13470930209E+04  0.00000000000E+00 0. -1.
        -13    1    3    3    0    0 -0.69402585791E+02 -0.39206182703E+03  0.83351867276E+03  0.92373295544E+03  0.00000000000E+00 0.  1.
         22    1    1    2    0    0  0.29492032629E+03  0.93748223640E+03 -0.18441288918E+03  0.99992952558E+03  0.00000000000E+00 0. -1.
<mgrwt>
<rscale>  0 0.26903829E+04</rscale>
<asrwt>0</asrwt>
<pdfrwt beam="1">  1        2 0.10851797E+00 0.26903829E+04</pdfrwt>
<pdfrwt beam="2">  1       -2 0.39467518E+00 0.26903829E+04</pdfrwt>
<totfact> 0.28643393E-01</totfact>
</mgrwt>
</event>
<event>
 6    1  0.1773638E-005  0.2398123E+04  0.7818608E-02  0.8440207E-01
         -2   -1    0    0    0  501 -0.00000000000E+00  0.00000000000E+00  0.19553436453E+04  0.19553436453E+04  0.00000000000E+00 0.  1.
          2   -1    0    0  501    0  0.00000000000E+00 -0.00000000000E+00 -0.73529203808E+03  0.73529203808E+03  0.00000000000E+00 0. -1.
         23    2    1    2    0    0  0.10911120690E+03 -0.10165249185E+04  0.13099612310E+04  0.16643258345E+04  0.93562232178E+02 0.  0.
         11    1    3    3    0    0  0.65060564572E+01 -0.37161355912E+03  0.42660442815E+03  0.56580058697E+03  0.00000000000E+00 0. -1.
        -11    1    3    3    0    0  0.10260515044E+03 -0.64491135942E+03  0.88335680282E+03  0.10985252475E+04  0.00000000000E+00 0.  1.
         22    1    1    2    0    0 -0.10911120690E+03  0.10165249185E+04 -0.89909623743E+02  0.10263098489E+04  0.00000000000E+00 0. -1.
<mgrwt>
<rscale>  0 0.23981231E+04</rscale>
<asrwt>0</asrwt>
<pdfrwt beam="1">  1        2 0.11312185E+00 0.23981231E+04</pdfrwt>
<pdfrwt beam="2">  1       -2 0.30082210E+00 0.23981231E+04</pdfrwt>
<totfact> 0.10874339E+00</totfact>
</mgrwt>
</event>
<event>
 6    1  0.1773638E-005  0.1207696E+04  0.7818608E-02  0.9106147E-01
         -2   -1    0    0    0  501 -0.00000000000E+00  0.00000000000E+00  0.21434826020E+03  0.21434826020E+03  0.00000000000E+00 0.  1.
          2   -1    0    0  501    0  0.00000000000E+00 -0.00000000000E+00 -0.17011217757E+04  0.17011217757E+04  0.00000000000E+00 0. -1.
         23    2    1    2    0    0 -0.38411195516E+03  0.35495117132E+03 -0.12153533354E+04  0.13262321872E+04  0.90971185246E+02 0.  0.
         11    1    3    3    0    0 -0.15158294553E+03  0.16615891468E+03 -0.42149252486E+03  0.47774692340E+03  0.00000000000E+00 0. -1.
        -11    1    3    3    0    0 -0.23252900963E+03  0.18879225664E+03 -0.79386081050E+03  0.84848526383E+03  0.00000000000E+00 0.  1.
         22    1    1    2    0    0  0.38411195516E+03 -0.35495117132E+03 -0.27142018012E+03  0.58923784866E+03  0.00000000000E+00 0.  1.
<mgrwt>
<rscale>  0 0.12076961E+04</rscale>
<asrwt>0</asrwt>
<pdfrwt beam="1">  1        2 0.26171104E+00 0.12076961E+04</pdfrwt>
<pdfrwt beam="2">  1       -2 0.32976655E-01 0.12076961E+04</pdfrwt>
<totfact> 0.82870903E+01</totfact>
</mgrwt>
</event>
<event>
 6    1  0.1773638E-005  0.4238961E+04  0.7818608E-02  0.7958002E-01
         -2   -1    0    0    0  501 -0.00000000000E+00  0.00000000000E+00  0.13032906673E+04  0.13032906673E+04  0.00000000000E+00 0.  1.
          2   -1    0    0  501    0  0.00000000000E+00 -0.00000000000E+00 -0.34468122540E+04  0.34468122540E+04  0.00000000000E+00 0. -1.
         23    2    1    2    0    0  0.40471210858E+03  0.20780877700E+04 -0.11598499324E+04  0.24156114147E+04  0.87669666561E+02 0.  0.
         13    1    3    3    0    0  0.11345829981E+03  0.48221142863E+03 -0.30793864906E+03  0.58328968727E+03  0.00000000000E+00 0.  1.
        -13    1    3    3    0    0  0.29125380876E+03  0.15958763414E+04 -0.85191128330E+03  0.18323217274E+04  0.00000000000E+00 0. -1.
         22    1    1    2    0    0 -0.40471210858E+03 -0.20780877700E+04 -0.98367165438E+03  0.23344915066E+04  0.00000000000E+00 0.  1.
<mgrwt>
<rscale>  0 0.42389613E+04</rscale>
<asrwt>0</asrwt>
<pdfrwt beam="1">  1        2 0.53027881E+00 0.42389613E+04</pdfrwt>
<pdfrwt beam="2">  1       -2 0.20050626E+00 0.42389613E+04</pdfrwt>
<totfact> 0.90268373E-02</totfact>
</mgrwt>
</event>
<event>
 6    1  0.1773638E-005  0.3147211E+04  0.7818608E-02  0.8202900E-01
          1   -1    0    0  501    0  0.00000000000E+00  0.00000000000E+00  0.23100179490E+04  0.23100179490E+04  0.00000000000E+00 0. -1.
         -1   -1    0    0    0  501 -0.00000000000E+00 -0.00000000000E+00 -0.10719542217E+04  0.10719542217E+04  0.00000000000E+00 0.  1.
         23    2    1    2    0    0 -0.12043742994E+04  0.98780430606E+03  0.84939917316E+03  0.17765641430E+04  0.91795417994E+02 0.  0.
         13    1    3    3    0    0 -0.29967061836E+03  0.20440663904E+03  0.22276494327E+03  0.42568623837E+03  0.00000000000E+00 0.  1.
        -13    1    3    3    0    0 -0.90470368099E+03  0.78339766702E+03  0.62663422989E+03  0.13508779046E+04  0.00000000000E+00 0. -1.
         22    1    1    2    0    0  0.12043742994E+04 -0.98780430606E+03  0.38866455414E+03  0.16054080278E+04  0.00000000000E+00 0. -1.
<mgrwt>
<rscale>  0 0.31472105E+04</rscale>
<asrwt>0</asrwt>
<pdfrwt beam="1">  1        1 0.35538738E+00 0.31472105E+04</pdfrwt>
<pdfrwt beam="2">  1       -1 0.16491603E+00 0.31472105E+04</pdfrwt>
<totfact> 0.41312217E-01</totfact>
</mgrwt>
</event>
<event>
 6    1  0.1773638E-005  0.2843846E+04  0.7818608E-02  0.8289784E-01
         -1   -1    0    0    0  501 -0.00000000000E+00  0.00000000000E+00  0.14905491288E+04  0.14905491288E+04  0.00000000000E+00 0.  1.
          1   -1    0    0  501    0  0.00000000000E+00 -0.00000000000E+00 -0.13564562102E+04  0.13564562102E+04  0.00000000000E+00 0. -1.
         23    2    1    2    0    0  0.31507316246E+03 -0.71747049693E+03  0.12532458602E+04  0.14807922084E+04  0.89918666830E+02 0.  0.
         11    1    3    3    0    0  0.21051880735E+03 -0.53927270108E+03  0.86214736323E+03  0.10384754645E+04  0.00000000000E+00 0.  1.
        -11    1    3    3    0    0  0.10455435511E+03 -0.17819779585E+03  0.39109849699E+03  0.44231674394E+03  0.00000000000E+00 0. -1.
         22    1    1    2    0    0 -0.31507316246E+03  0.71747049693E+03 -0.11191529416E+04  0.13662131306E+04  0.00000000000E+00 0. -1.
<mgrwt>
<rscale>  0 0.28438457E+04</rscale>
<asrwt>0</asrwt>
<pdfrwt beam="1">  1        1 0.20868557E+00 0.28438457E+04</pdfrwt>
<pdfrwt beam="2">  1       -1 0.22931525E+00 0.28438457E+04</pdfrwt>
<totfact> 0.67840751E-01</totfact>
</mgrwt>
</event>
<event>
 6    1  0.1773638E-005  0.1665241E+04  0.7818608E-02  0.8781441E-01
         -2   -1    0    0    0  501 -0.00000000000E+00  0.00000000000E+00  0.11022389554E+04  0.11022389554E+04  0.00000000000E+00 0.  1.
          2   -1    0    0  501    0  0.00000000000E+00 -0.00000000000E+00 -0.62895354529E+03  0.62895354529E+03  0.00000000000E+00 0. -1.
         23    2    1    2    0    0 -0.57753163978E+03 -0.35992004533E+02 -0.38309335367E+03  0.69764385338E+03  0.71471737026E+02 0.  0.
         13    1    3    3    0    0 -0.89067734777E+02 -0.18507847246E+00 -0.91237552057E+02  0.12750445693E+03  0.00000000000E+00 0. -1.
        -13    1    3    3    0    0 -0.48846390500E+03 -0.35806926061E+02 -0.29185580162E+03  0.57013939645E+03  0.00000000000E+00 0.  1.
         22    1    1    2    0    0  0.57753163978E+03  0.35992004533E+02  0.85637876382E+03  0.10335486474E+04  0.00000000000E+00 0.  1.
<mgrwt>
<rscale>  0 0.16652412E+04</rscale>
<asrwt>0</asrwt>
<pdfrwt beam="1">  1        2 0.96762084E-01 0.16652412E+04</pdfrwt>
<pdfrwt beam="2">  1       -2 0.16957522E+00 0.16652412E+04</pdfrwt>
<totfact> 0.95808722E+00</totfact>
</mgrwt>
</event>
<event>
 6    1  0.1773638E-005  0.2360489E+04  0.7818608E-02  0.8454446E-01
          2   -1    0    0  501    0  0.00000000000E+00  0.00000000000E+00  0.11168003614E+04  0.11168003614E+04  0.00000000000E+00 0. -1.
         -2   -1    0    0    0  501 -0.00000000000E+00 -0.00000000000E+00 -0.12472925397E+04  0.12472925397E+04  0.00000000000E+00 0.  1.
         23    2    1    2    0    0  0.35611579388E+03  0.47625910084E+03 -0.10843720415E+04  0.12400252948E+04  0.90326173393E+02 0.  0.
         11    1    3    3    0    0  0.31040408653E+03  0.36278769736E+03 -0.82370043920E+03  0.95207563976E+03  0.00000000000E+00 0. -1.
        -11    1    3    3    0    0  0.45711707354E+02  0.11347140347E+03 -0.26067160234E+03  0.28794965508E+03  0.00000000000E+00 0.  1.
         22    1    1    2    0    0 -0.35611579388E+03 -0.47625910084E+03  0.95387986327E+03  0.11240676062E+04  0.00000000000E+00 0. -1.
<mgrwt>
<rscale>  0 0.23604887E+04</rscale>
<asrwt>0</asrwt>
<pdfrwt beam="1">  1        2 0.17181544E+00 0.23604887E+04</pdfrwt>
<pdfrwt beam="2">  1       -2 0.19189116E+00 0.23604887E+04</pdfrwt>
<totfact> 0.28888613E+00</totfact>
</mgrwt>
</event>
<event>
 6    1  0.1800975E-005  0.4924411E+04  0.7818608E-02  0.7840274E-01
          1   -1    0    0  501    0  0.00000000000E+00  0.00000000000E+00  0.22435576370E+04  0.22435576370E+04  0.00000000000E+00 0. -1.
         -1   -1    0    0    0  501 -0.00000000000E+00 -0.00000000000E+00 -0.27021620669E+04  0.27021620669E+04  0.00000000000E+00 0.  1.
         23    2    1    2    0    0  0.14941377577E+03 -0.19769982751E+04  0.12354673983E+04  0.23378995384E+04  0.92454871496E+02 0.  0.
         11    1    3    3    0    0  0.65801904254E+02 -0.63427409694E+03  0.35134651805E+03  0.72806448643E+03  0.00000000000E+00 0.  1.
        -11    1    3    3    0    0  0.83611871518E+02 -0.13427241782E+04  0.88412088022E+03  0.16098350520E+04  0.00000000000E+00 0. -1.
         22    1    1    2    0    0 -0.14941377577E+03  0.19769982751E+04 -0.16940718283E+04  0.26078201655E+04  0.00000000000E+00 0.  1.
<mgrwt>
<rscale>  0 0.49244112E+04</rscale>
<asrwt>0</asrwt>
<pdfrwt beam="1">  1        1 0.34516271E+00 0.49244112E+04</pdfrwt>
<pdfrwt beam="2">  1       -1 0.41571724E+00 0.49244112E+04</pdfrwt>
<totfact> 0.82507382E-03</totfact>
</mgrwt>
</event>
<event>
 6    1  0.2571341E-005  0.1656769E+04  0.7818608E-02  0.8786412E-01
          1   -1    0    0  501    0  0.00000000000E+00  0.00000000000E+00  0.69873298630E+03  0.69873298630E+03  0.00000000000E+00 0. -1.
         -1   -1    0    0    0  501 -0.00000000000E+00 -0.00000000000E+00 -0.98209352079E+03  0.98209352079E+03  0.00000000000E+00 0.  1.
         23    2    1    2    0    0  0.31064978325E+02  0.60194441184E+03  0.43239577811E+03  0.74508658230E+03  0.69898486232E+02 0.  0.
         13    1    3    3    0    0 -0.11119296671E+02  0.39310303889E+03  0.29428458480E+03  0.49117924915E+03  0.00000000000E+00 0. -1.
        -13    1    3    3    0    0  0.42184274996E+02  0.20884137295E+03  0.13811119331E+03  0.25390733316E+03  0.00000000000E+00 0.  1.
         22    1    1    2    0    0 -0.31064978325E+02 -0.60194441184E+03 -0.71575631260E+03  0.93573992479E+03  0.00000000000E+00 0.  1.
<mgrwt>
<rscale>  0 0.16567693E+04</rscale>
<asrwt>0</asrwt>
<pdfrwt beam="1">  1        1 0.10749738E+00 0.16567693E+04</pdfrwt>
<pdfrwt beam="2">  1       -1 0.15109131E+00 0.16567693E+04</pdfrwt>
<totfact> 0.89271611E+00</totfact>
</mgrwt>
</event>
<event>
 6    1  0.1773638E-005  0.3198528E+04  0.7818608E-02  0.8189206E-01
          2   -1    0    0  501    0  0.00000000000E+00  0.00000000000E+00  0.28792484297E+04  0.28792484297E+04  0.00000000000E+00 0.  1.
         -2   -1    0    0    0  501 -0.00000000000E+00 -0.00000000000E+00 -0.88830287300E+03  0.88830287300E+03  0.00000000000E+00 0. -1.
         23    2    1    2    0    0 -0.12676723246E+04  0.68534266461E+03  0.18291542842E+03  0.14554828272E+04  0.91019315213E+02 0.  0.
         11    1    3    3    0    0 -0.83097733294E+03  0.44790144357E+03  0.16331365664E+03  0.95802420713E+03  0.00000000000E+00 0. -1.
        -11    1    3    3    0    0 -0.43669499170E+03  0.23744122104E+03  0.19601771781E+02  0.49745862007E+03  0.00000000000E+00 0.  1.
         22    1    1    2    0    0  0.12676723246E+04 -0.68534266461E+03  0.18080301282E+04  0.23120684755E+04  0.00000000000E+00 0.  1.
<mgrwt>
<rscale>  0 0.31985276E+04</rscale>
<asrwt>0</asrwt>
<pdfrwt beam="1">  1        2 0.44296129E+00 0.31985276E+04</pdfrwt>
<pdfrwt beam="2">  1       -2 0.13666198E+00 0.31985276E+04</pdfrwt>
<totfact> 0.66581209E-01</totfact>
</mgrwt>
</event>
<event>
 6    1  0.1773638E-005  0.1804166E+04  0.7818608E-02  0.8704087E-01
          2   -1    0    0  501    0  0.00000000000E+00  0.00000000000E+00  0.79750863809E+03  0.79750863809E+03  0.00000000000E+00 0. -1.
         -2   -1    0    0    0  501 -0.00000000000E+00 -0.00000000000E+00 -0.10203693853E+04  0.10203693853E+04  0.00000000000E+00 0.  1.
         23    2    1    2    0    0  0.46070457059E+03 -0.13767984853E+03  0.65466121855E+03  0.81725359712E+03  0.90098217924E+02 0.  0.
         13    1    3    3    0    0  0.16264492721E+03 -0.44544977708E+01  0.21421276039E+03  0.26899873905E+03  0.00000000000E+00 0. -1.
        -13    1    3    3    0    0  0.29805964338E+03 -0.13322535075E+03  0.44044845816E+03  0.54825485807E+03  0.00000000000E+00 0.  1.
         22    1    1    2    0    0 -0.46070457059E+03  0.13767984853E+03 -0.87752196577E+03  0.10006244263E+04  0.00000000000E+00 0.  1.
<mgrwt>
<rscale>  0 0.18041656E+04</rscale>
<asrwt>0</asrwt>
<pdfrwt beam="1">  1        2 0.12269364E+00 0.18041656E+04</pdfrwt>
<pdfrwt beam="2">  1       -2 0.15697990E+00 0.18041656E+04</pdfrwt>
<totfact> 0.86558188E+00</totfact>
</mgrwt>
</event>
<event>
 6    1  0.1773638E-005  0.1536467E+04  0.7818608E-02  0.8860558E-01
          2   -1    0    0  501    0  0.00000000000E+00  0.00000000000E+00  0.54209055986E+03  0.54209055986E+03  0.00000000000E+00 0. -1.
         -2   -1    0    0    0  501 -0.00000000000E+00 -0.00000000000E+00 -0.10887164440E+04  0.10887164440E+04  0.00000000000E+00 0.  1.
         23    2    1    2    0    0  0.54520318724E+02  0.17581287845E+03  0.51430967699E+03  0.55402155714E+03  0.92427314903E+02 0.  0.
         11    1    3    3    0    0  0.11049921146E+02  0.62702362565E+02  0.31007598681E+03  0.31654510677E+03  0.00000000000E+00 0. -1.
        -11    1    3    3    0    0  0.43470397578E+02  0.11311051589E+03  0.20423369019E+03  0.23747645037E+03  0.00000000000E+00 0.  1.
         22    1    1    2    0    0 -0.54520318724E+02 -0.17581287845E+03 -0.10609355611E+04  0.10767854467E+04  0.00000000000E+00 0.  1.
<mgrwt>
<rscale>  0 0.15364673E+04</rscale>
<asrwt>0</asrwt>
<pdfrwt beam="1">  1        2 0.83398549E-01 0.15364673E+04</pdfrwt>
<pdfrwt beam="2">  1       -2 0.16749484E+00 0.15364673E+04</pdfrwt>
<totfact> 0.11974232E+01</totfact>
</mgrwt>
</event>
<event>
 6    1  0.1773638E-005  0.4464330E+04  0.7818608E-02  0.7916911E-01
          2   -1    0    0  501    0  0.00000000000E+00  0.00000000000E+00  0.31932700281E+04  0.31932700281E+04  0.00000000000E+00 0. -1.
         -2   -1    0    0    0  501 -0.00000000000E+00 -0.00000000000E+00 -0.15603319829E+04  0.15603319829E+04  0.00000000000E+00 0.  1.
         23    2    1    2    0    0 -0.19673114165E+04 -0.10207233279E+04  0.54280597825E+03  0.22836671445E+04  0.91142610063E+02 0.  0.
         11    1    3    3    0    0 -0.11623705947E+04 -0.63389161244E+03  0.36050590506E+03  0.13721838373E+04  0.00000000000E+00 0. -1.
        -11    1    3    3    0    0 -0.80494082180E+03 -0.38683171548E+03  0.18230007319E+03  0.91148330724E+03  0.00000000000E+00 0.  1.
         22    1    1    2    0    0  0.19673114165E+04  0.10207233279E+04  0.10901320669E+04  0.24699348665E+04  0.00000000000E+00 0.  1.
<mgrwt>
<rscale>  0 0.44643303E+04</rscale>
<asrwt>0</asrwt>
<pdfrwt beam="1">  1        2 0.49127231E+00 0.44643303E+04</pdfrwt>
<pdfrwt beam="2">  1       -2 0.24005108E+00 0.44643303E+04</pdfrwt>
<totfact> 0.73611234E-02</totfact>
</mgrwt>
</event>
<event>
 6    1  0.1773638E-005  0.4239821E+04  0.7818608E-02  0.7957840E-01
          2   -1    0    0  501    0  0.00000000000E+00  0.00000000000E+00  0.32334299175E+04  0.32334299175E+04  0.00000000000E+00 0. -1.
         -2   -1    0    0    0  501 -0.00000000000E+00 -0.00000000000E+00 -0.13898614777E+04  0.13898614777E+04  0.00000000000E+00 0.  1.
         23    2    1    2    0    0  0.17801174508E+04 -0.24187441604E+03  0.21475027993E+04  0.28012876997E+04  0.90128418797E+02 0.  0.
         11    1    3    3    0    0  0.53099032828E+03 -0.10607700177E+03  0.68458912109E+03  0.87284896961E+03  0.00000000000E+00 0. -1.
        -11    1    3    3    0    0  0.12491271225E+04 -0.13579741427E+03  0.14629136782E+04  0.19284387301E+04  0.00000000000E+00 0.  1.
         22    1    1    2    0    0 -0.17801174508E+04  0.24187441604E+03 -0.30393435948E+03  0.18220036955E+04  0.00000000000E+00 0.  1.
<mgrwt>
<rscale>  0 0.42398206E+04</rscale>
<asrwt>0</asrwt>
<pdfrwt beam="1">  1        2 0.49745076E+00 0.42398206E+04</pdfrwt>
<pdfrwt beam="2">  1       -2 0.21382484E+00 0.42398206E+04</pdfrwt>
<totfact> 0.10312363E-01</totfact>
</mgrwt>
</event>
<event>
 6    1  0.1773638E-005  0.2791066E+04  0.7818608E-02  0.8306047E-01
          2   -1    0    0  501    0  0.00000000000E+00  0.00000000000E+00  0.23040956527E+04  0.23040956527E+04  0.00000000000E+00 0. -1.
         -2   -1    0    0    0  501 -0.00000000000E+00 -0.00000000000E+00 -0.84523938260E+03  0.84523938260E+03  0.00000000000E+00 0.  1.
         23    2    1    2    0    0  0.37357465422E+03 -0.11734077384E+04 -0.71217708406E+01  0.12347762456E+04  0.90431820723E+02 0.  0.
         11    1    3    3    0    0  0.21466499408E+03 -0.78951436818E+03 -0.29296585798E+02  0.81870158616E+03  0.00000000000E+00 0.  1.
        -11    1    3    3    0    0  0.15890966014E+03 -0.38389337022E+03  0.22174814957E+02  0.41607465941E+03  0.00000000000E+00 0. -1.
         22    1    1    2    0    0 -0.37357465422E+03  0.11734077384E+04  0.14659780409E+04  0.19145587897E+04  0.00000000000E+00 0. -1.
<mgrwt>
<rscale>  0 0.27910660E+04</rscale>
<asrwt>0</asrwt>
<pdfrwt beam="1">  1        2 0.35447625E+00 0.27910660E+04</pdfrwt>
<pdfrwt beam="2">  1       -2 0.13003683E+00 0.27910660E+04</pdfrwt>
<totfact> 0.17039661E+00</totfact>
</mgrwt>
</event>
<event>
 6    1  0.1773638E-005  0.2916839E+04  0.7818608E-02  0.8267885E-01
         -2   -1    0    0    0  501 -0.00000000000E+00  0.00000000000E+00  0.95992117693E+03  0.95992117693E+03  0.00000000000E+00 0.  1.
          2   -1    0    0  501    0  0.00000000000E+00 -0.00000000000E+00 -0.22157937689E+04  0.22157937689E+04  0.00000000000E+00 0. -1.
         23    2    1    2    0    0  0.62465554280E+03  0.62559686474E+03  0.63243036738E+03  0.10907079793E+04  0.90054106790E+02 0.  0.
         13    1    3    3    0    0  0.42462738235E+03  0.47092600020E+03  0.42128094838E+03  0.76128664048E+03  0.00000000000E+00 0.  1.
        -13    1    3    3    0    0  0.20002816045E+03  0.15467086454E+03  0.21114941900E+03  0.32942133879E+03  0.00000000000E+00 0. -1.
         22    1    1    2    0    0 -0.62465554280E+03 -0.62559686474E+03 -0.18883029593E+04  0.20850069665E+04  0.00000000000E+00 0. -1.
<mgrwt>
<rscale>  0 0.29168389E+04</rscale>
<asrwt>0</asrwt>
<pdfrwt beam="1">  1        2 0.34089135E+00 0.29168389E+04</pdfrwt>
<pdfrwt beam="2">  1       -2 0.14768018E+00 0.29168389E+04</pdfrwt>
<totfact> 0.13614157E+00</totfact>
</mgrwt>
</event>
<event>
 6    1  0.1773638E-005  0.1241143E+04  0.7818608E-02  0.9077587E-01
          1   -1    0    0  501    0  0.00000000000E+00  0.00000000000E+00  0.68921548590E+03  0.68921548590E+03  0.00000000000E+00 0. -1.
         -1   -1    0    0    0  501 -0.00000000000E+00 -0.00000000000E+00 -0.55876449511E+03  0.55876449511E+03  0.00000000000E+00 0.  1.
         23    2    1    2    0    0 -0.46040459467E+03 -0.25276712023E+03  0.39158079566E+03  0.66142019476E+03  0.90981023532E+02 0.  0.
         11    1    3    3    0    0 -0.12261929850E+03 -0.26353817430E+02  0.10973384185E+03  0.16664792860E+03  0.00000000000E+00 0.  1.
        -11    1    3    3    0    0 -0.33778529617E+03 -0.22641330280E+03  0.28184695381E+03  0.49477226616E+03  0.00000000000E+00 0. -1.
         22    1    1    2    0    0  0.46040459467E+03  0.25276712023E+03 -0.26112980488E+03  0.58655978626E+03  0.00000000000E+00 0.  1.
<mgrwt>
<rscale>  0 0.12411433E+04</rscale>
<asrwt>0</asrwt>
<pdfrwt beam="1">  1        1 0.10603315E+00 0.12411433E+04</pdfrwt>
<pdfrwt beam="2">  1       -1 0.85963768E-01 0.12411433E+04</pdfrwt>
<totfact> 0.36791621E+01</totfact>
</mgrwt>
</event>
<event>
 6    1  0.1773638E-005  0.4044046E+04  0.7818608E-02  0.7995720E-01
          1   -1    0    0  501    0  0.00000000000E+00  0.00000000000E+00  0.36434444336E+04  0.36434444336E+04  0.00000000000E+00 0. -1.
         -1   -1    0    0    0  501 -0.00000000000E+00 -0.00000000000E+00 -0.11221733914E+04  0.11221733914E+04  0.00000000000E+00 0.  1.
         23    2    1    2    0    0  0.19610363897E+04  0.48577729017E+03  0.13042770105E+04  0.24070763752E+04  0.10599461662E+03 0.  0.
         13    1    3    3    0    0  0.11779925117E+04  0.25746605366E+03  0.73031215160E+03  0.14097201726E+04  0.00000000000E+00 0. -1.
        -13    1    3    3    0    0  0.78304387800E+03  0.22831123651E+03  0.57396485894E+03  0.99735620261E+03  0.00000000000E+00 0.  1.
         22    1    1    2    0    0 -0.19610363897E+04 -0.48577729017E+03  0.12169940316E+04  0.23585414497E+04  0.00000000000E+00 0.  1.
<mgrwt>
<rscale>  0 0.40440457E+04</rscale>
<asrwt>0</asrwt>
<pdfrwt beam="1">  1        1 0.56052991E+00 0.40440457E+04</pdfrwt>
<pdfrwt beam="2">  1       -1 0.17264206E+00 0.40440457E+04</pdfrwt>
<totfact> 0.35142350E-02</totfact>
</mgrwt>
</event>
<event>
 6    1  0.1773638E-005  0.3382768E+04  0.7818608E-02  0.8142149E-01
         -2   -1    0    0    0  501 -0.00000000000E+00  0.00000000000E+00  0.87170859594E+03  0.87170859594E+03  0.00000000000E+00 0.  1.
          2   -1    0    0  501    0  0.00000000000E+00 -0.00000000000E+00 -0.32818082601E+04  0.32818082601E+04  0.00000000000E+00 0. -1.
         23    2    1    2    0    0 -0.91719904892E+03  0.11640698093E+04 -0.20820445838E+03  0.14993399377E+04  0.91425029757E+02 0.  0.
         13    1    3    3    0    0 -0.22973759565E+03  0.33006068948E+03 -0.89841832521E+02  0.41205700633E+03  0.00000000000E+00 0. -1.
        -13    1    3    3    0    0 -0.68746145327E+03  0.83400911986E+03 -0.11836262586E+03  0.10872829314E+04  0.00000000000E+00 0.  1.
         22    1    1    2    0    0  0.91719904892E+03 -0.11640698093E+04 -0.22018952058E+04  0.26541769183E+04  0.00000000000E+00 0. -1.
<mgrwt>
<rscale>  0 0.33827684E+04</rscale>
<asrwt>0</asrwt>
<pdfrwt beam="1">  1        2 0.50489357E+00 0.33827684E+04</pdfrwt>
<pdfrwt beam="2">  1       -2 0.13410902E+00 0.33827684E+04</pdfrwt>
<totfact> 0.38082984E-01</totfact>
</mgrwt>
</event>
<event>
 6    1  0.1773638E-005  0.7504120E+03  0.7818608E-02  0.9634704E-01
          2   -1    0    0  501    0  0.00000000000E+00  0.00000000000E+00  0.78035552298E+03  0.78035552298E+03  0.00000000000E+00 0. -1.
         -2   -1    0    0    0  501 -0.00000000000E+00 -0.00000000000E+00 -0.18040435734E+03  0.18040435734E+03  0.00000000000E+00 0.  1.
         23    2    1    2    0    0 -0.19393302643E+02  0.23715842869E+03  0.66651577944E+03  0.71367473651E+03  0.92022414635E+02 0.  0.
         11    1    3    3    0    0 -0.54637675438E+02  0.16708939883E+03  0.43239159967E+03  0.46676186460E+03  0.00000000000E+00 0.  1.
        -11    1    3    3    0    0  0.35244372796E+02  0.70069029858E+02  0.23412417977E+03  0.24691287191E+03  0.00000000000E+00 0. -1.
         22    1    1    2    0    0  0.19393302643E+02 -0.23715842869E+03 -0.66564613796E+02  0.24708514382E+03  0.00000000000E+00 0.  1.
<mgrwt>
<rscale>  0 0.75041198E+03</rscale>
<asrwt>0</asrwt>
<pdfrwt beam="1">  1        2 0.12005469E+00 0.75041198E+03</pdfrwt>
<pdfrwt beam="2">  1       -2 0.27754517E-01 0.75041198E+03</pdfrwt>
<totfact> 0.42390210E+02</totfact>
</mgrwt>
</event>
<event>
 6    1  0.1773638E-005  0.3359297E+04  0.7818608E-02  0.8147969E-01
         -1   -1    0    0    0  501 -0.00000000000E+00  0.00000000000E+00  0.23001605413E+04  0.23001605413E+04  0.00000000000E+00 0.  1.
          1   -1    0    0  501    0  0.00000000000E+00 -0.00000000000E+00 -0.12265314878E+04  0.12265314878E+04  0.00000000000E+00 0. -1.
         23    2    1    2    0    0 -0.72571296948E+03 -0.14748550522E+04  0.89362613680E+03  0.18731329013E+04  0.90567404359E+02 0.  0.
         11    1    3    3    0    0 -0.41809988231E+03 -0.94843826168E+03  0.55872585323E+03  0.11775046611E+04  0.00000000000E+00 0.  1.
        -11    1    3    3    0    0 -0.30761308718E+03 -0.52641679049E+03  0.33490028357E+03  0.69562824026E+03  0.00000000000E+00 0. -1.
         22    1    1    2    0    0  0.72571296948E+03  0.14748550522E+04  0.18000291675E+03  0.16535591278E+04  0.00000000000E+00 0. -1.
<mgrwt>
<rscale>  0 0.33592971E+04</rscale>
<asrwt>0</asrwt>
<pdfrwt beam="1">  1        1 0.18869715E+00 0.33592971E+04</pdfrwt>
<pdfrwt beam="2">  1       -1 0.35387085E+00 0.33592971E+04</pdfrwt>
<totfact> 0.12349205E-01</totfact>
</mgrwt>
</event>
<event>
 6    1  0.1773638E-005  0.1323574E+04  0.7818608E-02  0.9011077E-01
         -2   -1    0    0    0  501 -0.00000000000E+00  0.00000000000E+00  0.33482226165E+03  0.33482226165E+03  0.00000000000E+00 0.  1.
          2   -1    0    0  501    0  0.00000000000E+00 -0.00000000000E+00 -0.13080440902E+04  0.13080440902E+04  0.00000000000E+00 0. -1.
         23    2    1    2    0    0 -0.14750101481E+03  0.58867060160E+03 -0.17030965438E+03  0.63640841136E+03  0.87867292604E+02 0.  0.
         11    1    3    3    0    0 -0.14483522587E+03  0.41585934857E+03 -0.12106649644E+03  0.45669829976E+03  0.00000000000E+00 0.  1.
        -11    1    3    3    0    0 -0.26657889415E+01  0.17281125303E+03 -0.49243157940E+02  0.17971011159E+03  0.00000000000E+00 0. -1.
         22    1    1    2    0    0  0.14750101481E+03 -0.58867060160E+03 -0.80291217418E+03  0.10064579405E+04  0.00000000000E+00 0. -1.
<mgrwt>
<rscale>  0 0.13235744E+04</rscale>
<asrwt>0</asrwt>
<pdfrwt beam="1">  1        2 0.20123755E+00 0.13235744E+04</pdfrwt>
<pdfrwt beam="2">  1       -2 0.51511118E-01 0.13235744E+04</pdfrwt>
<totfact> 0.56963823E+01</totfact>
</mgrwt>
</event>
<event>
 6    1  0.1773638E-005  0.5228837E+04  0.7818608E-02  0.7794145E-01
         -2   -1    0    0    0  501 -0.00000000000E+00  0.00000000000E+00  0.16858704647E+04  0.16858704647E+04  0.00000000000E+00 0.  1.
          2   -1    0    0  501    0  0.00000000000E+00 -0.00000000000E+00 -0.40543947414E+04  0.40543947414E+04  0.00000000000E+00 0. -1.
         23    2    1    2    0    0 -0.58842540702E+03 -0.77209027659E+03  0.14793559271E+04  0.17718209369E+04  0.92128272398E+02 0.  0.
         13    1    3    3    0    0 -0.37868031361E+03 -0.42520064379E+03  0.84009135849E+03  0.10148634677E+04  0.00000000000E+00 0.  1.
        -13    1    3    3    0    0 -0.20974509341E+03 -0.34688963279E+03  0.63926456865E+03  0.75695746927E+03  0.00000000000E+00 0. -1.
         22    1    1    2    0    0  0.58842540702E+03  0.77209027659E+03 -0.38478802039E+04  0.39684442692E+04  0.00000000000E+00 0. -1.
<mgrwt>
<rscale>  0 0.52288371E+04</rscale>
<asrwt>0</asrwt>
<pdfrwt beam="1">  1        2 0.62375304E+00 0.52288371E+04</pdfrwt>
<pdfrwt beam="2">  1       -2 0.25936469E+00 0.52288371E+04</pdfrwt>
<totfact> 0.12363928E-02</totfact>
</mgrwt>
</event>
<event>
 6    1  0.1773638E-005  0.4426587E+04  0.7818608E-02  0.7923617E-01
         -2   -1    0    0    0  501 -0.00000000000E+00  0.00000000000E+00  0.21735406980E+04  0.21735406980E+04  0.00000000000E+00 0.  1.
          2   -1    0    0  501    0  0.00000000000E+00 -0.00000000000E+00 -0.22537737458E+04  0.22537737458E+04  0.00000000000E+00 0. -1.
         23    2    1    2    0    0 -0.52747526854E+03  0.18560693178E+04  0.10420941629E+04  0.21950864449E+04  0.96024916550E+02 0.  0.
         11    1    3    3    0    0 -0.26968874503E+03  0.83570601971E+03  0.43267786032E+03  0.97895183813E+03  0.00000000000E+00 0. -1.
        -11    1    3    3    0    0 -0.25778652351E+03  0.10203632981E+04  0.60941630259E+03  0.12161346067E+04  0.00000000000E+00 0.  1.
         22    1    1    2    0    0  0.52747526854E+03 -0.18560693178E+04 -0.11223272107E+04  0.22322279990E+04  0.00000000000E+00 0. -1.
<mgrwt>
<rscale>  0 0.44265874E+04</rscale>
<asrwt>0</asrwt>
<pdfrwt beam="1">  1        2 0.34673443E+00 0.44265874E+04</pdfrwt>
<pdfrwt beam="2">  1       -2 0.33439087E+00 0.44265874E+04</pdfrwt>
<totfact> 0.71541598E-02</totfact>
</mgrwt>
</event>
<event>
 6    1  0.1773638E-005  0.7124022E+03  0.7818608E-02  0.9696255E-01
         -1   -1    0    0    0  501 -0.00000000000E+00  0.00000000000E+00  0.13938669895E+03  0.13938669895E+03  0.00000000000E+00 0.  1.
          1   -1    0    0  501    0  0.00000000000E+00 -0.00000000000E+00 -0.91026791909E+03  0.91026791909E+03  0.00000000000E+00 0. -1.
         23    2    1    2    0    0 -0.16627641887E+03  0.14969749926E+02 -0.84582551769E+03  0.86665574203E+03  0.88314369902E+02 0.  0.
         13    1    3    3    0    0 -0.11273633078E+03 -0.30621743552E+02 -0.58273182351E+03  0.59432613066E+03  0.00000000000E+00 0.  1.
        -13    1    3    3    0    0 -0.53540088088E+02  0.45591493478E+02 -0.26309369418E+03  0.27232961136E+03  0.00000000000E+00 0. -1.
         22    1    1    2    0    0  0.16627641887E+03 -0.14969749926E+02  0.74944297547E+02  0.18299887601E+03  0.00000000000E+00 0.  1.
<mgrwt>
<rscale>  0 0.71240225E+03</rscale>
<asrwt>0</asrwt>
<pdfrwt beam="1">  1        1 0.14004122E+00 0.71240225E+03</pdfrwt>
<pdfrwt beam="2">  1       -1 0.21444107E-01 0.71240225E+03</pdfrwt>
<totfact> 0.32836692E+02</totfact>
</mgrwt>
</event>
<event>
 6    1  0.1773638E-005  0.2159141E+04  0.7818608E-02  0.8535629E-01
         -2   -1    0    0    0  501 -0.00000000000E+00  0.00000000000E+00  0.52880774236E+03  0.52880774236E+03  0.00000000000E+00 0.  1.
          2   -1    0    0  501    0  0.00000000000E+00 -0.00000000000E+00 -0.22039630028E+04  0.22039630028E+04  0.00000000000E+00 0. -1.
         23    2    1    2    0    0 -0.51382898064E+02 -0.84497376389E+03  0.46280229133E+01  0.85173572611E+03  0.93869402134E+02 0.  0.
         11    1    3    3    0    0 -0.39155241673E+02 -0.55194923674E+03 -0.41327493613E+02  0.55487751316E+03  0.00000000000E+00 0. -1.
        -11    1    3    3    0    0 -0.12227656391E+02 -0.29302452715E+03  0.45955516527E+02  0.29685821294E+03  0.00000000000E+00 0.  1.
         22    1    1    2    0    0  0.51382898064E+02  0.84497376389E+03 -0.16797832834E+04  0.18810350191E+04  0.00000000000E+00 0. -1.
<mgrwt>
<rscale>  0 0.21591412E+04</rscale>
<asrwt>0</asrwt>
<pdfrwt beam="1">  1        2 0.33907123E+00 0.21591412E+04</pdfrwt>
<pdfrwt beam="2">  1       -2 0.81355038E-01 0.21591412E+04</pdfrwt>
<totfact> 0.62700295E+00</totfact>
</mgrwt>
</event>
<event>
 6    1  0.1773638E-005  0.1599090E+04  0.7818608E-02  0.8821107E-01
         -2   -1    0    0    0  501 -0.00000000000E+00  0.00000000000E+00  0.26527432830E+03  0.26527432830E+03  0.00000000000E+00 0.  1.
          2   -1    0    0  501    0  0.00000000000E+00 -0.00000000000E+00 -0.24098529466E+04  0.24098529466E+04  0.00000000000E+00 0. -1.
         23    2    1    2    0    0 -0.23787521804E+03 -0.44168994485E+03 -0.21117281525E+04  0.21723810368E+04  0.90382258185E+02 0.  0.
         13    1    3    3    0    0 -0.11161309238E+03 -0.22047406645E+03 -0.84966922849E+03  0.88487518567E+03  0.00000000000E+00 0.  1.
        -13    1    3    3    0    0 -0.12626212566E+03 -0.22121587840E+03 -0.12620589240E+04  0.12875058512E+04  0.00000000000E+00 0. -1.
         22    1    1    2    0    0  0.23787521804E+03  0.44168994485E+03 -0.32850465794E+02  0.50274623801E+03  0.00000000000E+00 0.  1.
<mgrwt>
<rscale>  0 0.15990899E+04</rscale>
<asrwt>0</asrwt>
<pdfrwt beam="1">  1        2 0.37074660E+00 0.15990899E+04</pdfrwt>
<pdfrwt beam="2">  1       -2 0.40811436E-01 0.15990899E+04</pdfrwt>
<totfact> 0.21431427E+01</totfact>
</mgrwt>
</event>
<event>
 6    1  0.1773638E-005  0.2228288E+04  0.7818608E-02  0.8506745E-01
         -2   -1    0    0    0  501 -0.00000000000E+00  0.00000000000E+00  0.17905739690E+04  0.17905739690E+04  0.00000000000E+00 0.  1.
          2   -1    0    0  501    0  0.00000000000E+00 -0.00000000000E+00 -0.69325110916E+03  0.69325110916E+03  0.00000000000E+00 0. -1.
         23    2    1    2    0    0  0.13711094816E+03  0.69515628716E+03 -0.40612565047E+03  0.82177841850E+03  0.91323871265E+02 0.  0.
         13    1    3    3    0    0  0.10527456425E+03  0.42498451873E+03 -0.29487132008E+03  0.52786709544E+03  0.00000000000E+00 0. -1.
        -13    1    3    3    0    0  0.31836383916E+02  0.27017176843E+03 -0.11125433039E+03  0.29391132307E+03  0.00000000000E+00 0.  1.
         22    1    1    2    0    0 -0.13711094816E+03 -0.69515628716E+03  0.15034485103E+04  0.16620466596E+04  0.00000000000E+00 0.  1.
<mgrwt>
<rscale>  0 0.22282885E+04</rscale>
<asrwt>0</asrwt>
<pdfrwt beam="1">  1        2 0.10665402E+00 0.22282885E+04</pdfrwt>
<pdfrwt beam="2">  1       -2 0.27547292E+00 0.22282885E+04</pdfrwt>
<totfact> 0.16977049E+00</totfact>
</mgrwt>
</event>
<event>
 6    1  0.1773638E-005  0.2519683E+04  0.7818608E-02  0.8396007E-01
          1   -1    0    0  501    0  0.00000000000E+00  0.00000000000E+00  0.15761942256E+04  0.15761942256E+04  0.00000000000E+00 0. -1.
         -1   -1    0    0    0  501 -0.00000000000E+00 -0.00000000000E+00 -0.10069830931E+04  0.10069830931E+04  0.00000000000E+00 0.  1.
         23    2    1    2    0    0  0.49848209587E+03  0.11427902044E+04  0.11181934577E+03  0.12551482912E+04  0.91868468487E+02 0.  0.
         13    1    3    3    0    0  0.16628763288E+03  0.35598162422E+03  0.76988154941E+02  0.40037690947E+03  0.00000000000E+00 0.  1.
        -13    1    3    3    0    0  0.33219446299E+03  0.78680858022E+03  0.34831190831E+02  0.85477138172E+03  0.00000000000E+00 0. -1.
         22    1    1    2    0    0 -0.49848209587E+03 -0.11427902044E+04  0.45739178668E+03  0.13280290275E+04  0.00000000000E+00 0. -1.
<mgrwt>
<rscale>  0 0.25196833E+04</rscale>
<asrwt>0</asrwt>
<pdfrwt beam="1">  1        1 0.24249142E+00 0.25196833E+04</pdfrwt>
<pdfrwt beam="2">  1       -1 0.15492048E+00 0.25196833E+04</pdfrwt>
<totfact> 0.16424014E+00</totfact>
</mgrwt>
</event>
<event>
 6    1  0.1773638E-005  0.2493624E+04  0.7818608E-02  0.8405260E-01
         -2   -1    0    0    0  501 -0.00000000000E+00  0.00000000000E+00  0.13608348406E+04  0.13608348406E+04  0.00000000000E+00 0.  1.
          2   -1    0    0  501    0  0.00000000000E+00 -0.00000000000E+00 -0.11423434602E+04  0.11423434602E+04  0.00000000000E+00 0. -1.
         23    2    1    2    0    0 -0.83803803050E+03  0.88057805242E+03  0.38068211803E+03  0.12767887696E+04  0.86863342006E+02 0.  0.
         13    1    3    3    0    0 -0.46820781233E+03  0.51848670622E+03  0.17783703742E+03  0.72088350788E+03  0.00000000000E+00 0. -1.
        -13    1    3    3    0    0 -0.36983021817E+03  0.36209134620E+03  0.20284508062E+03  0.55590526171E+03  0.00000000000E+00 0.  1.
         22    1    1    2    0    0  0.83803803050E+03 -0.88057805242E+03 -0.16219073765E+03  0.12263895312E+04  0.00000000000E+00 0. -1.
<mgrwt>
<rscale>  0 0.24936245E+04</rscale>
<asrwt>0</asrwt>
<pdfrwt beam="1">  1        2 0.17574515E+00 0.24936245E+04</pdfrwt>
<pdfrwt beam="2">  1       -2 0.20935921E+00 0.24936245E+04</pdfrwt>
<totfact> 0.21167590E+00</totfact>
</mgrwt>
</event>
<event>
 6    1  0.1773638E-005  0.6498388E+04  0.7818608E-02  0.7631502E-01
          2   -1    0    0  501    0  0.00000000000E+00  0.00000000000E+00  0.36935152881E+04  0.36935152881E+04  0.00000000000E+00 0. -1.
         -2   -1    0    0    0  501 -0.00000000000E+00 -0.00000000000E+00 -0.28583234328E+04  0.28583234328E+04  0.00000000000E+00 0.  1.
         23    2    1    2    0    0 -0.46435535350E+03 -0.19183509690E+04  0.30190882491E+04  0.36081845645E+04  0.91682393562E+02 0.  0.
         13    1    3    3    0    0 -0.15580746598E+03 -0.79426845669E+03  0.11865564444E+04  0.14363337160E+04  0.00000000000E+00 0.  1.
        -13    1    3    3    0    0 -0.30854788751E+03 -0.11240825123E+04  0.18325318046E+04  0.21718508485E+04  0.00000000000E+00 0. -1.
         22    1    1    2    0    0  0.46435535350E+03  0.19183509690E+04 -0.21838963937E+04  0.29436541565E+04  0.00000000000E+00 0.  1.
<mgrwt>
<rscale>  0 0.64983879E+04</rscale>
<asrwt>0</asrwt>
<pdfrwt beam="1">  1        2 0.56823312E+00 0.64983879E+04</pdfrwt>
<pdfrwt beam="2">  1       -2 0.43974206E+00 0.64983879E+04</pdfrwt>
<totfact> 0.15533408E-03</totfact>
</mgrwt>
</event>
<event>
 6    1  0.1773638E-005  0.7114617E+03  0.7818608E-02  0.9697829E-01
         -2   -1    0    0    0  501 -0.00000000000E+00  0.00000000000E+00  0.10508347240E+04  0.10508347240E+04  0.00000000000E+00 0.  1.
          2   -1    0    0  501    0  0.00000000000E+00 -0.00000000000E+00 -0.12042278104E+03  0.12042278104E+03  0.00000000000E+00 0. -1.
         23    2    1    2    0    0 -0.26310990768E+03  0.13994239778E+03  0.77476055501E+03  0.83504618344E+03  0.90760744039E+02 0.  0.
         11    1    3    3    0    0 -0.43833083393E+02  0.35087688299E+02  0.25716273583E+03  0.26322073963E+03  0.00000000000E+00 0.  1.
        -11    1    3    3    0    0 -0.21927682429E+03  0.10485470948E+03  0.51759781918E+03  0.57182544381E+03  0.00000000000E+00 0. -1.
         22    1    1    2    0    0  0.26310990768E+03 -0.13994239778E+03  0.15565138799E+03  0.33621132164E+03  0.00000000000E+00 0. -1.
<mgrwt>
<rscale>  0 0.71146171E+03</rscale>
<asrwt>0</asrwt>
<pdfrwt beam="1">  1        2 0.18526582E-01 0.71146171E+03</pdfrwt>
<pdfrwt beam="2">  1       -2 0.16166687E+00 0.71146171E+03</pdfrwt>
<totfact> 0.77225088E+01</totfact>
</mgrwt>
</event>
<event>
 6    1  0.1773638E-005  0.5850372E+03  0.7818608E-02  0.9936945E-01
          2   -1    0    0  501    0  0.00000000000E+00  0.00000000000E+00  0.13500784303E+04  0.13500784303E+04  0.00000000000E+00 0. -1.
         -2   -1    0    0    0  501 -0.00000000000E+00 -0.00000000000E+00 -0.63379375132E+02  0.63379375132E+02  0.00000000000E+00 0.  1.
         23    2    1    2    0    0  0.55534273475E+02  0.16646743637E+03  0.12030106782E+04  0.12190376230E+04  0.89568808237E+02 0.  0.
         11    1    3    3    0    0 -0.12202971502E+02  0.10434799494E+03  0.65606241692E+03  0.66442103478E+03  0.00000000000E+00 0. -1.
        -11    1    3    3    0    0  0.67737244977E+02  0.62119441432E+02  0.54694826131E+03  0.55461658820E+03  0.00000000000E+00 0.  1.
         22    1    1    2    0    0 -0.55534273475E+02 -0.16646743637E+03  0.83688376912E+02  0.19442018242E+03  0.00000000000E+00 0.  1.
<mgrwt>
<rscale>  0 0.58503719E+03</rscale>
<asrwt>0</asrwt>
<pdfrwt beam="1">  1        2 0.20770435E+00 0.58503719E+03</pdfrwt>
<pdfrwt beam="2">  1       -2 0.97506741E-02 0.58503719E+03</pdfrwt>
<totfact> 0.11225837E+03</totfact>
</mgrwt>
</event>
<event>
 6    1  0.1773638E-005  0.1320751E+04  0.7818608E-02  0.9013269E-01
         -3   -1    0    0    0  501 -0.00000000000E+00  0.00000000000E+00  0.85569442119E+03  0.85569442119E+03  0.00000000000E+00 0.  1.
          3   -1    0    0  501    0  0.00000000000E+00 -0.00000000000E+00 -0.50963989441E+03  0.50963989441E+03  0.00000000000E+00 0. -1.
         23    2    1    2    0    0 -0.30471620039E+03 -0.10490404121E+03  0.76603780503E+03  0.83595470262E+03  0.90274722094E+02 0.  0.
         11    1    3    3    0    0 -0.13342013507E+03 -0.43573185372E+01  0.25846240292E+03  0.29089986660E+03  0.00000000000E+00 0. -1.
        -11    1    3    3    0    0 -0.17129606532E+03 -0.10054672267E+03  0.50757540211E+03  0.54505483602E+03  0.00000000000E+00 0.  1.
         22    1    1    2    0    0  0.30471620039E+03  0.10490404121E+03 -0.41998327825E+03  0.52937961299E+03  0.00000000000E+00 0. -1.
<mgrwt>
<rscale>  0 0.13207513E+04</rscale>
<asrwt>0</asrwt>
<pdfrwt beam="1">  1        3 0.78406138E-01 0.13207513E+04</pdfrwt>
<pdfrwt beam="2">  1       -3 0.13164530E+00 0.13207513E+04</pdfrwt>
<totfact> 0.17552395E+00</totfact>
</mgrwt>
</event>
<event>
 6    1  0.2327854E-005  0.2559509E+04  0.7818608E-02  0.8382086E-01
          1   -1    0    0  501    0  0.00000000000E+00  0.00000000000E+00  0.19135653557E+04  0.19135653557E+04  0.00000000000E+00 0. -1.
         -1   -1    0    0    0  501 -0.00000000000E+00 -0.00000000000E+00 -0.85587461075E+03  0.85587461075E+03  0.00000000000E+00 0.  1.
         23    2    1    2    0    0 -0.46268982690E+03 -0.11579648604E+04  0.22548055003E+03  0.12702607569E+04  0.88070530302E+02 0.  0.
         11    1    3    3    0    0 -0.31614832875E+03 -0.78509065687E+03  0.11109716173E+03  0.85361565392E+03  0.00000000000E+00 0.  1.
        -11    1    3    3    0    0 -0.14654149815E+03 -0.37287420351E+03  0.11438338830E+03  0.41664510299E+03  0.00000000000E+00 0. -1.
         22    1    1    2    0    0  0.46268982690E+03  0.11579648604E+04  0.83221019493E+03  0.14991792095E+04  0.00000000000E+00 0.  1.
<mgrwt>
<rscale>  0 0.25595093E+04</rscale>
<asrwt>0</asrwt>
<pdfrwt beam="1">  1        1 0.29439467E+00 0.25595093E+04</pdfrwt>
<pdfrwt beam="2">  1       -1 0.13167302E+00 0.25595093E+04</pdfrwt>
<totfact> 0.14799680E+00</totfact>
</mgrwt>
</event>
<event>
 6    1  0.1773638E-005  0.8718234E+03  0.7818608E-02  0.9461505E-01
         -2   -1    0    0    0  501 -0.00000000000E+00  0.00000000000E+00  0.30956439006E+03  0.30956439006E+03  0.00000000000E+00 0.  1.
          2   -1    0    0  501    0  0.00000000000E+00 -0.00000000000E+00 -0.61382715396E+03  0.61382715396E+03  0.00000000000E+00 0. -1.
         23    2    1    2    0    0 -0.41283110498E+03  0.11040655265E+03 -0.96298618056E+02  0.44813559817E+03  0.94514350230E+02 0.  0.
         13    1    3    3    0    0 -0.29468392462E+03  0.93686736613E+02 -0.10961146006E+03  0.32807086464E+03  0.00000000000E+00 0. -1.
        -13    1    3    3    0    0 -0.11814718037E+03  0.16719816033E+02  0.13312842009E+02  0.12006473354E+03  0.00000000000E+00 0.  1.
         22    1    1    2    0    0  0.41283110498E+03 -0.11040655265E+03 -0.20796414584E+03  0.47525594585E+03  0.00000000000E+00 0. -1.
<mgrwt>
<rscale>  0 0.87182344E+03</rscale>
<asrwt>0</asrwt>
<pdfrwt beam="1">  1        2 0.94434946E-01 0.87182344E+03</pdfrwt>
<pdfrwt beam="2">  1       -2 0.47625291E-01 0.87182344E+03</pdfrwt>
<totfact> 0.20241591E+02</totfact>
</mgrwt>
</event>
<event>
 6    1  0.1773638E-005  0.4007281E+04  0.7818608E-02  0.8003079E-01
          2   -1    0    0  501    0  0.00000000000E+00  0.00000000000E+00  0.20503094923E+04  0.20503094923E+04  0.00000000000E+00 0. -1.
         -2   -1    0    0    0  501 -0.00000000000E+00 -0.00000000000E+00 -0.19580336894E+04  0.19580336894E+04  0.00000000000E+00 0.  1.
         23    2    1    2    0    0  0.11497955220E+04 -0.50317098102E+03 -0.15140064219E+04  0.19698747949E+04  0.11393192480E+03 0.  0.
         13    1    3    3    0    0  0.81709440754E+03 -0.33543621170E+03 -0.11376602035E+04  0.14402886730E+04  0.00000000000E+00 0. -1.
        -13    1    3    3    0    0  0.33270111447E+03 -0.16773476933E+03 -0.37634621836E+03  0.52958612188E+03  0.00000000000E+00 0.  1.
         22    1    1    2    0    0 -0.11497955220E+04  0.50317098102E+03  0.16062822247E+04  0.20384683868E+04  0.00000000000E+00 0. -1.
<mgrwt>
<rscale>  0 0.40072809E+04</rscale>
<asrwt>0</asrwt>
<pdfrwt beam="1">  1        2 0.31543223E+00 0.40072809E+04</pdfrwt>
<pdfrwt beam="2">  1       -2 0.30123595E+00 0.40072809E+04</pdfrwt>
<totfact> 0.15425038E-01</totfact>
</mgrwt>
</event>
<event>
 6    1  0.1773638E-005  0.5420030E+04  0.7818608E-02  0.7766790E-01
         -2   -1    0    0    0  501 -0.00000000000E+00  0.00000000000E+00  0.31456841270E+04  0.31456841270E+04  0.00000000000E+00 0. -1.
          2   -1    0    0  501    0  0.00000000000E+00 -0.00000000000E+00 -0.23346847876E+04  0.23346847876E+04  0.00000000000E+00 0.  1.
         23    2    1    2    0    0 -0.24403997277E+04  0.19579854355E+03  0.15787550077E+04  0.29145675453E+04  0.91371224567E+02 0.  0.
         13    1    3    3    0    0 -0.15748676187E+04  0.10425983340E+03  0.10623153127E+04  0.19025225236E+04  0.00000000000E+00 0. -1.
        -13    1    3    3    0    0 -0.86553210904E+03  0.91538710151E+02  0.51643969504E+03  0.10120450217E+04  0.00000000000E+00 0.  1.
         22    1    1    2    0    0  0.24403997277E+04 -0.19579854355E+03 -0.76775566835E+03  0.25658013694E+04  0.00000000000E+00 0.  1.
<mgrwt>
<rscale>  0 0.54200298E+04</rscale>
<asrwt>0</asrwt>
<pdfrwt beam="1">  1        2 0.35918228E+00 0.54200298E+04</pdfrwt>
<pdfrwt beam="2">  1       -2 0.48395140E+00 0.54200298E+04</pdfrwt>
<totfact> 0.64000677E-03</totfact>
</mgrwt>
</event>
<event>
 6    1  0.1773638E-005  0.3097868E+04  0.7818608E-02  0.8216323E-01
          2   -1    0    0  501    0  0.00000000000E+00  0.00000000000E+00  0.26615330071E+04  0.26615330071E+04  0.00000000000E+00 0. -1.
         -2   -1    0    0    0  501 -0.00000000000E+00 -0.00000000000E+00 -0.90143396323E+03  0.90143396323E+03  0.00000000000E+00 0.  1.
         23    2    1    2    0    0 -0.63088357099E+03 -0.58843708028E+03 -0.59704878331E+03  0.10529035933E+04  0.88693007172E+02 0.  0.
         13    1    3    3    0    0 -0.34490213562E+03 -0.36677984679E+03 -0.31225972262E+03  0.59244499621E+03  0.00000000000E+00 0.  1.
        -13    1    3    3    0    0 -0.28598143538E+03 -0.22165723349E+03 -0.28478906069E+03  0.46045859708E+03  0.00000000000E+00 0. -1.
         22    1    1    2    0    0  0.63088357099E+03  0.58843708028E+03  0.23571478272E+04  0.25100633771E+04  0.00000000000E+00 0. -1.
<mgrwt>
<rscale>  0 0.30978678E+04</rscale>
<asrwt>0</asrwt>
<pdfrwt beam="1">  1        2 0.40946661E+00 0.30978678E+04</pdfrwt>
<pdfrwt beam="2">  1       -2 0.13868215E+00 0.30978678E+04</pdfrwt>
<totfact> 0.87462019E-01</totfact>
</mgrwt>
</event>
<event>
 6    1  0.1773638E-005  0.8338995E+04  0.7818608E-02  0.7453180E-01
          2   -1    0    0  501    0  0.00000000000E+00  0.00000000000E+00  0.41032096432E+04  0.41032096432E+04  0.00000000000E+00 0. -1.
         -2   -1    0    0    0  501 -0.00000000000E+00 -0.00000000000E+00 -0.42368560972E+04  0.42368560972E+04  0.00000000000E+00 0.  1.
         23    2    1    2    0    0  0.15862070895E+04 -0.42048131797E+03  0.37661184267E+04  0.41091056137E+04  0.90793566171E+02 0.  0.
         13    1    3    3    0    0  0.85334604550E+03 -0.26947303593E+03  0.20940081751E+04  0.22772100096E+04  0.00000000000E+00 0.  1.
        -13    1    3    3    0    0  0.73286104396E+03 -0.15100828204E+03  0.16721102516E+04  0.18318956042E+04  0.00000000000E+00 0. -1.
         22    1    1    2    0    0 -0.15862070895E+04  0.42048131797E+03 -0.38997648806E+04  0.42309601267E+04  0.00000000000E+00 0.  1.
<mgrwt>
<rscale>  0 0.83389949E+04</rscale>
<asrwt>0</asrwt>
<pdfrwt beam="1">  1        2 0.63126302E+00 0.83389949E+04</pdfrwt>
<pdfrwt beam="2">  1       -2 0.65182402E+00 0.83389949E+04</pdfrwt>
<totfact> 0.54286472E-05</totfact>
</mgrwt>
</event>
<event>
 6    1  0.1773638E-005  0.1003656E+04  0.7818608E-02  0.9304544E-01
          2   -1    0    0  501    0  0.00000000000E+00  0.00000000000E+00  0.85411695113E+03  0.85411695113E+03  0.00000000000E+00 0. -1.
         -2   -1    0    0    0  501 -0.00000000000E+00 -0.00000000000E+00 -0.29484396730E+03  0.29484396730E+03  0.00000000000E+00 0.  1.
         23    2    1    2    0    0  0.32346528726E+03 -0.22156192755E+03 -0.69710141157E+02  0.40778668026E+03  0.87812260071E+02 0.  0.
         13    1    3    3    0    0  0.13591623391E+03 -0.42635953284E+02 -0.19790316520E+02  0.14381482462E+03  0.00000000000E+00 0. -1.
        -13    1    3    3    0    0  0.18754905335E+03 -0.17892597427E+03 -0.49919824637E+02  0.26397185564E+03  0.00000000000E+00 0.  1.
         22    1    1    2    0    0 -0.32346528726E+03  0.22156192755E+03  0.62898312498E+03  0.74117423816E+03  0.00000000000E+00 0. -1.
<mgrwt>
<rscale>  0 0.10036558E+04</rscale>
<asrwt>0</asrwt>
<pdfrwt beam="1">  1        2 0.13140261E+00 0.10036558E+04</pdfrwt>
<pdfrwt beam="2">  1       -2 0.45360611E-01 0.10036558E+04</pdfrwt>
<totfact> 0.14500000E+02</totfact>
</mgrwt>
</event>
<event>
 6    1  0.1773638E-005  0.1771493E+04  0.7818608E-02  0.8721608E-01
         -2   -1    0    0    0  501 -0.00000000000E+00  0.00000000000E+00  0.64181047903E+03  0.64181047903E+03  0.00000000000E+00 0.  1.
          2   -1    0    0  501    0  0.00000000000E+00 -0.00000000000E+00 -0.12223963298E+04  0.12223963298E+04  0.00000000000E+00 0. -1.
         23    2    1    2    0    0 -0.60798908696E+03 -0.33761638513E+03 -0.86437360149E+03  0.11130936078E+04  0.90554422119E+02 0.  0.
         11    1    3    3    0    0 -0.15176455647E+03 -0.42768240050E+02 -0.21092828306E+03  0.26334833121E+03  0.00000000000E+00 0. -1.
        -11    1    3    3    0    0 -0.45622453049E+03 -0.29484814508E+03 -0.65344531843E+03  0.84974527657E+03  0.00000000000E+00 0.  1.
         22    1    1    2    0    0  0.60798908696E+03  0.33761638513E+03  0.28378775070E+03  0.75111320107E+03  0.00000000000E+00 0.  1.
<mgrwt>
<rscale>  0 0.17714929E+04</rscale>
<asrwt>0</asrwt>
<pdfrwt beam="1">  1        2 0.18806097E+00 0.17714929E+04</pdfrwt>
<pdfrwt beam="2">  1       -2 0.98740075E-01 0.17714929E+04</pdfrwt>
<totfact> 0.14794692E+01</totfact>
</mgrwt>
</event>
<event>
 6    1  0.1773638E-005  0.2775251E+04  0.7818608E-02  0.8310994E-01
          1   -1    0    0  501    0  0.00000000000E+00  0.00000000000E+00  0.11475249619E+04  0.11475249619E+04  0.00000000000E+00 0. -1.
         -1   -1    0    0    0  501 -0.00000000000E+00 -0.00000000000E+00 -0.16779625096E+04  0.16779625096E+04  0.00000000000E+00 0.  1.
         23    2    1    2    0    0 -0.13381844091E+04  0.35913932897E+03 -0.30378888400E+03  0.14215329897E+04  0.93540282389E+02 0.  0.
         11    1    3    3    0    0 -0.73738930219E+03  0.15014121236E+03 -0.15780334143E+03  0.76888702759E+03  0.00000000000E+00 0.  1.
        -11    1    3    3    0    0 -0.60079510689E+03  0.20899811660E+03 -0.14598554257E+03  0.65264596210E+03  0.00000000000E+00 0. -1.
         22    1    1    2    0    0  0.13381844091E+04 -0.35913932897E+03 -0.22664866372E+03  0.14039544818E+04  0.00000000000E+00 0.  1.
<mgrwt>
<rscale>  0 0.27752505E+04</rscale>
<asrwt>0</asrwt>
<pdfrwt beam="1">  1        1 0.17654230E+00 0.27752505E+04</pdfrwt>
<pdfrwt beam="2">  1       -1 0.25814808E+00 0.27752505E+04</pdfrwt>
<totfact> 0.62516009E-01</totfact>
</mgrwt>
</event>
<event>
 6    1  0.1773638E-005  0.1757021E+04  0.7818608E-02  0.8729495E-01
         -1   -1    0    0    0  501 -0.00000000000E+00  0.00000000000E+00  0.59807951626E+03  0.59807951626E+03  0.00000000000E+00 0.  1.
          1   -1    0    0  501    0  0.00000000000E+00 -0.00000000000E+00 -0.12904315242E+04  0.12904315242E+04  0.00000000000E+00 0. -1.
         23    2    1    2    0    0 -0.56710181248E+03  0.54853953869E+03 -0.75681268606E+03  0.10968954328E+04  0.88960988312E+02 0.  0.
         13    1    3    3    0    0 -0.27476900422E+03  0.20507050854E+03 -0.33531822289E+03  0.47957296604E+03  0.00000000000E+00 0.  1.
        -13    1    3    3    0    0 -0.29233280826E+03  0.34346903015E+03 -0.42149446317E+03  0.61732246674E+03  0.00000000000E+00 0. -1.
         22    1    1    2    0    0  0.56710181248E+03 -0.54853953869E+03  0.64460678164E+02  0.79161560764E+03  0.00000000000E+00 0.  1.
<mgrwt>
<rscale>  0 0.17570210E+04</rscale>
<asrwt>0</asrwt>
<pdfrwt beam="1">  1        1 0.19852792E+00 0.17570210E+04</pdfrwt>
<pdfrwt beam="2">  1       -1 0.92012234E-01 0.17570210E+04</pdfrwt>
<totfact> 0.10010123E+01</totfact>
</mgrwt>
</event>
<event>
 6    1  0.1773638E-005  0.1799843E+04  0.7818608E-02  0.8706383E-01
         -1   -1    0    0    0  501 -0.00000000000E+00  0.00000000000E+00  0.50545987652E+03  0.50545987652E+03  0.00000000000E+00 0.  1.
          1   -1    0    0  501    0  0.00000000000E+00 -0.00000000000E+00 -0.16022222751E+04  0.16022222751E+04  0.00000000000E+00 0. -1.
         23    2    1    2    0    0 -0.40521719811E+03 -0.54016866646E+03 -0.12425089650E+04  0.14168672506E+04  0.87755979801E+02 0.  0.
         13    1    3    3    0    0 -0.13581070954E+03 -0.13296416227E+03 -0.40609474241E+03  0.44837144990E+03  0.00000000000E+00 0.  1.
        -13    1    3    3    0    0 -0.26940648857E+03 -0.40720450419E+03 -0.83641422255E+03  0.96849580071E+03  0.00000000000E+00 0. -1.
         22    1    1    2    0    0  0.40521719811E+03  0.54016866646E+03  0.14574656636E+03  0.69081490102E+03  0.00000000000E+00 0.  1.
<mgrwt>
<rscale>  0 0.17998434E+04</rscale>
<asrwt>0</asrwt>
<pdfrwt beam="1">  1        1 0.24649573E+00 0.17998434E+04</pdfrwt>
<pdfrwt beam="2">  1       -1 0.77763059E-01 0.17998434E+04</pdfrwt>
<totfact> 0.86925470E+00</totfact>
</mgrwt>
</event>
<event>
 6    1  0.1773638E-005  0.2259588E+04  0.7818608E-02  0.8494028E-01
          2   -1    0    0  501    0  0.00000000000E+00  0.00000000000E+00  0.15346814517E+04  0.15346814517E+04  0.00000000000E+00 0. -1.
         -2   -1    0    0    0  501 -0.00000000000E+00 -0.00000000000E+00 -0.83172569454E+03  0.83172569454E+03  0.00000000000E+00 0.  1.
         23    2    1    2    0    0  0.58974067485E+03 -0.96109615294E+03  0.33317566181E+03  0.11797154434E+04  0.96034509161E+02 0.  0.
         13    1    3    3    0    0  0.36933388868E+03 -0.68026724617E+03  0.20957060332E+03  0.80192947652E+03  0.00000000000E+00 0. -1.
        -13    1    3    3    0    0  0.22040678618E+03 -0.28082890677E+03  0.12360505848E+03  0.37778596686E+03  0.00000000000E+00 0.  1.
         22    1    1    2    0    0 -0.58974067485E+03  0.96109615294E+03  0.36978009540E+03  0.11866917029E+04  0.00000000000E+00 0.  1.
<mgrwt>
<rscale>  0 0.22595876E+04</rscale>
<asrwt>0</asrwt>
<pdfrwt beam="1">  1        2 0.23610484E+00 0.22595876E+04</pdfrwt>
<pdfrwt beam="2">  1       -2 0.12795780E+00 0.22595876E+04</pdfrwt>
<totfact> 0.49904629E+00</totfact>
</mgrwt>
</event>
<event>
 6    1  0.1773638E-005  0.1174921E+04  0.7818608E-02  0.9135095E-01
          1   -1    0    0  501    0  0.00000000000E+00  0.00000000000E+00  0.10334625909E+04  0.10334625909E+04  0.00000000000E+00 0. -1.
         -1   -1    0    0    0  501 -0.00000000000E+00 -0.00000000000E+00 -0.33393569175E+03  0.33393569175E+03  0.00000000000E+00 0.  1.
         23    2    1    2    0    0 -0.77591442666E+02 -0.29268105347E+03 -0.22950679813E+03  0.39026664274E+03  0.89174273294E+02 0.  0.
         13    1    3    3    0    0 -0.20161902192E+02 -0.19864763388E+03 -0.11098684547E+03  0.22844138113E+03  0.00000000000E+00 0.  1.
        -13    1    3    3    0    0 -0.57429540474E+02 -0.94033419591E+02 -0.11851995265E+03  0.16182526161E+03  0.00000000000E+00 0. -1.
         22    1    1    2    0    0  0.77591442666E+02  0.29268105347E+03  0.92903369728E+03  0.97713163991E+03  0.00000000000E+00 0. -1.
<mgrwt>
<rscale>  0 0.11749214E+04</rscale>
<asrwt>0</asrwt>
<pdfrwt beam="1">  1        1 0.15899424E+00 0.11749214E+04</pdfrwt>
<pdfrwt beam="2">  1       -1 0.51374722E-01 0.11749214E+04</pdfrwt>
<totfact> 0.53833617E+01</totfact>
</mgrwt>
</event>
<event>
 6    1  0.1773638E-005  0.1326786E+04  0.7818608E-02  0.9008589E-01
          1   -1    0    0  501    0  0.00000000000E+00  0.00000000000E+00  0.25822854879E+04  0.25822854879E+04  0.00000000000E+00 0. -1.
         -1   -1    0    0    0  501 -0.00000000000E+00 -0.00000000000E+00 -0.17042677488E+03  0.17042677488E+03  0.00000000000E+00 0.  1.
         23    2    1    2    0    0 -0.14120725027E+03  0.83548032707E+02  0.25384735906E+04  0.25454658188E+04  0.92888662361E+02 0.  0.
         13    1    3    3    0    0 -0.31563273135E+02  0.58456203769E+02  0.13645005548E+04  0.13661168076E+04  0.00000000000E+00 0.  1.
        -13    1    3    3    0    0 -0.10964397714E+03  0.25091828938E+02  0.11739730358E+04  0.11793490112E+04  0.00000000000E+00 0. -1.
         22    1    1    2    0    0  0.14120725027E+03 -0.83548032707E+02 -0.12661487757E+03  0.20724644393E+03  0.00000000000E+00 0.  1.
<mgrwt>
<rscale>  0 0.13267865E+04</rscale>
<asrwt>0</asrwt>
<pdfrwt beam="1">  1        1 0.39727466E+00 0.13267865E+04</pdfrwt>
<pdfrwt beam="2">  1       -1 0.26219506E-01 0.13267865E+04</pdfrwt>
<totfact> 0.15097448E+01</totfact>
</mgrwt>
</event>
<event>
 6    1  0.1773638E-005  0.2912043E+04  0.7818608E-02  0.8269303E-01
          2   -1    0    0  501    0  0.00000000000E+00  0.00000000000E+00  0.11685971491E+04  0.11685971491E+04  0.00000000000E+00 0. -1.
         -2   -1    0    0    0  501 -0.00000000000E+00 -0.00000000000E+00 -0.18141400319E+04  0.18141400319E+04  0.00000000000E+00 0.  1.
         23    2    1    2    0    0  0.54563930732E+03 -0.78871463523E+03  0.79700490231E+03  0.12504735919E+04  0.93136245933E+02 0.  0.
         11    1    3    3    0    0  0.41366946620E+03 -0.54520290199E+03  0.52814065016E+03  0.86446583389E+03  0.00000000000E+00 0.  1.
        -11    1    3    3    0    0  0.13196984111E+03 -0.24351173324E+03  0.26886425215E+03  0.38600775805E+03  0.00000000000E+00 0. -1.
         22    1    1    2    0    0 -0.54563930732E+03  0.78871463523E+03 -0.14425477852E+04  0.17322635891E+04  0.00000000000E+00 0.  1.
<mgrwt>
<rscale>  0 0.29120432E+04</rscale>
<asrwt>0</asrwt>
<pdfrwt beam="1">  1        2 0.17978418E+00 0.29120432E+04</pdfrwt>
<pdfrwt beam="2">  1       -2 0.27909847E+00 0.29120432E+04</pdfrwt>
<totfact> 0.72743128E-01</totfact>
</mgrwt>
</event>
<event>
 6    1  0.1773638E-005  0.1750020E+04  0.7818608E-02  0.8733339E-01
          1   -1    0    0  501    0  0.00000000000E+00  0.00000000000E+00  0.15534511798E+04  0.15534511798E+04  0.00000000000E+00 0. -1.
         -1   -1    0    0    0  501 -0.00000000000E+00 -0.00000000000E+00 -0.49286530706E+03  0.49286530706E+03  0.00000000000E+00 0.  1.
         23    2    1    2    0    0  0.61902412004E+03 -0.53075338113E+03  0.16680980954E+03  0.83647118108E+03  0.83477610408E+02 0.  0.
         13    1    3    3    0    0  0.41569827430E+03 -0.30329843364E+03  0.10384438520E+03  0.52495585666E+03  0.00000000000E+00 0. -1.
        -13    1    3    3    0    0  0.20332584574E+03 -0.22745494749E+03  0.62965424345E+02  0.31151532442E+03  0.00000000000E+00 0.  1.
         22    1    1    2    0    0 -0.61902412004E+03  0.53075338113E+03  0.89377606319E+03  0.12098453058E+04  0.00000000000E+00 0. -1.
<mgrwt>
<rscale>  0 0.17500196E+04</rscale>
<asrwt>0</asrwt>
<pdfrwt beam="1">  1        1 0.23899249E+00 0.17500196E+04</pdfrwt>
<pdfrwt beam="2">  1       -1 0.75825433E-01 0.17500196E+04</pdfrwt>
<totfact> 0.99467449E+00</totfact>
</mgrwt>
</event>
<event>
 6    1  0.1773638E-005  0.6317173E+03  0.7818608E-02  0.9841703E-01
          2   -1    0    0  501    0  0.00000000000E+00  0.00000000000E+00  0.11382935651E+04  0.11382935651E+04  0.00000000000E+00 0. -1.
         -2   -1    0    0    0  501 -0.00000000000E+00 -0.00000000000E+00 -0.87645842168E+02  0.87645842168E+02  0.00000000000E+00 0.  1.
         23    2    1    2    0    0  0.19367697773E+03  0.16027974141E+03  0.17554043985E+03  0.31543782895E+03  0.74068959096E+02 0.  0.
         11    1    3    3    0    0  0.46485759812E+02  0.57640802475E+01  0.17985926592E+02  0.50176130200E+02  0.00000000000E+00 0.  1.
        -11    1    3    3    0    0  0.14719121792E+03  0.15451566116E+03  0.15755451326E+03  0.26526169876E+03  0.00000000000E+00 0. -1.
         22    1    1    2    0    0 -0.19367697773E+03 -0.16027974141E+03  0.87510728307E+03  0.91050157830E+03  0.00000000000E+00 0. -1.
<mgrwt>
<rscale>  0 0.63171734E+03</rscale>
<asrwt>0</asrwt>
<pdfrwt beam="1">  1        2 0.17512208E+00 0.63171734E+03</pdfrwt>
<pdfrwt beam="2">  1       -2 0.13483977E-01 0.63171734E+03</pdfrwt>
<totfact> 0.87386702E+02</totfact>
</mgrwt>
</event>
<event>
 6    1  0.1773638E-005  0.3952875E+04  0.7818608E-02  0.8014121E-01
         -1   -1    0    0    0  501 -0.00000000000E+00  0.00000000000E+00  0.15235957700E+04  0.15235957700E+04  0.00000000000E+00 0.  1.
          1   -1    0    0  501    0  0.00000000000E+00 -0.00000000000E+00 -0.25638718595E+04  0.25638718595E+04  0.00000000000E+00 0. -1.
         23    2    1    2    0    0 -0.15511334223E+04 -0.10989725721E+04  0.36788553108E+02  0.19025594273E+04  0.67995359029E+02 0.  0.
         11    1    3    3    0    0 -0.16284369945E+03 -0.11718037427E+03 -0.16963768394E+02  0.20133822290E+03  0.00000000000E+00 0.  1.
        -11    1    3    3    0    0 -0.13882897228E+04 -0.98179219779E+03  0.53752321502E+02  0.17012212044E+04  0.00000000000E+00 0. -1.
         22    1    1    2    0    0  0.15511334223E+04  0.10989725721E+04 -0.10770646426E+04  0.21849082022E+04  0.00000000000E+00 0. -1.
<mgrwt>
<rscale>  0 0.39528746E+04</rscale>
<asrwt>0</asrwt>
<pdfrwt beam="1">  1        1 0.39444183E+00 0.39528746E+04</pdfrwt>
<pdfrwt beam="2">  1       -1 0.23439935E+00 0.39528746E+04</pdfrwt>
<totfact> 0.84804298E-02</totfact>
</mgrwt>
</event>
<event>
 6    1  0.1773638E-005  0.3357785E+04  0.7818608E-02  0.8148346E-01
         -2   -1    0    0    0  501 -0.00000000000E+00  0.00000000000E+00  0.16292700477E+04  0.16292700477E+04  0.00000000000E+00 0.  1.
          2   -1    0    0  501    0  0.00000000000E+00 -0.00000000000E+00 -0.17300260269E+04  0.17300260269E+04  0.00000000000E+00 0. -1.
         23    2    1    2    0    0  0.11120108488E+03  0.10148757560E+04 -0.13822808761E+04  0.17208075813E+04  0.90221005972E+02 0.  0.
         11    1    3    3    0    0 -0.94795346606E+01  0.24303751204E+03 -0.35117945929E+03  0.42718158488E+03  0.00000000000E+00 0.  1.
        -11    1    3    3    0    0  0.12068061955E+03  0.77183824396E+03 -0.10311014168E+04  0.12936259964E+04  0.00000000000E+00 0. -1.
         22    1    1    2    0    0 -0.11120108488E+03 -0.10148757560E+04  0.12815248969E+04  0.16384884933E+04  0.00000000000E+00 0.  1.
<mgrwt>
<rscale>  0 0.33577847E+04</rscale>
<asrwt>0</asrwt>
<pdfrwt beam="1">  1        2 0.26615785E+00 0.33577847E+04</pdfrwt>
<pdfrwt beam="2">  1       -2 0.25065693E+00 0.33577847E+04</pdfrwt>
<totfact> 0.49946680E-01</totfact>
</mgrwt>
</event>
<event>
 6    1  0.1773638E-005  0.2010797E+04  0.7818608E-02  0.8601589E-01
         -1   -1    0    0    0  501 -0.00000000000E+00  0.00000000000E+00  0.47858090692E+03  0.47858090692E+03  0.00000000000E+00 0.  1.
          1   -1    0    0  501    0  0.00000000000E+00 -0.00000000000E+00 -0.21121316227E+04  0.21121316227E+04  0.00000000000E+00 0. -1.
         23    2    1    2    0    0 -0.69007325045E+03  0.22166904238E+03 -0.17131284907E+04  0.18615548802E+04  0.72381566702E+02 0.  0.
         13    1    3    3    0    0 -0.26545456006E+03  0.11557722533E+03 -0.63010026717E+03  0.69343389387E+03  0.00000000000E+00 0.  1.
        -13    1    3    3    0    0 -0.42461869039E+03  0.10609181705E+03 -0.10830282235E+04  0.11681209864E+04  0.00000000000E+00 0. -1.
         22    1    1    2    0    0  0.69007325045E+03 -0.22166904238E+03  0.79577774945E+02  0.72915764934E+03  0.00000000000E+00 0.  1.
<mgrwt>
<rscale>  0 0.20107967E+04</rscale>
<asrwt>0</asrwt>
<pdfrwt beam="1">  1        1 0.32494332E+00 0.20107967E+04</pdfrwt>
<pdfrwt beam="2">  1       -1 0.73627834E-01 0.20107967E+04</pdfrwt>
<totfact> 0.43062709E+00</totfact>
</mgrwt>
</event>
<event>
 6    1  0.1773638E-005  0.3452145E+04  0.7818608E-02  0.8125226E-01
          2   -1    0    0  501    0  0.00000000000E+00  0.00000000000E+00  0.33682154334E+04  0.33682154334E+04  0.00000000000E+00 0. -1.
         -2   -1    0    0    0  501 -0.00000000000E+00 -0.00000000000E+00 -0.88454127721E+03  0.88454127721E+03  0.00000000000E+00 0.  1.
         23    2    1    2    0    0  0.33953952223E+03  0.13489369299E+04 -0.13506939192E+02  0.13942901022E+04  0.94575492763E+02 0.  0.
         11    1    3    3    0    0  0.13478511345E+03  0.66253322868E+03 -0.42232271693E+02  0.67742222482E+03  0.00000000000E+00 0. -1.
        -11    1    3    3    0    0  0.20475440878E+03  0.68640370121E+03  0.28725332501E+02  0.71686787742E+03  0.00000000000E+00 0.  1.
         22    1    1    2    0    0 -0.33953952223E+03 -0.13489369299E+04  0.24971810954E+04  0.28584666083E+04  0.00000000000E+00 0. -1.
<mgrwt>
<rscale>  0 0.34521446E+04</rscale>
<asrwt>0</asrwt>
<pdfrwt beam="1">  1        2 0.51818698E+00 0.34521446E+04</pdfrwt>
<pdfrwt beam="2">  1       -2 0.13608328E+00 0.34521446E+04</pdfrwt>
<totfact> 0.31910498E-01</totfact>
</mgrwt>
</event>
<event>
 6    1  0.1773638E-005  0.1631492E+04  0.7818608E-02  0.8801431E-01
          2   -1    0    0  501    0  0.00000000000E+00  0.00000000000E+00  0.54677302511E+03  0.54677302511E+03  0.00000000000E+00 0. -1.
         -2   -1    0    0    0  501 -0.00000000000E+00 -0.00000000000E+00 -0.12170350538E+04  0.12170350538E+04  0.00000000000E+00 0.  1.
         23    2    1    2    0    0  0.27030756200E+03 -0.56582970357E+03  0.22344461371E+03  0.67204757669E+03  0.92146722226E+02 0.  0.
         13    1    3    3    0    0  0.14503226742E+03 -0.32022725061E+03  0.77048745664E+02  0.35988381435E+03  0.00000000000E+00 0. -1.
        -13    1    3    3    0    0  0.12527529458E+03 -0.24560245297E+03  0.14639586805E+03  0.31216376234E+03  0.00000000000E+00 0.  1.
         22    1    1    2    0    0 -0.27030756200E+03  0.56582970357E+03 -0.89370664238E+03  0.10917605022E+04  0.00000000000E+00 0. -1.
<mgrwt>
<rscale>  0 0.16314925E+04</rscale>
<asrwt>0</asrwt>
<pdfrwt beam="1">  1        2 0.84118928E-01 0.16314925E+04</pdfrwt>
<pdfrwt beam="2">  1       -2 0.18723616E+00 0.16314925E+04</pdfrwt>
<totfact> 0.85718604E+00</totfact>
</mgrwt>
</event>
<event>
 6    1  0.1773638E-005  0.2649704E+04  0.7818608E-02  0.8351511E-01
         -2   -1    0    0    0  501 -0.00000000000E+00  0.00000000000E+00  0.71059796097E+03  0.71059796097E+03  0.00000000000E+00 0.  1.
          2   -1    0    0  501    0  0.00000000000E+00 -0.00000000000E+00 -0.24700793730E+04  0.24700793730E+04  0.00000000000E+00 0. -1.
         23    2    1    2    0    0 -0.84665798866E+01 -0.81123759880E+03 -0.21357310709E+04  0.22863944199E+04  0.89856060986E+02 0.  0.
         11    1    3    3    0    0 -0.43864833218E+02 -0.56146592017E+03 -0.15209607055E+04  0.16218784081E+04  0.00000000000E+00 0.  1.
        -11    1    3    3    0    0  0.35398253331E+02 -0.24977167862E+03 -0.61477036542E+03  0.66451601183E+03  0.00000000000E+00 0. -1.
         22    1    1    2    0    0  0.84665798866E+01  0.81123759880E+03  0.37624965880E+03  0.89428291408E+03  0.00000000000E+00 0.  1.
<mgrwt>
<rscale>  0 0.26497044E+04</rscale>
<asrwt>0</asrwt>
<pdfrwt beam="1">  1        2 0.38001221E+00 0.26497044E+04</pdfrwt>
<pdfrwt beam="2">  1       -2 0.10932276E+00 0.26497044E+04</pdfrwt>
<totfact> 0.21279782E+00</totfact>
</mgrwt>
</event>
<event>
 6    1  0.1773638E-005  0.2346299E+04  0.7818608E-02  0.8459887E-01
         -1   -1    0    0    0  501 -0.00000000000E+00  0.00000000000E+00  0.70290100114E+03  0.70290100114E+03  0.00000000000E+00 0.  1.
          1   -1    0    0  501    0  0.00000000000E+00 -0.00000000000E+00 -0.19579992589E+04  0.19579992589E+04  0.00000000000E+00 0. -1.
         23    2    1    2    0    0 -0.10534029807E+04 -0.50570709576E+03 -0.72272921930E+03  0.13768386184E+04  0.89160249703E+02 0.  0.
         11    1    3    3    0    0 -0.80045593782E+03 -0.35733332822E+03 -0.57625081187E+03  0.10490385188E+04  0.00000000000E+00 0. -1.
        -11    1    3    3    0    0 -0.25294704291E+03 -0.14837376754E+03 -0.14647840743E+03  0.32780009953E+03  0.00000000000E+00 0.  1.
         22    1    1    2    0    0  0.10534029807E+04  0.50570709576E+03 -0.53236903847E+03  0.12840616417E+04  0.00000000000E+00 0.  1.
<mgrwt>
<rscale>  0 0.23462989E+04</rscale>
<asrwt>0</asrwt>
<pdfrwt beam="1">  1        1 0.30123066E+00 0.23462989E+04</pdfrwt>
<pdfrwt beam="2">  1       -1 0.10813861E+00 0.23462989E+04</pdfrwt>
<totfact> 0.22759251E+00</totfact>
</mgrwt>
</event>
<event>
 6    1  0.1773638E-005  0.1845074E+04  0.7818608E-02  0.8682690E-01
          2   -1    0    0  501    0  0.00000000000E+00  0.00000000000E+00  0.42853540571E+03  0.42853540571E+03  0.00000000000E+00 0. -1.
         -2   -1    0    0    0  501 -0.00000000000E+00 -0.00000000000E+00 -0.19860066421E+04  0.19860066421E+04  0.00000000000E+00 0.  1.
         23    2    1    2    0    0  0.66131741294E+03  0.51990412505E+03 -0.29285821705E+03  0.89569804377E+03  0.94170220448E+02 0.  0.
         11    1    3    3    0    0  0.15096494305E+03  0.17112811100E+03 -0.85749795638E+02  0.24377914566E+03  0.00000000000E+00 0. -1.
        -11    1    3    3    0    0  0.51035246989E+03  0.34877601405E+03 -0.20710842141E+03  0.65191889811E+03  0.00000000000E+00 0.  1.
         22    1    1    2    0    0 -0.66131741294E+03 -0.51990412505E+03 -0.12646130193E+04  0.15188440040E+04  0.00000000000E+00 0.  1.
<mgrwt>
<rscale>  0 0.18450736E+04</rscale>
<asrwt>0</asrwt>
<pdfrwt beam="1">  1        2 0.65928524E-01 0.18450736E+04</pdfrwt>
<pdfrwt beam="2">  1       -2 0.30553948E+00 0.18450736E+04</pdfrwt>
<totfact> 0.20368450E+00</totfact>
</mgrwt>
</event>
<event>
 6    1  0.2053000E-005  0.3808812E+04  0.7818608E-02  0.8044267E-01
          2   -1    0    0  501    0  0.00000000000E+00  0.00000000000E+00  0.22091438874E+04  0.22091438874E+04  0.00000000000E+00 0. -1.
         -2   -1    0    0    0  501 -0.00000000000E+00 -0.00000000000E+00 -0.16417046291E+04  0.16417046291E+04  0.00000000000E+00 0.  1.
         23    2    1    2    0    0 -0.16940139367E+04  0.47908954266E+03 -0.44762632112E+03  0.18187146286E+04  0.90241728313E+02 0.  0.
         11    1    3    3    0    0 -0.58243953210E+03  0.19479159220E+03 -0.18898646434E+03  0.64256941777E+03  0.00000000000E+00 0. -1.
        -11    1    3    3    0    0 -0.11115744046E+04  0.28429795045E+03 -0.25863985678E+03  0.11761452109E+04  0.00000000000E+00 0.  1.
         22    1    1    2    0    0  0.16940139367E+04 -0.47908954266E+03  0.10150655795E+04  0.20321338878E+04  0.00000000000E+00 0. -1.
<mgrwt>
<rscale>  0 0.38088118E+04</rscale>
<asrwt>0</asrwt>
<pdfrwt beam="1">  1        2 0.33986829E+00 0.38088118E+04</pdfrwt>
<pdfrwt beam="2">  1       -2 0.25256994E+00 0.38088118E+04</pdfrwt>
<totfact> 0.25337064E-01</totfact>
</mgrwt>
</event>
<event>
 6    1  0.1950768E-005  0.3330721E+04  0.7818608E-02  0.8155122E-01
          1   -1    0    0  501    0  0.00000000000E+00  0.00000000000E+00  0.25916721340E+04  0.25916721340E+04  0.00000000000E+00 0. -1.
         -1   -1    0    0    0  501 -0.00000000000E+00 -0.00000000000E+00 -0.10701299575E+04  0.10701299575E+04  0.00000000000E+00 0.  1.
         23    2    1    2    0    0  0.61705308508E+03  0.42458682364E+03  0.23951076867E+04  0.25110870176E+04  0.89379519544E+02 0.  0.
         11    1    3    3    0    0  0.38404201975E+03  0.21873068329E+03  0.13285744281E+04  0.14001576325E+04  0.00000000000E+00 0.  1.
        -11    1    3    3    0    0  0.23301106533E+03  0.20585614034E+03  0.10665332586E+04  0.11109293851E+04  0.00000000000E+00 0. -1.
         22    1    1    2    0    0 -0.61705308508E+03 -0.42458682364E+03 -0.87356551027E+03  0.11507150739E+04  0.00000000000E+00 0.  1.
<mgrwt>
<rscale>  0 0.33307212E+04</rscale>
<asrwt>0</asrwt>
<pdfrwt beam="1">  1        1 0.39871879E+00 0.33307212E+04</pdfrwt>
<pdfrwt beam="2">  1       -1 0.16463538E+00 0.33307212E+04</pdfrwt>
<totfact> 0.26086749E-01</totfact>
</mgrwt>
</event>
<event>
 6    1  0.1773638E-005  0.8524099E+03  0.7818608E-02  0.9487108E-01
         -2   -1    0    0    0  501 -0.00000000000E+00  0.00000000000E+00  0.62724403595E+02  0.62724403595E+02  0.00000000000E+00 0.  1.
          2   -1    0    0  501    0  0.00000000000E+00 -0.00000000000E+00 -0.28960127903E+04  0.28960127903E+04  0.00000000000E+00 0. -1.
         23    2    1    2    0    0  0.15754548692E+03  0.23151402250E+03 -0.25255522513E+04  0.25426592540E+04  0.91008706322E+02 0.  0.
         11    1    3    3    0    0  0.65879059505E+02  0.17078240762E+03 -0.14528599760E+04  0.14643458577E+04  0.00000000000E+00 0.  1.
        -11    1    3    3    0    0  0.91666427414E+02  0.60731614872E+02 -0.10726922754E+04  0.10783133963E+04  0.00000000000E+00 0. -1.
         22    1    1    2    0    0 -0.15754548692E+03 -0.23151402250E+03 -0.30773613537E+03  0.41607793990E+03  0.00000000000E+00 0.  1.
<mgrwt>
<rscale>  0 0.85240994E+03</rscale>
<asrwt>0</asrwt>
<pdfrwt beam="1">  1        2 0.44554042E+00 0.85240994E+03</pdfrwt>
<pdfrwt beam="2">  1       -2 0.96499085E-02 0.85240994E+03</pdfrwt>
<totfact> 0.15277727E+02</totfact>
</mgrwt>
</event>
<event>
 6    1  0.1773638E-005  0.3260820E+04  0.7818608E-02  0.8172937E-01
         -1   -1    0    0    0  501 -0.00000000000E+00  0.00000000000E+00  0.13591275733E+04  0.13591275733E+04  0.00000000000E+00 0.  1.
          1   -1    0    0  501    0  0.00000000000E+00 -0.00000000000E+00 -0.19558409957E+04  0.19558409957E+04  0.00000000000E+00 0. -1.
         23    2    1    2    0    0  0.80147461317E+02  0.50733060556E+03 -0.18703537168E+04  0.19416632284E+04  0.89582964444E+02 0.  0.
         11    1    3    3    0    0  0.45340989448E+02  0.17411335024E+03 -0.51531855644E+03  0.54582458598E+03  0.00000000000E+00 0.  1.
        -11    1    3    3    0    0  0.34806471870E+02  0.33321725532E+03 -0.13550351604E+04  0.13958386424E+04  0.00000000000E+00 0. -1.
         22    1    1    2    0    0 -0.80147461317E+02 -0.50733060556E+03  0.12736402945E+04  0.13733053406E+04  0.00000000000E+00 0.  1.
<mgrwt>
<rscale>  0 0.32608204E+04</rscale>
<asrwt>0</asrwt>
<pdfrwt beam="1">  1        1 0.30089861E+00 0.32608204E+04</pdfrwt>
<pdfrwt beam="2">  1       -1 0.20909655E+00 0.32608204E+04</pdfrwt>
<totfact> 0.34654942E-01</totfact>
</mgrwt>
</event>
<event>
 6    1  0.1773638E-005  0.1994855E+04  0.7818608E-02  0.8609030E-01
          2   -1    0    0  501    0  0.00000000000E+00  0.00000000000E+00  0.50146487845E+03  0.50146487845E+03  0.00000000000E+00 0. -1.
         -2   -1    0    0    0  501 -0.00000000000E+00 -0.00000000000E+00 -0.19839106589E+04  0.19839106589E+04  0.00000000000E+00 0.  1.
         23    2    1    2    0    0 -0.60615363276E+03 -0.46198415879E+03  0.54836482559E+02  0.76954094579E+03  0.91294238309E+02 0.  0.
         13    1    3    3    0    0 -0.28561790180E+03 -0.17236332791E+03  0.51363894614E+02  0.33752770598E+03  0.00000000000E+00 0. -1.
        -13    1    3    3    0    0 -0.32053573096E+03 -0.28962083088E+03  0.34725879451E+01  0.43201323980E+03  0.00000000000E+00 0.  1.
         22    1    1    2    0    0  0.60615363276E+03  0.46198415879E+03 -0.15372822630E+04  0.17158345916E+04  0.00000000000E+00 0.  1.
<mgrwt>
<rscale>  0 0.19948549E+04</rscale>
<asrwt>0</asrwt>
<pdfrwt beam="1">  1        2 0.77148442E-01 0.19948549E+04</pdfrwt>
<pdfrwt beam="2">  1       -2 0.30521703E+00 0.19948549E+04</pdfrwt>
<totfact> 0.16862529E+00</totfact>
</mgrwt>
</event>
<event>
 6    1  0.1773638E-005  0.7697883E+03  0.7818608E-02  0.9604807E-01
         -1   -1    0    0    0  501 -0.00000000000E+00  0.00000000000E+00  0.80967289020E+03  0.80967289020E+03  0.00000000000E+00 0.  1.
          1   -1    0    0  501    0  0.00000000000E+00 -0.00000000000E+00 -0.18296711170E+03  0.18296711170E+03  0.00000000000E+00 0. -1.
         23    2    1    2    0    0 -0.23288138334E+03  0.13603934227E+03  0.66199810611E+03  0.72063634431E+03  0.91295163646E+02 0.  0.
         11    1    3    3    0    0 -0.16501910875E+02  0.42220999910E+02  0.15453454925E+03  0.16104612013E+03  0.00000000000E+00 0.  1.
        -11    1    3    3    0    0 -0.21637947247E+03  0.93818342355E+02  0.50746355686E+03  0.55959022419E+03  0.00000000000E+00 0. -1.
         22    1    1    2    0    0  0.23288138334E+03 -0.13603934227E+03 -0.35292327614E+02  0.27200365759E+03  0.00000000000E+00 0. -1.
<mgrwt>
<rscale>  0 0.76978831E+03</rscale>
<asrwt>0</asrwt>
<pdfrwt beam="1">  1        1 0.28148787E-01 0.76978831E+03</pdfrwt>
<pdfrwt beam="2">  1       -1 0.12456506E+00 0.76978831E+03</pdfrwt>
<totfact> 0.95724238E+01</totfact>
</mgrwt>
</event>
<event>
 6    1  0.1773638E-005  0.1892955E+04  0.7818608E-02  0.8658371E-01
          2   -1    0    0  501    0  0.00000000000E+00  0.00000000000E+00  0.16343812129E+04  0.16343812129E+04  0.00000000000E+00 0. -1.
         -2   -1    0    0    0  501 -0.00000000000E+00 -0.00000000000E+00 -0.54810948435E+03  0.54810948435E+03  0.00000000000E+00 0.  1.
         23    2    1    2    0    0  0.63137572912E+03  0.11948982536E+03  0.13422153134E+04  0.14908114014E+04  0.89797312683E+02 0.  0.
         13    1    3    3    0    0  0.61977535558E+02 -0.44438261278E+01  0.86841692724E+02  0.10678221809E+03  0.00000000000E+00 0. -1.
        -13    1    3    3    0    0  0.56939819356E+03  0.12393365149E+03  0.12553736207E+04  0.13840291833E+04  0.00000000000E+00 0.  1.
         22    1    1    2    0    0 -0.63137572912E+03 -0.11948982536E+03 -0.25594358483E+03  0.69167929585E+03  0.00000000000E+00 0.  1.
<mgrwt>
<rscale>  0 0.18929552E+04</rscale>
<asrwt>0</asrwt>
<pdfrwt beam="1">  1        2 0.25144326E+00 0.18929552E+04</pdfrwt>
<pdfrwt beam="2">  1       -2 0.84324537E-01 0.18929552E+04</pdfrwt>
<totfact> 0.12266981E+01</totfact>
</mgrwt>
</event>
<event>
 6    1  0.1773638E-005  0.7028608E+03  0.7818608E-02  0.9712352E-01
          2   -1    0    0  501    0  0.00000000000E+00  0.00000000000E+00  0.22341429654E+04  0.22341429654E+04  0.00000000000E+00 0. -1.
         -2   -1    0    0    0  501 -0.00000000000E+00 -0.00000000000E+00 -0.55279960524E+02  0.55279960524E+02  0.00000000000E+00 0.  1.
         23    2    1    2    0    0  0.32759111243E+01 -0.21377454012E+03  0.19917601156E+04  0.20053141848E+04  0.92012696143E+02 0.  0.
         13    1    3    3    0    0 -0.20596682556E+02 -0.20674323033E+03  0.17966686975E+04  0.18086418648E+04  0.00000000000E+00 0.  1.
        -13    1    3    3    0    0  0.23872593680E+02 -0.70313097951E+01  0.19509141803E+03  0.19667231995E+03  0.00000000000E+00 0. -1.
         22    1    1    2    0    0 -0.32759111243E+01  0.21377454012E+03  0.18710288936E+03  0.28410874116E+03  0.00000000000E+00 0.  1.
<mgrwt>
<rscale>  0 0.70286083E+03</rscale>
<asrwt>0</asrwt>
<pdfrwt beam="1">  1        2 0.34371423E+00 0.70286083E+03</pdfrwt>
<pdfrwt beam="2">  1       -2 0.85046110E-02 0.70286083E+03</pdfrwt>
<totfact> 0.45553322E+02</totfact>
</mgrwt>
</event>
<event>
 6    1  0.1773638E-005  0.4444106E+04  0.7818608E-02  0.7920496E-01
         -2   -1    0    0    0  501 -0.00000000000E+00  0.00000000000E+00  0.21138773556E+04  0.21138773556E+04  0.00000000000E+00 0.  1.
          2   -1    0    0  501    0  0.00000000000E+00 -0.00000000000E+00 -0.23357646236E+04  0.23357646236E+04  0.00000000000E+00 0. -1.
         23    2    1    2    0    0 -0.10918056794E+03  0.13264810658E+04  0.16691397018E+04  0.21371854035E+04  0.10030797716E+03 0.  0.
         11    1    3    3    0    0 -0.77135061555E+02  0.46143395524E+03  0.63045505109E+03  0.78507622828E+03  0.00000000000E+00 0.  1.
        -11    1    3    3    0    0 -0.32045506389E+02  0.86504711059E+03  0.10386846507E+04  0.13521091752E+04  0.00000000000E+00 0. -1.
         22    1    1    2    0    0  0.10918056794E+03 -0.13264810658E+04 -0.18910269697E+04  0.23124565757E+04  0.00000000000E+00 0. -1.
<mgrwt>
<rscale>  0 0.44441062E+04</rscale>
<asrwt>0</asrwt>
<pdfrwt beam="1">  1        2 0.35934840E+00 0.44441062E+04</pdfrwt>
<pdfrwt beam="2">  1       -2 0.32521190E+00 0.44441062E+04</pdfrwt>
<totfact> 0.73197886E-02</totfact>
</mgrwt>
</event>
<event>
 6    1  0.1773638E-005  0.2471637E+04  0.7818608E-02  0.8413160E-01
          2   -1    0    0  501    0  0.00000000000E+00  0.00000000000E+00  0.21690081639E+04  0.21690081639E+04  0.00000000000E+00 0. -1.
         -2   -1    0    0    0  501 -0.00000000000E+00 -0.00000000000E+00 -0.70412268708E+03  0.70412268708E+03  0.00000000000E+00 0.  1.
         23    2    1    2    0    0  0.10435204772E+04  0.47158060312E+03  0.12683558958E+04  0.17112585999E+04  0.91411517532E+02 0.  0.
         13    1    3    3    0    0  0.21513219455E+03  0.57710029793E+02  0.24917419452E+03  0.33421563082E+03  0.00000000000E+00 0.  1.
        -13    1    3    3    0    0  0.82838828268E+03  0.41387057332E+03  0.10191817013E+04  0.13770429690E+04  0.00000000000E+00 0. -1.
         22    1    1    2    0    0 -0.10435204772E+04 -0.47158060312E+03  0.19652958097E+03  0.11618722511E+04  0.00000000000E+00 0.  1.
<mgrwt>
<rscale>  0 0.24716374E+04</rscale>
<asrwt>0</asrwt>
<pdfrwt beam="1">  1        2 0.33369356E+00 0.24716374E+04</pdfrwt>
<pdfrwt beam="2">  1       -2 0.10832657E+00 0.24716374E+04</pdfrwt>
<totfact> 0.32761367E+00</totfact>
</mgrwt>
</event>
<event>
 6    1  0.1773638E-005  0.2918422E+04  0.7818608E-02  0.8267418E-01
          2   -1    0    0  501    0  0.00000000000E+00  0.00000000000E+00  0.97243034785E+03  0.97243034785E+03  0.00000000000E+00 0. -1.
         -2   -1    0    0    0  501 -0.00000000000E+00 -0.00000000000E+00 -0.21896644559E+04  0.21896644559E+04  0.00000000000E+00 0.  1.
         23    2    1    2    0    0 -0.39882079931E+03 -0.84148662634E+03 -0.18246256051E+04  0.20503024657E+04  0.85579376335E+02 0.  0.
         11    1    3    3    0    0 -0.16448396812E+03 -0.25635369000E+03 -0.61634449276E+03  0.68749743555E+03  0.00000000000E+00 0. -1.
        -11    1    3    3    0    0 -0.23433683118E+03 -0.58513293634E+03 -0.12082811123E+04  0.13628050301E+04  0.00000000000E+00 0.  1.
         22    1    1    2    0    0  0.39882079931E+03  0.84148662634E+03  0.60739149706E+03  0.11117923381E+04  0.00000000000E+00 0. -1.
<mgrwt>
<rscale>  0 0.29184216E+04</rscale>
<asrwt>0</asrwt>
<pdfrwt beam="1">  1        2 0.14960467E+00 0.29184216E+04</pdfrwt>
<pdfrwt beam="2">  1       -2 0.33687145E+00 0.29184216E+04</pdfrwt>
<totfact> 0.42537182E-01</totfact>
</mgrwt>
</event>
<event>
 6    1  0.1773638E-005  0.1344361E+04  0.7818608E-02  0.8995107E-01
          2   -1    0    0  501    0  0.00000000000E+00  0.00000000000E+00  0.30313980587E+04  0.30313980587E+04  0.00000000000E+00 0. -1.
         -2   -1    0    0    0  501 -0.00000000000E+00 -0.00000000000E+00 -0.14904903007E+03  0.14904903007E+03  0.00000000000E+00 0.  1.
         23    2    1    2    0    0 -0.12108813930E+03  0.51995355199E+03  0.49828628807E+03  0.73734062677E+03  0.10182308827E+03 0.  0.
         13    1    3    3    0    0 -0.12058088746E+03  0.37764506867E+03  0.40761963064E+03  0.56860294722E+03  0.00000000000E+00 0. -1.
        -13    1    3    3    0    0 -0.50725184466E+00  0.14230848332E+03  0.90666657430E+02  0.16873767955E+03  0.00000000000E+00 0.  1.
         22    1    1    2    0    0  0.12108813930E+03 -0.51995355199E+03  0.23840627406E+04  0.24431064620E+04  0.00000000000E+00 0. -1.
<mgrwt>
<rscale>  0 0.13443615E+04</rscale>
<asrwt>0</asrwt>
<pdfrwt beam="1">  1        2 0.46636889E+00 0.13443615E+04</pdfrwt>
<pdfrwt beam="2">  1       -2 0.22930622E-01 0.13443615E+04</pdfrwt>
<totfact> 0.27554216E+01</totfact>
</mgrwt>
</event>
<event>
 6    1  0.1773638E-005  0.2461667E+04  0.7818608E-02  0.8416770E-01
          1   -1    0    0  501    0  0.00000000000E+00  0.00000000000E+00  0.20934227815E+04  0.20934227815E+04  0.00000000000E+00 0. -1.
         -1   -1    0    0    0  501 -0.00000000000E+00 -0.00000000000E+00 -0.72367211317E+03  0.72367211317E+03  0.00000000000E+00 0.  1.
         23    2    1    2    0    0 -0.28727743644E+03 -0.11664884684E+04  0.98264755024E+03  0.15549251373E+04  0.94722237070E+02 0.  0.
         11    1    3    3    0    0 -0.28711169702E+03 -0.10532647481E+04  0.89740063320E+03  0.14131976693E+04  0.00000000000E+00 0. -1.
        -11    1    3    3    0    0 -0.16573942141E+00 -0.11322372030E+03  0.85246917041E+02  0.14172746795E+03  0.00000000000E+00 0.  1.
         22    1    1    2    0    0  0.28727743644E+03  0.11664884684E+04  0.38710311807E+03  0.12621697574E+04  0.00000000000E+00 0.  1.
<mgrwt>
<rscale>  0 0.24616675E+04</rscale>
<asrwt>0</asrwt>
<pdfrwt beam="1">  1        1 0.32206504E+00 0.24616675E+04</pdfrwt>
<pdfrwt beam="2">  1       -1 0.11133417E+00 0.24616675E+04</pdfrwt>
<totfact> 0.17017925E+00</totfact>
</mgrwt>
</event>
<event>
 6    1  0.1773638E-005  0.3050071E+04  0.7818608E-02  0.8229576E-01
         -2   -1    0    0    0  501 -0.00000000000E+00  0.00000000000E+00  0.90112702699E+03  0.90112702699E+03  0.00000000000E+00 0.  1.
          2   -1    0    0  501    0  0.00000000000E+00 -0.00000000000E+00 -0.25809156799E+04  0.25809156799E+04  0.00000000000E+00 0. -1.
         23    2    1    2    0    0 -0.65646582949E+03 -0.10448306156E+04  0.17967150999E+03  0.12504041837E+04  0.92792083019E+02 0.  0.
         13    1    3    3    0    0 -0.12318343038E+03 -0.25643458512E+03  0.19008745963E+02  0.28512135379E+03  0.00000000000E+00 0. -1.
        -13    1    3    3    0    0 -0.53328239911E+03 -0.78839603047E+03  0.16066276403E+03  0.96528282995E+03  0.00000000000E+00 0.  1.
         22    1    1    2    0    0  0.65646582949E+03  0.10448306156E+04 -0.18594601629E+04  0.22316385231E+04  0.00000000000E+00 0. -1.
<mgrwt>
<rscale>  0 0.30500707E+04</rscale>
<asrwt>0</asrwt>
<pdfrwt beam="1">  1        2 0.39706394E+00 0.30500707E+04</pdfrwt>
<pdfrwt beam="2">  1       -2 0.13863493E+00 0.30500707E+04</pdfrwt>
<totfact> 0.98052347E-01</totfact>
</mgrwt>
</event>
<event>
 6    1  0.1773638E-005  0.8794819E+03  0.7818608E-02  0.9451600E-01
          2   -1    0    0  501    0  0.00000000000E+00  0.00000000000E+00  0.99022370061E+03  0.99022370061E+03  0.00000000000E+00 0.  1.
         -2   -1    0    0    0  501 -0.00000000000E+00 -0.00000000000E+00 -0.19528124674E+03  0.19528124674E+03  0.00000000000E+00 0. -1.
         23    2    1    2    0    0 -0.40064726813E+03 -0.13332157126E+03  0.26233817155E+03  0.50582840930E+03  0.93531751737E+02 0.  0.
         11    1    3    3    0    0 -0.39389191331E+03 -0.12594641078E+03  0.26943300801E+03  0.49356608834E+03  0.00000000000E+00 0. -1.
        -11    1    3    3    0    0 -0.67553548194E+01 -0.73751604767E+01 -0.70948364619E+01  0.12262320955E+02  0.00000000000E+00 0.  1.
         22    1    1    2    0    0  0.40064726813E+03  0.13332157126E+03  0.53260428232E+03  0.67967653804E+03  0.00000000000E+00 0.  1.
<mgrwt>
<rscale>  0 0.87948194E+03</rscale>
<asrwt>0</asrwt>
<pdfrwt beam="1">  1        2 0.15234210E+00 0.87948194E+03</pdfrwt>
<pdfrwt beam="2">  1       -2 0.30043269E-01 0.87948194E+03</pdfrwt>
<totfact> 0.26185397E+02</totfact>
</mgrwt>
</event>
<event>
 6    1  0.1773638E-005  0.8962258E+03  0.7818608E-02  0.9430312E-01
         -2   -1    0    0    0  501 -0.00000000000E+00  0.00000000000E+00  0.28772775773E+03  0.28772775773E+03  0.00000000000E+00 0. -1.
          2   -1    0    0  501    0  0.00000000000E+00 -0.00000000000E+00 -0.69789995430E+03  0.69789995430E+03  0.00000000000E+00 0.  1.
         23    2    1    2    0    0  0.70500221949E+02  0.42063830033E+03 -0.34072890852E+03  0.55350593376E+03  0.91464575712E+02 0.  0.
         13    1    3    3    0    0  0.75731862684E+02  0.19559405069E+03 -0.18615825481E+03  0.28044115876E+03  0.00000000000E+00 0.  1.
        -13    1    3    3    0    0 -0.52316407348E+01  0.22504424964E+03 -0.15457065370E+03  0.27306477500E+03  0.00000000000E+00 0. -1.
         22    1    1    2    0    0 -0.70500221949E+02 -0.42063830033E+03 -0.69443288044E+02  0.43212177827E+03  0.00000000000E+00 0. -1.
<mgrwt>
<rscale>  0 0.89622584E+03</rscale>
<asrwt>0</asrwt>
<pdfrwt beam="1">  1        2 0.10736922E+00 0.89622584E+03</pdfrwt>
<pdfrwt beam="2">  1       -2 0.44265809E-01 0.89622584E+03</pdfrwt>
<totfact> 0.19964382E+02</totfact>
</mgrwt>
</event>
<event>
 6    1  0.1773638E-005  0.2069535E+04  0.7818608E-02  0.8574783E-01
         -1   -1    0    0    0  501 -0.00000000000E+00  0.00000000000E+00  0.65489715362E+03  0.65489715362E+03  0.00000000000E+00 0.  1.
          1   -1    0    0  501    0  0.00000000000E+00 -0.00000000000E+00 -0.16349803580E+04  0.16349803580E+04  0.00000000000E+00 0. -1.
         23    2    1    2    0    0  0.68753490636E+03 -0.13518132087E+03  0.34863568541E+03  0.78772168579E+03  0.89332951038E+02 0.  0.
         13    1    3    3    0    0  0.43536933365E+03 -0.12914292996E+03  0.22641374712E+03  0.50743229886E+03  0.00000000000E+00 0. -1.
        -13    1    3    3    0    0  0.25216557271E+03 -0.60383909185E+01  0.12222193829E+03  0.28028938693E+03  0.00000000000E+00 0.  1.
         22    1    1    2    0    0 -0.68753490636E+03  0.13518132087E+03 -0.13287188898E+04  0.15021558258E+04  0.00000000000E+00 0. -1.
<mgrwt>
<rscale>  0 0.20695352E+04</rscale>
<asrwt>0</asrwt>
<pdfrwt beam="1">  1        1 0.25153544E+00 0.20695352E+04</pdfrwt>
<pdfrwt beam="2">  1       -1 0.10075341E+00 0.20695352E+04</pdfrwt>
<totfact> 0.45607777E+00</totfact>
</mgrwt>
</event>
<event>
 6    1  0.1773638E-005  0.1799639E+04  0.7818608E-02  0.8706491E-01
          2   -1    0    0  501    0  0.00000000000E+00  0.00000000000E+00  0.17210344461E+04  0.17210344461E+04  0.00000000000E+00 0. -1.
         -2   -1    0    0    0  501 -0.00000000000E+00 -0.00000000000E+00 -0.47045848905E+03  0.47045848905E+03  0.00000000000E+00 0.  1.
         23    2    1    2    0    0 -0.46306136724E+03 -0.75247985680E+03  0.81871347903E+03  0.12080515467E+04  0.91896756782E+02 0.  0.
         13    1    3    3    0    0 -0.12969977820E+03 -0.26707289912E+03  0.23196001114E+03  0.37676970774E+03  0.00000000000E+00 0.  1.
        -13    1    3    3    0    0 -0.33336158904E+03 -0.48540695768E+03  0.58675346789E+03  0.83128183891E+03  0.00000000000E+00 0. -1.
         22    1    1    2    0    0  0.46306136724E+03  0.75247985680E+03  0.43186247806E+03  0.98344138853E+03  0.00000000000E+00 0.  1.
<mgrwt>
<rscale>  0 0.17996391E+04</rscale>
<asrwt>0</asrwt>
<pdfrwt beam="1">  1        2 0.26477453E+00 0.17996391E+04</pdfrwt>
<pdfrwt beam="2">  1       -2 0.72378230E-01 0.17996391E+04</pdfrwt>
<totfact> 0.15567452E+01</totfact>
</mgrwt>
</event>
<event>
 6    1  0.1773638E-005  0.6663395E+03  0.7818608E-02  0.9776593E-01
         -1   -1    0    0    0  501 -0.00000000000E+00  0.00000000000E+00  0.30740719234E+03  0.30740719234E+03  0.00000000000E+00 0.  1.
          1   -1    0    0  501    0  0.00000000000E+00 -0.00000000000E+00 -0.36109131458E+03  0.36109131458E+03  0.00000000000E+00 0. -1.
         23    2    1    2    0    0 -0.14455467996E+03 -0.11035376690E+03 -0.30006997966E+03  0.36226330302E+03  0.90103821513E+02 0.  0.
         11    1    3    3    0    0 -0.41935848701E+02 -0.94817360915E+01 -0.14264301158E+03  0.14898170182E+03  0.00000000000E+00 0. -1.
        -11    1    3    3    0    0 -0.10261883126E+03 -0.10087203081E+03 -0.15742696808E+03  0.21328160119E+03  0.00000000000E+00 0.  1.
         22    1    1    2    0    0  0.14455467996E+03  0.11035376690E+03  0.24638585742E+03  0.30623520389E+03  0.00000000000E+00 0.  1.
<mgrwt>
<rscale>  0 0.66633945E+03</rscale>
<asrwt>0</asrwt>
<pdfrwt beam="1">  1        1 0.55552510E-01 0.66633945E+03</pdfrwt>
<pdfrwt beam="2">  1       -1 0.47293414E-01 0.66633945E+03</pdfrwt>
<totfact> 0.31074304E+02</totfact>
</mgrwt>
</event>
<event>
 6    1  0.1773638E-005  0.1273937E+04  0.7818608E-02  0.9050493E-01
          2   -1    0    0  501    0  0.00000000000E+00  0.00000000000E+00  0.46411945891E+03  0.46411945891E+03  0.00000000000E+00 0. -1.
         -2   -1    0    0    0  501 -0.00000000000E+00 -0.00000000000E+00 -0.87419032465E+03  0.87419032465E+03  0.00000000000E+00 0.  1.
         23    2    1    2    0    0 -0.53317039085E+03  0.22902128806E+03 -0.47373755005E+03  0.75455053288E+03  0.90541837148E+02 0.  0.
         11    1    3    3    0    0 -0.43386068540E+03  0.21314732862E+03 -0.35993458025E+03  0.60267717734E+03  0.00000000000E+00 0.  1.
        -11    1    3    3    0    0 -0.99309705456E+02  0.15873959437E+02 -0.11380296980E+03  0.15187335554E+03  0.00000000000E+00 0. -1.
         22    1    1    2    0    0  0.53317039085E+03 -0.22902128806E+03  0.63666684303E+02  0.58375925068E+03  0.00000000000E+00 0. -1.
<mgrwt>
<rscale>  0 0.12739368E+04</rscale>
<asrwt>0</asrwt>
<pdfrwt beam="1">  1        2 0.71402994E-01 0.12739368E+04</pdfrwt>
<pdfrwt beam="2">  1       -2 0.13449082E+00 0.12739368E+04</pdfrwt>
<totfact> 0.26237167E+01</totfact>
</mgrwt>
</event>
<event>
 6    1  0.1773638E-005  0.4465643E+04  0.7818608E-02  0.7916679E-01
          1   -1    0    0  501    0  0.00000000000E+00  0.00000000000E+00  0.36717733060E+04  0.36717733060E+04  0.00000000000E+00 0. -1.
         -1   -1    0    0    0  501 -0.00000000000E+00 -0.00000000000E+00 -0.13577884583E+04  0.13577884583E+04  0.00000000000E+00 0.  1.
         23    2    1    2    0    0 -0.21802073318E+04 -0.32862923204E+03  0.76724019325E+03  0.23362886241E+04  0.91026583839E+02 0.  0.
         13    1    3    3    0    0 -0.10343698531E+04 -0.19923758337E+03  0.38240785101E+03  0.11206481928E+04  0.00000000000E+00 0. -1.
        -13    1    3    3    0    0 -0.11458374788E+04 -0.12939164867E+03  0.38483234224E+03  0.12156404313E+04  0.00000000000E+00 0.  1.
         22    1    1    2    0    0  0.21802073318E+04  0.32862923204E+03  0.15467446544E+04  0.26932731402E+04  0.00000000000E+00 0. -1.
<mgrwt>
<rscale>  0 0.44656428E+04</rscale>
<asrwt>0</asrwt>
<pdfrwt beam="1">  1        1 0.56488820E+00 0.44656428E+04</pdfrwt>
<pdfrwt beam="2">  1       -1 0.20889053E+00 0.44656428E+04</pdfrwt>
<totfact> 0.17900164E-02</totfact>
</mgrwt>
</event>
<event>
 6    1  0.1773638E-005  0.2605331E+04  0.7818608E-02  0.8366393E-01
          2   -1    0    0  501    0  0.00000000000E+00  0.00000000000E+00  0.18557363721E+04  0.18557363721E+04  0.00000000000E+00 0. -1.
         -2   -1    0    0    0  501 -0.00000000000E+00 -0.00000000000E+00 -0.91442799491E+03  0.91442799491E+03  0.00000000000E+00 0.  1.
         23    2    1    2    0    0 -0.12161641401E+04  0.15222624975E+03  0.59421266975E+01  0.12283673410E+04  0.81381624812E+02 0.  0.
         13    1    3    3    0    0 -0.76659462867E+03  0.13490490091E+03 -0.27972831112E+01  0.77837939450E+03  0.00000000000E+00 0.  1.
        -13    1    3    3    0    0 -0.44956951143E+03  0.17321348834E+02  0.87394098087E+01  0.44998794652E+03  0.00000000000E+00 0. -1.
         22    1    1    2    0    0  0.12161641401E+04 -0.15222624975E+03  0.93536625050E+03  0.15417970260E+04  0.00000000000E+00 0.  1.
<mgrwt>
<rscale>  0 0.26053309E+04</rscale>
<asrwt>0</asrwt>
<pdfrwt beam="1">  1        2 0.28549790E+00 0.26053309E+04</pdfrwt>
<pdfrwt beam="2">  1       -2 0.14068123E+00 0.26053309E+04</pdfrwt>
<totfact> 0.25199809E+00</totfact>
</mgrwt>
</event>
<event>
 6    1  0.1773638E-005  0.2015042E+04  0.7818608E-02  0.8599620E-01
          2   -1    0    0  501    0  0.00000000000E+00  0.00000000000E+00  0.20568254025E+04  0.20568254025E+04  0.00000000000E+00 0. -1.
         -2   -1    0    0    0  501 -0.00000000000E+00 -0.00000000000E+00 -0.49352677355E+03  0.49352677355E+03  0.00000000000E+00 0.  1.
         23    2    1    2    0    0  0.54094803075E+03  0.41658402393E+03  0.17174190498E+04  0.18504092319E+04  0.91209166476E+02 0.  0.
         11    1    3    3    0    0  0.26958306046E+03  0.25420079981E+03  0.99745697411E+03  0.10640552092E+04  0.00000000000E+00 0. -1.
        -11    1    3    3    0    0  0.27136497029E+03  0.16238322411E+03  0.71996207569E+03  0.78635402270E+03  0.00000000000E+00 0.  1.
         22    1    1    2    0    0 -0.54094803075E+03 -0.41658402393E+03 -0.15412042082E+03  0.69994294416E+03  0.00000000000E+00 0.  1.
<mgrwt>
<rscale>  0 0.20150418E+04</rscale>
<asrwt>0</asrwt>
<pdfrwt beam="1">  1        2 0.31643467E+00 0.20150418E+04</pdfrwt>
<pdfrwt beam="2">  1       -2 0.75927197E-01 0.20150418E+04</pdfrwt>
<totfact> 0.89550058E+00</totfact>
</mgrwt>
</event>
<event>
 6    1  0.1773638E-005  0.2724886E+04  0.7818608E-02  0.8326975E-01
          1   -1    0    0  501    0  0.00000000000E+00  0.00000000000E+00  0.20735520286E+04  0.20735520286E+04  0.00000000000E+00 0. -1.
         -1   -1    0    0    0  501 -0.00000000000E+00 -0.00000000000E+00 -0.89520327015E+03  0.89520327015E+03  0.00000000000E+00 0.  1.
         23    2    1    2    0    0  0.77309648636E+03 -0.70456813200E+03 -0.35603685448E+03  0.11117594347E+04  0.12309495973E+03 0.  0.
         13    1    3    3    0    0  0.44512252175E+03 -0.47966579055E+03 -0.19617884908E+03  0.68315406082E+03  0.00000000000E+00 0.  1.
        -13    1    3    3    0    0  0.32797396461E+03 -0.22490234145E+03 -0.15985800541E+03  0.42860537391E+03  0.00000000000E+00 0. -1.
         22    1    1    2    0    0 -0.77309648636E+03  0.70456813200E+03  0.15343856130E+04  0.18569958641E+04  0.00000000000E+00 0. -1.
<mgrwt>
<rscale>  0 0.27248857E+04</rscale>
<asrwt>0</asrwt>
<pdfrwt beam="1">  1        1 0.31900800E+00 0.27248857E+04</pdfrwt>
<pdfrwt beam="2">  1       -1 0.13772358E+00 0.27248857E+04</pdfrwt>
<totfact> 0.10123149E+00</totfact>
</mgrwt>
</event>
<event>
 6    1  0.1773638E-005  0.5700997E+03  0.7818608E-02  0.9969458E-01
         -2   -1    0    0    0  501 -0.00000000000E+00  0.00000000000E+00  0.63071423893E+02  0.63071423893E+02  0.00000000000E+00 0.  1.
          2   -1    0    0  501    0  0.00000000000E+00 -0.00000000000E+00 -0.12882763824E+04  0.12882763824E+04  0.00000000000E+00 0. -1.
         23    2    1    2    0    0  0.17550959176E+03 -0.11132441924E+03 -0.10639770416E+04  0.10883056342E+04  0.95735391848E+02 0.  0.
         11    1    3    3    0    0  0.16267816487E+03 -0.65150244969E+02 -0.92063134673E+03  0.93716104076E+03  0.00000000000E+00 0. -1.
        -11    1    3    3    0    0  0.12831426894E+02 -0.46174174273E+02 -0.14334569485E+03  0.15114459341E+03  0.00000000000E+00 0.  1.
         22    1    1    2    0    0 -0.17550959176E+03  0.11132441924E+03 -0.16122791696E+03  0.26304217214E+03  0.00000000000E+00 0.  1.
<mgrwt>
<rscale>  0 0.57009973E+03</rscale>
<asrwt>0</asrwt>
<pdfrwt beam="1">  1        2 0.19819634E+00 0.57009973E+03</pdfrwt>
<pdfrwt beam="2">  1       -2 0.97032970E-02 0.57009973E+03</pdfrwt>
<totfact> 0.12275391E+03</totfact>
</mgrwt>
</event>
<event>
 6    1  0.1773638E-005  0.1265497E+04  0.7818608E-02  0.9057383E-01
         -2   -1    0    0    0  501 -0.00000000000E+00  0.00000000000E+00  0.47862385748E+03  0.47862385748E+03  0.00000000000E+00 0. -1.
          2   -1    0    0  501    0  0.00000000000E+00 -0.00000000000E+00 -0.83650437622E+03  0.83650437622E+03  0.00000000000E+00 0.  1.
         23    2    1    2    0    0 -0.25403937687E+03  0.22253400525E+03  0.37206225230E+03  0.51084355928E+03  0.92051257348E+02 0.  0.
         11    1    3    3    0    0 -0.19218591961E+03  0.19917277993E+03  0.33671688957E+03  0.43587095302E+03  0.00000000000E+00 0. -1.
        -11    1    3    3    0    0 -0.61853457263E+02  0.23361225316E+02  0.35345362731E+02  0.74972606266E+02  0.00000000000E+00 0.  1.
         22    1    1    2    0    0  0.25403937687E+03 -0.22253400525E+03 -0.72994277104E+03  0.80428467441E+03  0.00000000000E+00 0.  1.
<mgrwt>
<rscale>  0 0.12654975E+04</rscale>
<asrwt>0</asrwt>
<pdfrwt beam="1">  1        2 0.12869298E+00 0.12654975E+04</pdfrwt>
<pdfrwt beam="2">  1       -2 0.73634440E-01 0.12654975E+04</pdfrwt>
<totfact> 0.53026545E+01</totfact>
</mgrwt>
</event>
<event>
 6    1  0.1773638E-005  0.3160878E+04  0.7818608E-02  0.8199226E-01
         -1   -1    0    0    0  501 -0.00000000000E+00  0.00000000000E+00  0.86308408095E+03  0.86308408095E+03  0.00000000000E+00 0.  1.
          1   -1    0    0  501    0  0.00000000000E+00 -0.00000000000E+00 -0.28940251541E+04  0.28940251541E+04  0.00000000000E+00 0. -1.
         23    2    1    2    0    0 -0.14865566328E+04 -0.24734829582E+03 -0.15770244911E+04  0.21832375550E+04  0.92131286739E+02 0.  0.
         11    1    3    3    0    0 -0.51374660342E+03 -0.57654501629E+02 -0.59038375147E+03  0.78473727329E+03  0.00000000000E+00 0. -1.
        -11    1    3    3    0    0 -0.97281002933E+03 -0.18969379419E+03 -0.98664073966E+03  0.13985002817E+04  0.00000000000E+00 0.  1.
         22    1    1    2    0    0  0.14865566328E+04  0.24734829582E+03 -0.45391658198E+03  0.15738716800E+04  0.00000000000E+00 0.  1.
<mgrwt>
<rscale>  0 0.31608778E+04</rscale>
<asrwt>0</asrwt>
<pdfrwt beam="1">  1        1 0.44523464E+00 0.31608778E+04</pdfrwt>
<pdfrwt beam="2">  1       -1 0.13278217E+00 0.31608778E+04</pdfrwt>
<totfact> 0.28764995E-01</totfact>
</mgrwt>
</event>
<event>
 6    1  0.1773638E-005  0.2358735E+04  0.7818608E-02  0.8455116E-01
         -2   -1    0    0    0  501 -0.00000000000E+00  0.00000000000E+00  0.11423713763E+04  0.11423713763E+04  0.00000000000E+00 0.  1.
          2   -1    0    0  501    0  0.00000000000E+00 -0.00000000000E+00 -0.12175620791E+04  0.12175620791E+04  0.00000000000E+00 0. -1.
         23    2    1    2    0    0 -0.17354874009E+02 -0.27755951544E+03  0.11071268769E+04  0.11453490263E+04  0.93562782759E+02 0.  0.
         13    1    3    3    0    0 -0.27673910350E+02 -0.19467888366E+03  0.60025510712E+03  0.63164222997E+03  0.00000000000E+00 0.  1.
        -13    1    3    3    0    0  0.10319036341E+02 -0.82880631772E+02  0.50687176977E+03  0.51370679636E+03  0.00000000000E+00 0. -1.
         22    1    1    2    0    0  0.17354874009E+02  0.27755951544E+03 -0.11823175797E+04  0.12145844291E+04  0.00000000000E+00 0. -1.
<mgrwt>
<rscale>  0 0.23587353E+04</rscale>
<asrwt>0</asrwt>
<pdfrwt beam="1">  1        2 0.18731724E+00 0.23587353E+04</pdfrwt>
<pdfrwt beam="2">  1       -2 0.17574944E+00 0.23587353E+04</pdfrwt>
<totfact> 0.32383026E+00</totfact>
</mgrwt>
</event>
<event>
 6    1  0.1773638E-005  0.2807116E+04  0.7818608E-02  0.8301062E-01
          2   -1    0    0  501    0  0.00000000000E+00  0.00000000000E+00  0.26771513923E+04  0.26771513923E+04  0.00000000000E+00 0.  1.
         -2   -1    0    0    0  501 -0.00000000000E+00 -0.00000000000E+00 -0.73584762285E+03  0.73584762285E+03  0.00000000000E+00 0. -1.
         23    2    1    2    0    0 -0.10951650413E+04  0.19214251743E+03 -0.66773111728E+02  0.11176389180E+04  0.91394134586E+02 0.  0.
         13    1    3    3    0    0 -0.98409111646E+03  0.16139336921E+03 -0.85416528861E+02  0.10008891690E+04  0.00000000000E+00 0.  1.
        -13    1    3    3    0    0 -0.11107392489E+03  0.30749148218E+02  0.18643417133E+02  0.11674974907E+03  0.00000000000E+00 0. -1.
         22    1    1    2    0    0  0.10951650413E+04 -0.19214251743E+03  0.20080768812E+04  0.22953600971E+04  0.00000000000E+00 0. -1.
<mgrwt>
<rscale>  0 0.28071163E+04</rscale>
<asrwt>0</asrwt>
<pdfrwt beam="1">  1        2 0.41186944E+00 0.28071163E+04</pdfrwt>
<pdfrwt beam="2">  1       -2 0.11320733E+00 0.28071163E+04</pdfrwt>
<totfact> 0.14594597E+00</totfact>
</mgrwt>
</event>
<event>
 6    1  0.1773638E-005  0.3450368E+04  0.7818608E-02  0.8125654E-01
          2   -1    0    0  501    0  0.00000000000E+00  0.00000000000E+00  0.25935667278E+04  0.25935667278E+04  0.00000000000E+00 0. -1.
         -2   -1    0    0    0  501 -0.00000000000E+00 -0.00000000000E+00 -0.11475548247E+04  0.11475548247E+04  0.00000000000E+00 0.  1.
         23    2    1    2    0    0  0.15983291134E+04 -0.63227921662E+03  0.57801807177E+03  0.18155446900E+04  0.87548087543E+02 0.  0.
         11    1    3    3    0    0  0.51874420012E+03 -0.16631802162E+03  0.20280189636E+03  0.58127948411E+03  0.00000000000E+00 0.  1.
        -11    1    3    3    0    0  0.10795849132E+04 -0.46596119500E+03  0.37521617541E+03  0.12342652059E+04  0.00000000000E+00 0. -1.
         22    1    1    2    0    0 -0.15983291134E+04  0.63227921662E+03  0.86799383137E+03  0.19255768626E+04  0.00000000000E+00 0.  1.
<mgrwt>
<rscale>  0 0.34503681E+04</rscale>
<asrwt>0</asrwt>
<pdfrwt beam="1">  1        2 0.39901026E+00 0.34503681E+04</pdfrwt>
<pdfrwt beam="2">  1       -2 0.17654690E+00 0.34503681E+04</pdfrwt>
<totfact> 0.48526010E-01</totfact>
</mgrwt>
</event>
<event>
 6    1  0.1773638E-005  0.9826340E+03  0.7818608E-02  0.9327799E-01
         -2   -1    0    0    0  501 -0.00000000000E+00  0.00000000000E+00  0.76048386553E+02  0.76048386553E+02  0.00000000000E+00 0. -1.
          2   -1    0    0  501    0  0.00000000000E+00 -0.00000000000E+00 -0.31741946356E+04  0.31741946356E+04  0.00000000000E+00 0.  1.
         23    2    1    2    0    0 -0.37079252332E+03 -0.31015999285E+03 -0.17472434591E+04  0.18154522136E+04  0.96543864997E+02 0.  0.
         11    1    3    3    0    0 -0.20493165226E+03 -0.12976327548E+03 -0.73599524767E+03  0.77493515493E+03  0.00000000000E+00 0.  1.
        -11    1    3    3    0    0 -0.16586087106E+03 -0.18039671737E+03 -0.10112482115E+04  0.10405170587E+04  0.00000000000E+00 0. -1.
         22    1    1    2    0    0  0.37079252332E+03  0.31015999285E+03 -0.13509027900E+04  0.14347908086E+04  0.00000000000E+00 0.  1.
<mgrwt>
<rscale>  0 0.98263397E+03</rscale>
<asrwt>0</asrwt>
<pdfrwt beam="1">  1        2 0.48833753E+00 0.98263397E+03</pdfrwt>
<pdfrwt beam="2">  1       -2 0.11699754E-01 0.98263397E+03</pdfrwt>
<totfact> 0.73865291E+01</totfact>
</mgrwt>
</event>
<event>
 6    1  0.1773638E-005  0.2358972E+04  0.7818608E-02  0.8455026E-01
         -2   -1    0    0    0  501 -0.00000000000E+00  0.00000000000E+00  0.50506472300E+03  0.50506472300E+03  0.00000000000E+00 0.  1.
          2   -1    0    0  501    0  0.00000000000E+00 -0.00000000000E+00 -0.27544721445E+04  0.27544721445E+04  0.00000000000E+00 0. -1.
         23    2    1    2    0    0 -0.52932765363E+03  0.10354918172E+04 -0.86971878299E+03  0.14551057084E+04  0.92145497887E+02 0.  0.
         11    1    3    3    0    0 -0.17401155730E+03  0.43957227542E+03 -0.34876830422E+03  0.58748884026E+03  0.00000000000E+00 0.  1.
        -11    1    3    3    0    0 -0.35531609633E+03  0.59591954182E+03 -0.52095047877E+03  0.86761686819E+03  0.00000000000E+00 0. -1.
         22    1    1    2    0    0  0.52932765363E+03 -0.10354918172E+04 -0.13796886385E+04  0.18044311590E+04  0.00000000000E+00 0. -1.
<mgrwt>
<rscale>  0 0.23589716E+04</rscale>
<asrwt>0</asrwt>
<pdfrwt beam="1">  1        2 0.42376492E+00 0.23589716E+04</pdfrwt>
<pdfrwt beam="2">  1       -2 0.77702269E-01 0.23589716E+04</pdfrwt>
<totfact> 0.32804885E+00</totfact>
</mgrwt>
</event>
<event>
 6    1  0.1773638E-005  0.3724999E+04  0.7818608E-02  0.8062444E-01
         -2   -1    0    0    0  501 -0.00000000000E+00  0.00000000000E+00  0.31900478427E+04  0.31900478427E+04  0.00000000000E+00 0.  1.
          2   -1    0    0  501    0  0.00000000000E+00 -0.00000000000E+00 -0.10874143702E+04  0.10874143702E+04  0.00000000000E+00 0. -1.
         23    2    1    2    0    0 -0.84106745659E+03 -0.35543996071E+02  0.29582452148E+04  0.30771583782E+04  0.95032055728E+02 0.  0.
         13    1    3    3    0    0 -0.55480617052E+03 -0.12086329854E+02  0.17853197487E+04  0.18695781800E+04  0.00000000000E+00 0. -1.
        -13    1    3    3    0    0 -0.28626128607E+03 -0.23457666217E+02  0.11729254661E+04  0.12075801982E+04  0.00000000000E+00 0.  1.
         22    1    1    2    0    0  0.84106745659E+03  0.35543996071E+02 -0.85561174228E+03  0.12003038348E+04  0.00000000000E+00 0. -1.
<mgrwt>
<rscale>  0 0.37249987E+04</rscale>
<asrwt>0</asrwt>
<pdfrwt beam="1">  1        2 0.16729452E+00 0.37249987E+04</pdfrwt>
<pdfrwt beam="2">  1       -2 0.49077659E+00 0.37249987E+04</pdfrwt>
<totfact> 0.33711391E-02</totfact>
</mgrwt>
</event>
<event>
 6    1  0.1773638E-005  0.1920574E+04  0.7818608E-02  0.8644683E-01
         -1   -1    0    0    0  501 -0.00000000000E+00  0.00000000000E+00  0.14375011459E+04  0.14375011459E+04  0.00000000000E+00 0.  1.
          1   -1    0    0  501    0  0.00000000000E+00 -0.00000000000E+00 -0.64149567440E+03  0.64149567440E+03  0.00000000000E+00 0. -1.
         23    2    1    2    0    0 -0.90825597186E+02  0.20562573432E+03  0.14070999860E+04  0.14278687704E+04  0.91365328698E+02 0.  0.
         13    1    3    3    0    0 -0.68817607401E+02  0.15798137186E+03  0.79176788698E+03  0.81030263717E+03  0.00000000000E+00 0.  1.
        -13    1    3    3    0    0 -0.22007989785E+02  0.47644362460E+02  0.61533209902E+03  0.61756613328E+03  0.00000000000E+00 0. -1.
         22    1    1    2    0    0  0.90825597186E+02 -0.20562573432E+03 -0.61109451447E+03  0.65112804988E+03  0.00000000000E+00 0. -1.
<mgrwt>
<rscale>  0 0.19205736E+04</rscale>
<asrwt>0</asrwt>
<pdfrwt beam="1">  1        1 0.98691642E-01 0.19205736E+04</pdfrwt>
<pdfrwt beam="2">  1       -1 0.22115402E+00 0.19205736E+04</pdfrwt>
<totfact> 0.31353449E+00</totfact>
</mgrwt>
</event>
<event>
 6    1  0.1773638E-005  0.3412275E+04  0.7818608E-02  0.8134900E-01
         -1   -1    0    0    0  501 -0.00000000000E+00  0.00000000000E+00  0.10094380768E+04  0.10094380768E+04  0.00000000000E+00 0.  1.
          1   -1    0    0  501    0  0.00000000000E+00 -0.00000000000E+00 -0.28836890153E+04  0.28836890153E+04  0.00000000000E+00 0. -1.
         23    2    1    2    0    0 -0.12467201153E+03  0.16003122953E+04 -0.15934425529E+04  0.22635885371E+04  0.90726749881E+02 0.  0.
         11    1    3    3    0    0 -0.52806073020E+02  0.64943060586E+03 -0.70994593553E+03  0.96362431712E+03  0.00000000000E+00 0.  1.
        -11    1    3    3    0    0 -0.71865938514E+02  0.95088168941E+03 -0.88349661740E+03  0.12999642200E+04  0.00000000000E+00 0. -1.
         22    1    1    2    0    0  0.12467201153E+03 -0.16003122953E+04 -0.28080838554E+03  0.16295385550E+04  0.00000000000E+00 0.  1.
<mgrwt>
<rscale>  0 0.34122752E+04</rscale>
<asrwt>0</asrwt>
<pdfrwt beam="1">  1        1 0.44364447E+00 0.34122752E+04</pdfrwt>
<pdfrwt beam="2">  1       -1 0.15529816E+00 0.34122752E+04</pdfrwt>
<totfact> 0.18925359E-01</totfact>
</mgrwt>
</event>
<event>
 6    1  0.1773638E-005  0.4815214E+04  0.7818608E-02  0.7857662E-01
         -2   -1    0    0    0  501 -0.00000000000E+00  0.00000000000E+00  0.19624584764E+04  0.19624584764E+04  0.00000000000E+00 0.  1.
          2   -1    0    0  501    0  0.00000000000E+00 -0.00000000000E+00 -0.29537295345E+04  0.29537295345E+04  0.00000000000E+00 0. -1.
         23    2    1    2    0    0 -0.62209439259E+03  0.14516652762E+04  0.13584059014E+04  0.20850547888E+04  0.88619252007E+02 0.  0.
         11    1    3    3    0    0 -0.42311690804E+03  0.90249745418E+03  0.89146218924E+03  0.13372488203E+04  0.00000000000E+00 0.  1.
        -11    1    3    3    0    0 -0.19897748456E+03  0.54916782198E+03  0.46694371219E+03  0.74780596842E+03  0.00000000000E+00 0. -1.
         22    1    1    2    0    0  0.62209439259E+03 -0.14516652762E+04 -0.23496769595E+04  0.28311332221E+04  0.00000000000E+00 0. -1.
<mgrwt>
<rscale>  0 0.48152140E+04</rscale>
<asrwt>0</asrwt>
<pdfrwt beam="1">  1        2 0.45441993E+00 0.48152140E+04</pdfrwt>
<pdfrwt beam="2">  1       -2 0.30191669E+00 0.48152140E+04</pdfrwt>
<totfact> 0.42513989E-02</totfact>
</mgrwt>
</event>
<event>
 6    1  0.1773638E-005  0.2230475E+04  0.7818608E-02  0.8505850E-01
         -1   -1    0    0    0  501 -0.00000000000E+00  0.00000000000E+00  0.58338028313E+03  0.58338028313E+03  0.00000000000E+00 0.  1.
          1   -1    0    0  501    0  0.00000000000E+00 -0.00000000000E+00 -0.21319786614E+04  0.21319786614E+04  0.00000000000E+00 0. -1.
         23    2    1    2    0    0  0.51421683665E+03 -0.18924738303E+03 -0.19555545107E+04  0.20328292231E+04  0.89261855707E+02 0.  0.
         11    1    3    3    0    0  0.23340580609E+03 -0.59597460944E+02 -0.99302803409E+03  0.10218291463E+04  0.00000000000E+00 0.  1.
        -11    1    3    3    0    0  0.28081103056E+03 -0.12964992208E+03 -0.96252647657E+03  0.10110000768E+04  0.00000000000E+00 0. -1.
         22    1    1    2    0    0 -0.51421683665E+03  0.18924738303E+03  0.40695613235E+03  0.68252972150E+03  0.00000000000E+00 0.  1.
<mgrwt>
<rscale>  0 0.22304747E+04</rscale>
<asrwt>0</asrwt>
<pdfrwt beam="1">  1        1 0.32799672E+00 0.22304747E+04</pdfrwt>
<pdfrwt beam="2">  1       -1 0.89750811E-01 0.22304747E+04</pdfrwt>
<totfact> 0.26782902E+00</totfact>
</mgrwt>
</event>
<event>
 6    1  0.1773638E-005  0.3343055E+04  0.7818608E-02  0.8152026E-01
         -2   -1    0    0    0  501 -0.00000000000E+00  0.00000000000E+00  0.14131646440E+04  0.14131646440E+04  0.00000000000E+00 0.  1.
          2   -1    0    0  501    0  0.00000000000E+00 -0.00000000000E+00 -0.19771263068E+04  0.19771263068E+04  0.00000000000E+00 0. -1.
         23    2    1    2    0    0 -0.12062498044E+04  0.59106229439E+03 -0.12889346217E+04  0.18638640715E+04  0.90794226489E+02 0.  0.
         11    1    3    3    0    0 -0.54613437574E+03  0.28195738797E+03 -0.52985405272E+03  0.81148508439E+03  0.00000000000E+00 0. -1.
        -11    1    3    3    0    0 -0.66011542869E+03  0.30910490642E+03 -0.75908056899E+03  0.10523789871E+04  0.00000000000E+00 0.  1.
         22    1    1    2    0    0  0.12062498044E+04 -0.59106229439E+03  0.72497295892E+03  0.15264268793E+04  0.00000000000E+00 0.  1.
<mgrwt>
<rscale>  0 0.33430555E+04</rscale>
<asrwt>0</asrwt>
<pdfrwt beam="1">  1        2 0.30417328E+00 0.33430555E+04</pdfrwt>
<pdfrwt beam="2">  1       -2 0.21740995E+00 0.33430555E+04</pdfrwt>
<totfact> 0.58783285E-01</totfact>
</mgrwt>
</event>
<event>
 6    1  0.1773638E-005  0.1623122E+04  0.7818608E-02  0.8806468E-01
          1   -1    0    0  501    0  0.00000000000E+00  0.00000000000E+00  0.30003461923E+03  0.30003461923E+03  0.00000000000E+00 0. -1.
         -1   -1    0    0    0  501 -0.00000000000E+00 -0.00000000000E+00 -0.21951851538E+04  0.21951851538E+04  0.00000000000E+00 0.  1.
         23    2    1    2    0    0 -0.73551275092E+02 -0.43257773187E+03 -0.19953979531E+04  0.20451277502E+04  0.91658273535E+02 0.  0.
         13    1    3    3    0    0 -0.70423509374E+02 -0.15718918894E+03 -0.82017358936E+03  0.83806481162E+03  0.00000000000E+00 0. -1.
        -13    1    3    3    0    0 -0.31277657172E+01 -0.27538854293E+03 -0.11752243637E+04  0.12070629385E+04  0.00000000000E+00 0.  1.
         22    1    1    2    0    0  0.73551275092E+02  0.43257773187E+03  0.10024741848E+03  0.45009202291E+03  0.00000000000E+00 0. -1.
<mgrwt>
<rscale>  0 0.16231224E+04</rscale>
<asrwt>0</asrwt>
<pdfrwt beam="1">  1        1 0.46159172E-01 0.16231224E+04</pdfrwt>
<pdfrwt beam="2">  1       -1 0.33772079E+00 0.16231224E+04</pdfrwt>
<totfact> 0.15777643E+00</totfact>
</mgrwt>
</event>
<event>
 6    1  0.1773638E-005  0.2564768E+04  0.7818608E-02  0.8380268E-01
          1   -1    0    0  501    0  0.00000000000E+00  0.00000000000E+00  0.19252149334E+04  0.19252149334E+04  0.00000000000E+00 0. -1.
         -1   -1    0    0    0  501 -0.00000000000E+00 -0.00000000000E+00 -0.85419503692E+03  0.85419503692E+03  0.00000000000E+00 0.  1.
         23    2    1    2    0    0  0.32901797872E+02  0.37414130907E+03  0.18631358134E+04  0.19027618805E+04  0.90351907328E+02 0.  0.
         13    1    3    3    0    0 -0.26132285010E+02  0.18051756818E+03  0.80044624747E+03  0.82096509295E+03  0.00000000000E+00 0. -1.
        -13    1    3    3    0    0  0.59034082882E+02  0.19362374089E+03  0.10626895659E+04  0.10817967875E+04  0.00000000000E+00 0.  1.
         22    1    1    2    0    0 -0.32901797872E+02 -0.37414130907E+03 -0.79211591696E+03  0.87664808980E+03  0.00000000000E+00 0.  1.
<mgrwt>
<rscale>  0 0.25647682E+04</rscale>
<asrwt>0</asrwt>
<pdfrwt beam="1">  1        1 0.29618691E+00 0.25647682E+04</pdfrwt>
<pdfrwt beam="2">  1       -1 0.13141462E+00 0.25647682E+04</pdfrwt>
<totfact> 0.14598659E+00</totfact>
</mgrwt>
</event>
<event>
 6    1  0.1773638E-005  0.2548375E+04  0.7818608E-02  0.8385951E-01
         -2   -1    0    0    0  501 -0.00000000000E+00  0.00000000000E+00  0.12504219311E+04  0.12504219311E+04  0.00000000000E+00 0.  1.
          2   -1    0    0  501    0  0.00000000000E+00 -0.00000000000E+00 -0.12984050277E+04  0.12984050277E+04  0.00000000000E+00 0. -1.
         23    2    1    2    0    0  0.21448402054E+03 -0.55322386946E+03 -0.11497693030E+04  0.12974305829E+04  0.96418994785E+02 0.  0.
         11    1    3    3    0    0  0.11340696744E+03 -0.17141676071E+03 -0.36564869014E+03  0.41945656595E+03  0.00000000000E+00 0.  1.
        -11    1    3    3    0    0  0.10107705310E+03 -0.38180710876E+03 -0.78412061287E+03  0.87797401698E+03  0.00000000000E+00 0. -1.
         22    1    1    2    0    0 -0.21448402054E+03  0.55322386946E+03  0.11017862064E+04  0.12513963758E+04  0.00000000000E+00 0.  1.
<mgrwt>
<rscale>  0 0.25483753E+04</rscale>
<asrwt>0</asrwt>
<pdfrwt beam="1">  1        2 0.19975462E+00 0.25483753E+04</pdfrwt>
<pdfrwt beam="2">  1       -2 0.19237260E+00 0.25483753E+04</pdfrwt>
<totfact> 0.21992569E+00</totfact>
</mgrwt>
</event>
<event>
 6    1  0.1773638E-005  0.1716004E+04  0.7818608E-02  0.8752289E-01
          1   -1    0    0  501    0  0.00000000000E+00  0.00000000000E+00  0.10144867721E+04  0.10144867721E+04  0.00000000000E+00 0. -1.
         -1   -1    0    0    0  501 -0.00000000000E+00 -0.00000000000E+00 -0.72565530805E+03  0.72565530805E+03  0.00000000000E+00 0.  1.
         23    2    1    2    0    0 -0.24322086428E+03 -0.21815792040E+03  0.94671722369E+03  0.10055925993E+04  0.90519098041E+02 0.  0.
         11    1    3    3    0    0 -0.21319857886E+03 -0.14723615988E+03  0.78093413567E+03  0.82279416931E+03  0.00000000000E+00 0. -1.
        -11    1    3    3    0    0 -0.30022285422E+02 -0.70921760518E+02  0.16578308802E+03  0.18279843000E+03  0.00000000000E+00 0.  1.
         22    1    1    2    0    0  0.24322086428E+03  0.21815792040E+03 -0.65788575964E+03  0.73454948084E+03  0.00000000000E+00 0.  1.
<mgrwt>
<rscale>  0 0.17160043E+04</rscale>
<asrwt>0</asrwt>
<pdfrwt beam="1">  1        1 0.15607489E+00 0.17160043E+04</pdfrwt>
<pdfrwt beam="2">  1       -1 0.11163928E+00 0.17160043E+04</pdfrwt>
<totfact> 0.10325249E+01</totfact>
</mgrwt>
</event>
<event>
 6    1  0.1773638E-005  0.4217235E+04  0.7818608E-02  0.7962102E-01
          2   -1    0    0  501    0  0.00000000000E+00  0.00000000000E+00  0.20580406671E+04  0.20580406671E+04  0.00000000000E+00 0. -1.
         -2   -1    0    0    0  501 -0.00000000000E+00 -0.00000000000E+00 -0.21604375949E+04  0.21604375949E+04  0.00000000000E+00 0.  1.
         23    2    1    2    0    0  0.16193372814E+04 -0.60916519891E+03 -0.12552524229E+04  0.21394373140E+04  0.90542282087E+02 0.  0.
         11    1    3    3    0    0  0.65492426684E+03 -0.29385241292E+03 -0.51545708134E+03  0.88372565798E+03  0.00000000000E+00 0. -1.
        -11    1    3    3    0    0  0.96441301460E+03 -0.31531278599E+03 -0.73979534155E+03  0.12557116560E+04  0.00000000000E+00 0.  1.
         22    1    1    2    0    0 -0.16193372814E+04  0.60916519891E+03  0.11528554952E+04  0.20790409480E+04  0.00000000000E+00 0. -1.
<mgrwt>
<rscale>  0 0.42172353E+04</rscale>
<asrwt>0</asrwt>
<pdfrwt beam="1">  1        2 0.31662164E+00 0.42172353E+04</pdfrwt>
<pdfrwt beam="2">  1       -2 0.33237501E+00 0.42172353E+04</pdfrwt>
<totfact> 0.96451274E-02</totfact>
</mgrwt>
</event>
<event>
 6    1  0.1773638E-005  0.3150073E+04  0.7818608E-02  0.8202129E-01
          1   -1    0    0  501    0  0.00000000000E+00  0.00000000000E+00  0.41288004664E+04  0.41288004664E+04  0.00000000000E+00 0. -1.
         -1   -1    0    0    0  501 -0.00000000000E+00 -0.00000000000E+00 -0.60083789767E+03  0.60083789767E+03  0.00000000000E+00 0.  1.
         23    2    1    2    0    0 -0.13810722446E+04 -0.28184446522E+03  0.28161237572E+04  0.31505527613E+04  0.92913067734E+02 0.  0.
         13    1    3    3    0    0 -0.24181340739E+03 -0.13705288994E+02  0.48653596216E+03  0.54348762765E+03  0.00000000000E+00 0. -1.
        -13    1    3    3    0    0 -0.11392588372E+04 -0.26813917623E+03  0.23295877950E+04  0.26070651336E+04  0.00000000000E+00 0.  1.
         22    1    1    2    0    0  0.13810722446E+04  0.28184446522E+03  0.71183881154E+03  0.15790856028E+04  0.00000000000E+00 0.  1.
<mgrwt>
<rscale>  0 0.31500729E+04</rscale>
<asrwt>0</asrwt>
<pdfrwt beam="1">  1        1 0.63520005E+00 0.31500729E+04</pdfrwt>
<pdfrwt beam="2">  1       -1 0.92436602E-01 0.31500729E+04</pdfrwt>
<totfact> 0.70256355E-02</totfact>
</mgrwt>
</event>
<event>
 6    1  0.1773638E-005  0.1612317E+04  0.7818608E-02  0.8813017E-01
          2   -1    0    0  501    0  0.00000000000E+00  0.00000000000E+00  0.11457068154E+04  0.11457068154E+04  0.00000000000E+00 0. -1.
         -2   -1    0    0    0  501 -0.00000000000E+00 -0.00000000000E+00 -0.56724052477E+03  0.56724052477E+03  0.00000000000E+00 0.  1.
         23    2    1    2    0    0  0.24589755254E+03 -0.15737026124E+03 -0.50455668884E+03  0.59126566540E+03  0.98927394379E+02 0.  0.
         13    1    3    3    0    0  0.12543708376E+03 -0.25462532196E+02 -0.24090262198E+03  0.27279456704E+03  0.00000000000E+00 0. -1.
        -13    1    3    3    0    0  0.12046046878E+03 -0.13190772904E+03 -0.26365406686E+03  0.31847109836E+03  0.00000000000E+00 0.  1.
         22    1    1    2    0    0 -0.24589755254E+03  0.15737026124E+03  0.10830229794E+04  0.11216816747E+04  0.00000000000E+00 0. -1.
<mgrwt>
<rscale>  0 0.16123168E+04</rscale>
<asrwt>0</asrwt>
<pdfrwt beam="1">  1        2 0.17626259E+00 0.16123168E+04</pdfrwt>
<pdfrwt beam="2">  1       -2 0.87267773E-01 0.16123168E+04</pdfrwt>
<totfact> 0.22203550E+01</totfact>
</mgrwt>
</event>
<event>
 6    1  0.1773638E-005  0.1838424E+04  0.7818608E-02  0.8686129E-01
         -4   -1    0    0    0  501 -0.00000000000E+00  0.00000000000E+00  0.19069594038E+04  0.19069594038E+04  0.00000000000E+00 0. -1.
          4   -1    0    0  501    0  0.00000000000E+00 -0.00000000000E+00 -0.44308772663E+03  0.44308772663E+03  0.00000000000E+00 0.  1.
         23    2    1    2    0    0  0.81448886535E+01 -0.31323371558E+03 -0.36827630343E+03  0.49129810954E+03  0.86975266498E+02 0.  0.
         13    1    3    3    0    0 -0.11430624852E+02 -0.83275450439E+02 -0.48849299701E+02  0.97219925487E+02  0.00000000000E+00 0. -1.
        -13    1    3    3    0    0  0.19575513506E+02 -0.22995826514E+03 -0.31942700373E+03  0.39407818406E+03  0.00000000000E+00 0.  1.
         22    1    1    2    0    0 -0.81448886535E+01  0.31323371558E+03  0.18321479806E+04  0.18587490208E+04  0.00000000000E+00 0. -1.
<mgrwt>
<rscale>  0 0.18384236E+04</rscale>
<asrwt>0</asrwt>
<pdfrwt beam="1">  1        4 0.68167344E-01 0.18384236E+04</pdfrwt>
<pdfrwt beam="2">  1       -4 0.29337836E+00 0.18384236E+04</pdfrwt>
<totfact> 0.12731833E-01</totfact>
</mgrwt>
</event>
<event>
 6    1  0.1773638E-005  0.1729138E+04  0.7818608E-02  0.8744918E-01
          2   -1    0    0  501    0  0.00000000000E+00  0.00000000000E+00  0.23743551847E+04  0.23743551847E+04  0.00000000000E+00 0. -1.
         -2   -1    0    0    0  501 -0.00000000000E+00 -0.00000000000E+00 -0.31481359747E+03  0.31481359747E+03  0.00000000000E+00 0.  1.
         23    2    1    2    0    0  0.45873398891E+03  0.60437636383E+03  0.39567335063E+03  0.86046290901E+03  0.90174029737E+02 0.  0.
         13    1    3    3    0    0  0.20670540614E+03  0.21082596025E+03  0.12705863182E+03  0.32143211782E+03  0.00000000000E+00 0. -1.
        -13    1    3    3    0    0  0.25202858277E+03  0.39355040358E+03  0.26861471881E+03  0.53903079119E+03  0.00000000000E+00 0.  1.
         22    1    1    2    0    0 -0.45873398891E+03 -0.60437636383E+03  0.16638682366E+04  0.18287058731E+04  0.00000000000E+00 0. -1.
<mgrwt>
<rscale>  0 0.17291377E+04</rscale>
<asrwt>0</asrwt>
<pdfrwt beam="1">  1        2 0.36528540E+00 0.17291377E+04</pdfrwt>
<pdfrwt beam="2">  1       -2 0.48432863E-01 0.17291377E+04</pdfrwt>
<totfact> 0.15779625E+01</totfact>
</mgrwt>
</event>
<event>
 6    1  0.1773638E-005  0.2380724E+04  0.7818608E-02  0.8446756E-01
          2   -1    0    0  501    0  0.00000000000E+00  0.00000000000E+00  0.31446332846E+04  0.31446332846E+04  0.00000000000E+00 0. -1.
         -2   -1    0    0    0  501 -0.00000000000E+00 -0.00000000000E+00 -0.45059670304E+03  0.45059670304E+03  0.00000000000E+00 0.  1.
         23    2    1    2    0    0  0.69711463964E+03 -0.61931671721E+03  0.23574487993E+03  0.96602476414E+03  0.90034324050E+02 0.  0.
         13    1    3    3    0    0  0.28460138037E+03 -0.30340805888E+03  0.12952814105E+03  0.43569706819E+03  0.00000000000E+00 0. -1.
        -13    1    3    3    0    0  0.41251325926E+03 -0.31590865833E+03  0.10621673888E+03  0.53032769595E+03  0.00000000000E+00 0.  1.
         22    1    1    2    0    0 -0.69711463964E+03  0.61931671721E+03  0.24582917016E+04  0.26292052235E+04  0.00000000000E+00 0. -1.
<mgrwt>
<rscale>  0 0.23807237E+04</rscale>
<asrwt>0</asrwt>
<pdfrwt beam="1">  1        2 0.48378972E+00 0.23807237E+04</pdfrwt>
<pdfrwt beam="2">  1       -2 0.69322572E-01 0.23807237E+04</pdfrwt>
<totfact> 0.24112044E+00</totfact>
</mgrwt>
</event>
<event>
 6    1  0.1773638E-005  0.1040861E+04  0.7818608E-02  0.9264830E-01
         -2   -1    0    0    0  501 -0.00000000000E+00  0.00000000000E+00  0.64994140471E+03  0.64994140471E+03  0.00000000000E+00 0.  1.
          2   -1    0    0  501    0  0.00000000000E+00 -0.00000000000E+00 -0.41672680520E+03  0.41672680520E+03  0.00000000000E+00 0. -1.
         23    2    1    2    0    0 -0.39161267656E+03 -0.19895749456E+03  0.39495426608E+03  0.59858243484E+03  0.96785773334E+02 0.  0.
         11    1    3    3    0    0 -0.22594728290E+03 -0.84478246284E+02  0.26780629022E+03  0.36042885265E+03  0.00000000000E+00 0.  1.
        -11    1    3    3    0    0 -0.16566539366E+03 -0.11447924827E+03  0.12714797586E+03  0.23815358219E+03  0.00000000000E+00 0. -1.
         22    1    1    2    0    0  0.39161267656E+03  0.19895749456E+03 -0.16173966657E+03  0.46808577507E+03  0.00000000000E+00 0. -1.
<mgrwt>
<rscale>  0 0.10408612E+04</rscale>
<asrwt>0</asrwt>
<pdfrwt beam="1">  1        2 0.64111816E-01 0.10408612E+04</pdfrwt>
<pdfrwt beam="2">  1       -2 0.99990986E-01 0.10408612E+04</pdfrwt>
<totfact> 0.62498160E+01</totfact>
</mgrwt>
</event>
<event>
 6    1  0.1773638E-005  0.2500451E+04  0.7818608E-02  0.8402825E-01
          2   -1    0    0  501    0  0.00000000000E+00  0.00000000000E+00  0.18118007850E+04  0.18118007850E+04  0.00000000000E+00 0. -1.
         -2   -1    0    0    0  501 -0.00000000000E+00 -0.00000000000E+00 -0.86271266386E+03  0.86271266386E+03  0.00000000000E+00 0.  1.
         23    2    1    2    0    0  0.75802770084E+03  0.23636132004E+03 -0.55563905638E+03  0.97313854967E+03  0.88267814212E+02 0.  0.
         13    1    3    3    0    0  0.42717571197E+03  0.99027073228E+02 -0.34146044340E+03  0.55577035233E+03  0.00000000000E+00 0. -1.
        -13    1    3    3    0    0  0.33085198887E+03  0.13733424682E+03 -0.21417861298E+03  0.41736819733E+03  0.00000000000E+00 0.  1.
         22    1    1    2    0    0 -0.75802770084E+03 -0.23636132004E+03  0.15047271775E+04  0.17013748992E+04  0.00000000000E+00 0. -1.
<mgrwt>
<rscale>  0 0.25004507E+04</rscale>
<asrwt>0</asrwt>
<pdfrwt beam="1">  1        2 0.27873858E+00 0.25004507E+04</pdfrwt>
<pdfrwt beam="2">  1       -2 0.13272503E+00 0.25004507E+04</pdfrwt>
<totfact> 0.31234640E+00</totfact>
</mgrwt>
</event>
<event>
 6    1  0.1773638E-005  0.5029622E+04  0.7818608E-02  0.7823954E-01
          1   -1    0    0  501    0  0.00000000000E+00  0.00000000000E+00  0.25029546444E+04  0.25029546444E+04  0.00000000000E+00 0. -1.
         -1   -1    0    0    0  501 -0.00000000000E+00 -0.00000000000E+00 -0.25267232964E+04  0.25267232964E+04  0.00000000000E+00 0.  1.
         23    2    1    2    0    0 -0.72006088064E+03 -0.19908220145E+03  0.23885665599E+04  0.25043101320E+04  0.90540771178E+02 0.  0.
         13    1    3    3    0    0 -0.26638943872E+03 -0.11258466509E+03  0.84407449816E+03  0.89224458436E+03  0.00000000000E+00 0. -1.
        -13    1    3    3    0    0 -0.45367144192E+03 -0.86497536360E+02  0.15444920618E+04  0.16120655476E+04  0.00000000000E+00 0.  1.
         22    1    1    2    0    0  0.72006088064E+03  0.19908220145E+03 -0.24123352119E+04  0.25253678087E+04  0.00000000000E+00 0.  1.
<mgrwt>
<rscale>  0 0.50296218E+04</rscale>
<asrwt>0</asrwt>
<pdfrwt beam="1">  1        1 0.38506995E+00 0.50296218E+04</pdfrwt>
<pdfrwt beam="2">  1       -1 0.38872666E+00 0.50296218E+04</pdfrwt>
<totfact> 0.82951824E-03</totfact>
</mgrwt>
</event>
<event>
 6    1  0.1773638E-005  0.2315547E+04  0.7818608E-02  0.8471816E-01
          1   -1    0    0  501    0  0.00000000000E+00  0.00000000000E+00  0.88410832559E+03  0.88410832559E+03  0.00000000000E+00 0. -1.
         -1   -1    0    0    0  501 -0.00000000000E+00 -0.00000000000E+00 -0.15161486859E+04  0.15161486859E+04  0.00000000000E+00 0.  1.
         23    2    1    2    0    0  0.62996256278E+03 -0.65218815591E+03  0.42668407115E+03  0.10063059209E+04  0.91597426997E+02 0.  0.
         13    1    3    3    0    0  0.48084370682E+03 -0.49308694074E+03  0.27981521812E+03  0.74339892238E+03  0.00000000000E+00 0. -1.
        -13    1    3    3    0    0  0.14911885597E+03 -0.15910121517E+03  0.14686885303E+03  0.26290699851E+03  0.00000000000E+00 0.  1.
         22    1    1    2    0    0 -0.62996256278E+03  0.65218815591E+03 -0.10587244315E+04  0.13939510906E+04  0.00000000000E+00 0.  1.
<mgrwt>
<rscale>  0 0.23155472E+04</rscale>
<asrwt>0</asrwt>
<pdfrwt beam="1">  1        1 0.13601667E+00 0.23155472E+04</pdfrwt>
<pdfrwt beam="2">  1       -1 0.23325364E+00 0.23155472E+04</pdfrwt>
<totfact> 0.15204682E+00</totfact>
</mgrwt>
</event>
<event>
 6    1  0.1773638E-005  0.1706503E+04  0.7818608E-02  0.8757664E-01
          2   -1    0    0  501    0  0.00000000000E+00  0.00000000000E+00  0.45387309415E+03  0.45387309415E+03  0.00000000000E+00 0. -1.
         -2   -1    0    0    0  501 -0.00000000000E+00 -0.00000000000E+00 -0.16040566107E+04  0.16040566107E+04  0.00000000000E+00 0.  1.
         23    2    1    2    0    0  0.83054167867E+03  0.12902175425E+03 -0.41608618724E+03  0.94197944522E+03  0.88042415544E+02 0.  0.
         11    1    3    3    0    0  0.19954618067E+03  0.41437638910E+02 -0.61403023201E+02  0.21285226660E+03  0.00000000000E+00 0.  1.
        -11    1    3    3    0    0  0.63099549800E+03  0.87584115344E+02 -0.35468316403E+03  0.72912717862E+03  0.00000000000E+00 0. -1.
         22    1    1    2    0    0 -0.83054167867E+03 -0.12902175425E+03 -0.73409732936E+03  0.11159502597E+04  0.00000000000E+00 0.  1.
<mgrwt>
<rscale>  0 0.17065030E+04</rscale>
<asrwt>0</asrwt>
<pdfrwt beam="1">  1        2 0.69826631E-01 0.17065030E+04</pdfrwt>
<pdfrwt beam="2">  1       -2 0.24677794E+00 0.17065030E+04</pdfrwt>
<totfact> 0.44057164E+00</totfact>
</mgrwt>
</event>
<event>
 6    1  0.1773638E-005  0.3464356E+04  0.7818608E-02  0.8122289E-01
          1   -1    0    0  501    0  0.00000000000E+00  0.00000000000E+00  0.25725117530E+04  0.25725117530E+04  0.00000000000E+00 0. -1.
         -1   -1    0    0    0  501 -0.00000000000E+00 -0.00000000000E+00 -0.11663465921E+04  0.11663465921E+04  0.00000000000E+00 0.  1.
         23    2    1    2    0    0 -0.42732180555E+03 -0.32407745155E+03  0.24796677476E+04  0.25388425436E+04  0.96639548962E+02 0.  0.
         13    1    3    3    0    0 -0.31582921956E+03 -0.26576683203E+03  0.17207084876E+04  0.17695247396E+04  0.00000000000E+00 0. -1.
        -13    1    3    3    0    0 -0.11149258599E+03 -0.58310619517E+02  0.75895926000E+03  0.76931780392E+03  0.00000000000E+00 0.  1.
         22    1    1    2    0    0  0.42732180555E+03  0.32407745155E+03 -0.10735025867E+04  0.12000158015E+04  0.00000000000E+00 0.  1.
<mgrwt>
<rscale>  0 0.34643558E+04</rscale>
<asrwt>0</asrwt>
<pdfrwt beam="1">  1        1 0.39577104E+00 0.34643558E+04</pdfrwt>
<pdfrwt beam="2">  1       -1 0.17943794E+00 0.34643558E+04</pdfrwt>
<totfact> 0.20724997E-01</totfact>
</mgrwt>
</event>
<event>
 6    1  0.1773638E-005  0.2159894E+04  0.7818608E-02  0.8535309E-01
         -2   -1    0    0    0  501 -0.00000000000E+00  0.00000000000E+00  0.62159158498E+03  0.62159158498E+03  0.00000000000E+00 0.  1.
          2   -1    0    0  501    0  0.00000000000E+00 -0.00000000000E+00 -0.18762897496E+04  0.18762897496E+04  0.00000000000E+00 0. -1.
         23    2    1    2    0    0  0.75016044185E+03  0.59811788048E+03 -0.60043714176E+02  0.96566563717E+03  0.91756131795E+02 0.  0.
         11    1    3    3    0    0  0.55844692332E+03  0.44061208055E+03 -0.42415127806E+01  0.71135080103E+03  0.00000000000E+00 0.  1.
        -11    1    3    3    0    0  0.19171351853E+03  0.15750579993E+03 -0.55802201396E+02  0.25431483614E+03  0.00000000000E+00 0. -1.
         22    1    1    2    0    0 -0.75016044185E+03 -0.59811788048E+03 -0.11946544505E+04  0.15322156974E+04  0.00000000000E+00 0.  1.
<mgrwt>
<rscale>  0 0.21598944E+04</rscale>
<asrwt>0</asrwt>
<pdfrwt beam="1">  1        2 0.28865995E+00 0.21598944E+04</pdfrwt>
<pdfrwt beam="2">  1       -2 0.95629477E-01 0.21598944E+04</pdfrwt>
<totfact> 0.65869570E+00</totfact>
</mgrwt>
</event>
<event>
 6    1  0.1773638E-005  0.2087420E+04  0.7818608E-02  0.8566805E-01
          2   -1    0    0  501    0  0.00000000000E+00  0.00000000000E+00  0.14439611935E+04  0.14439611935E+04  0.00000000000E+00 0. -1.
         -2   -1    0    0    0  501 -0.00000000000E+00 -0.00000000000E+00 -0.75440453345E+03  0.75440453345E+03  0.00000000000E+00 0.  1.
         23    2    1    2    0    0  0.15947070697E+03  0.28805764698E+03 -0.69508159720E+03  0.77511900984E+03  0.96244159706E+02 0.  0.
         13    1    3    3    0    0  0.73235946012E+02  0.12951819526E+03 -0.42495761121E+03  0.45025263799E+03  0.00000000000E+00 0. -1.
        -13    1    3    3    0    0  0.86234760962E+02  0.15853945172E+03 -0.27012398599E+03  0.32486637185E+03  0.00000000000E+00 0.  1.
         22    1    1    2    0    0 -0.15947070697E+03 -0.28805764698E+03  0.13846382572E+04  0.14232467171E+04  0.00000000000E+00 0. -1.
<mgrwt>
<rscale>  0 0.20874203E+04</rscale>
<asrwt>0</asrwt>
<pdfrwt beam="1">  1        2 0.22214787E+00 0.20874203E+04</pdfrwt>
<pdfrwt beam="2">  1       -2 0.11606224E+00 0.20874203E+04</pdfrwt>
<totfact> 0.72651119E+00</totfact>
</mgrwt>
</event>
<event>
 6    1  0.1773638E-005  0.2717086E+04  0.7818608E-02  0.8329482E-01
         -2   -1    0    0    0  501 -0.00000000000E+00  0.00000000000E+00  0.91856180178E+03  0.91856180178E+03  0.00000000000E+00 0. -1.
          2   -1    0    0  501    0  0.00000000000E+00 -0.00000000000E+00 -0.20092709139E+04  0.20092709139E+04  0.00000000000E+00 0.  1.
         23    2    1    2    0    0  0.12545386608E+04 -0.11607799719E+03 -0.10880453228E+04  0.16679325416E+04  0.10399512444E+03 0.  0.
         11    1    3    3    0    0  0.75200568592E+03 -0.29701030501E+02 -0.69059954483E+03  0.10214315612E+04  0.00000000000E+00 0. -1.
        -11    1    3    3    0    0  0.50253297488E+03 -0.86376966691E+02 -0.39744577794E+03  0.64650098037E+03  0.00000000000E+00 0.  1.
         22    1    1    2    0    0 -0.12545386608E+04  0.11607799719E+03 -0.26637893118E+01  0.12599001741E+04  0.00000000000E+00 0. -1.
<mgrwt>
<rscale>  0 0.27170863E+04</rscale>
<asrwt>0</asrwt>
<pdfrwt beam="1">  1        2 0.30911860E+00 0.27170863E+04</pdfrwt>
<pdfrwt beam="2">  1       -2 0.14131720E+00 0.27170863E+04</pdfrwt>
<totfact> 0.20274685E+00</totfact>
</mgrwt>
</event>
<event>
 6    1  0.1773638E-005  0.3109530E+04  0.7818608E-02  0.8213127E-01
         -2   -1    0    0    0  501 -0.00000000000E+00  0.00000000000E+00  0.13002365774E+04  0.13002365774E+04  0.00000000000E+00 0.  1.
          2   -1    0    0  501    0  0.00000000000E+00 -0.00000000000E+00 -0.18591181647E+04  0.18591181647E+04  0.00000000000E+00 0. -1.
         23    2    1    2    0    0 -0.23962365397E+03 -0.12421076636E+04  0.63639715634E+03  0.14189690898E+04  0.90669695541E+02 0.  0.
         11    1    3    3    0    0 -0.17553437268E+03 -0.73890191789E+03  0.41541827021E+03  0.86565622477E+03  0.00000000000E+00 0.  1.
        -11    1    3    3    0    0 -0.64089281293E+02 -0.50320574576E+03  0.22097888613E+03  0.55331286507E+03  0.00000000000E+00 0. -1.
         22    1    1    2    0    0  0.23962365397E+03  0.12421076636E+04 -0.11952787436E+04  0.17403856522E+04  0.00000000000E+00 0. -1.
<mgrwt>
<rscale>  0 0.31095295E+04</rscale>
<asrwt>0</asrwt>
<pdfrwt beam="1">  1        2 0.28601818E+00 0.31095295E+04</pdfrwt>
<pdfrwt beam="2">  1       -2 0.20003640E+00 0.31095295E+04</pdfrwt>
<totfact> 0.90233109E-01</totfact>
</mgrwt>
</event>
<event>
 6    1  0.1773638E-005  0.5942442E+04  0.7818608E-02  0.7697579E-01
         -2   -1    0    0    0  501 -0.00000000000E+00  0.00000000000E+00  0.37892491578E+04  0.37892491578E+04  0.00000000000E+00 0.  1.
          2   -1    0    0  501    0  0.00000000000E+00 -0.00000000000E+00 -0.23297902329E+04  0.23297902329E+04  0.00000000000E+00 0. -1.
         23    2    1    2    0    0 -0.22309406339E+04 -0.81197098458E+03 -0.11085706193E+04  0.26217306067E+04  0.90274936972E+02 0.  0.
         13    1    3    3    0    0 -0.83280312081E+03 -0.33915249506E+03 -0.45039573863E+03  0.10057046158E+04  0.00000000000E+00 0.  1.
        -13    1    3    3    0    0 -0.13981375131E+04 -0.47281848952E+03 -0.65817488063E+03  0.16160259908E+04  0.00000000000E+00 0. -1.
         22    1    1    2    0    0  0.22309406339E+04  0.81197098458E+03  0.25680295442E+04  0.34973087841E+04  0.00000000000E+00 0.  1.
<mgrwt>
<rscale>  0 0.59424425E+04</rscale>
<asrwt>0</asrwt>
<pdfrwt beam="1">  1        2 0.35842927E+00 0.59424425E+04</pdfrwt>
<pdfrwt beam="2">  1       -2 0.58296141E+00 0.59424425E+04</pdfrwt>
<totfact> 0.17943580E-03</totfact>
</mgrwt>
</event>
<event>
 6    1  0.1876519E-005  0.5922132E+04  0.7818608E-02  0.7700132E-01
         -2   -1    0    0    0  501 -0.00000000000E+00  0.00000000000E+00  0.32282129218E+04  0.32282129218E+04  0.00000000000E+00 0.  1.
          2   -1    0    0  501    0  0.00000000000E+00 -0.00000000000E+00 -0.27160267779E+04  0.27160267779E+04  0.00000000000E+00 0. -1.
         23    2    1    2    0    0 -0.24134686642E+04 -0.15236518716E+04 -0.53254950406E+03  0.29048617053E+04  0.90920479592E+02 0.  0.
         11    1    3    3    0    0 -0.72197719177E+03 -0.49968399515E+03 -0.18368564619E+03  0.89703711019E+03  0.00000000000E+00 0.  1.
        -11    1    3    3    0    0 -0.16914914724E+04 -0.10239678765E+04 -0.34886385787E+03  0.20078245951E+04  0.00000000000E+00 0. -1.
         22    1    1    2    0    0  0.24134686642E+04  0.15236518716E+04  0.10447356480E+04  0.30393779944E+04  0.00000000000E+00 0. -1.
<mgrwt>
<rscale>  0 0.59221323E+04</rscale>
<asrwt>0</asrwt>
<pdfrwt beam="1">  1        2 0.41785027E+00 0.59221323E+04</pdfrwt>
<pdfrwt beam="2">  1       -2 0.49664815E+00 0.59221323E+04</pdfrwt>
<totfact> 0.30768548E-03</totfact>
</mgrwt>
</event>
<event>
 6    1  0.1773638E-005  0.1652108E+04  0.7818608E-02  0.8789160E-01
          1   -1    0    0  501    0  0.00000000000E+00  0.00000000000E+00  0.12564174788E+04  0.12564174788E+04  0.00000000000E+00 0. -1.
         -1   -1    0    0    0  501 -0.00000000000E+00 -0.00000000000E+00 -0.54310396712E+03  0.54310396712E+03  0.00000000000E+00 0.  1.
         23    2    1    2    0    0 -0.71521860592E+03 -0.40780495684E+03  0.40372687812E+03  0.91992698214E+03  0.73673083793E+02 0.  0.
         13    1    3    3    0    0 -0.37437980200E+03 -0.23120367287E+03  0.25266076888E+03  0.50739810664E+03  0.00000000000E+00 0. -1.
        -13    1    3    3    0    0 -0.34083880392E+03 -0.17660128397E+03  0.15106610924E+03  0.41252887550E+03  0.00000000000E+00 0.  1.
         22    1    1    2    0    0  0.71521860592E+03  0.40780495684E+03  0.30958663359E+03  0.87959446382E+03  0.00000000000E+00 0.  1.
<mgrwt>
<rscale>  0 0.16521081E+04</rscale>
<asrwt>0</asrwt>
<pdfrwt beam="1">  1        1 0.19329500E+00 0.16521081E+04</pdfrwt>
<pdfrwt beam="2">  1       -1 0.83554457E-01 0.16521081E+04</pdfrwt>
<totfact> 0.13199739E+01</totfact>
</mgrwt>
</event>
<event>
 6    1  0.1773638E-005  0.4251268E+04  0.7818608E-02  0.7955691E-01
         -2   -1    0    0    0  501 -0.00000000000E+00  0.00000000000E+00  0.20472906549E+04  0.20472906549E+04  0.00000000000E+00 0.  1.
          2   -1    0    0  501    0  0.00000000000E+00 -0.00000000000E+00 -0.22069752890E+04  0.22069752890E+04  0.00000000000E+00 0. -1.
         23    2    1    2    0    0  0.57709454412E+03 -0.15072746788E+04  0.13028818199E+04  0.20761897969E+04  0.90266083913E+02 0.  0.
         11    1    3    3    0    0  0.16954736834E+03 -0.56416951795E+03  0.47749712187E+03  0.75831197833E+03  0.00000000000E+00 0.  1.
        -11    1    3    3    0    0  0.40754717578E+03 -0.94310516085E+03  0.82538469800E+03  0.13178778185E+04  0.00000000000E+00 0. -1.
         22    1    1    2    0    0 -0.57709454412E+03  0.15072746788E+04 -0.14625664539E+04  0.21780761470E+04  0.00000000000E+00 0. -1.
<mgrwt>
<rscale>  0 0.42512680E+04</rscale>
<asrwt>0</asrwt>
<pdfrwt beam="1">  1        2 0.33953466E+00 0.42512680E+04</pdfrwt>
<pdfrwt beam="2">  1       -2 0.31496779E+00 0.42512680E+04</pdfrwt>
<totfact> 0.10174460E-01</totfact>
</mgrwt>
</event>
<event>
 6    1  0.1773638E-005  0.1327093E+04  0.7818608E-02  0.9008352E-01
          1   -1    0    0  501    0  0.00000000000E+00  0.00000000000E+00  0.12384095587E+04  0.12384095587E+04  0.00000000000E+00 0. -1.
         -1   -1    0    0    0  501 -0.00000000000E+00 -0.00000000000E+00 -0.35553198663E+03  0.35553198663E+03  0.00000000000E+00 0.  1.
         23    2    1    2    0    0  0.58512257317E+03 -0.10662765392E+03  0.98949333618E+02  0.60992865656E+03  0.92109246288E+02 0.  0.
         11    1    3    3    0    0  0.75193289359E+02 -0.15726307822E+02  0.45318612276E+02  0.89191502628E+02  0.00000000000E+00 0. -1.
        -11    1    3    3    0    0  0.50992928381E+03 -0.90901346098E+02  0.53630721343E+02  0.52073715393E+03  0.00000000000E+00 0.  1.
         22    1    1    2    0    0 -0.58512257317E+03  0.10662765392E+03  0.78392823841E+03  0.98401288873E+03  0.00000000000E+00 0. -1.
<mgrwt>
<rscale>  0 0.13270934E+04</rscale>
<asrwt>0</asrwt>
<pdfrwt beam="1">  1        1 0.19052454E+00 0.13270934E+04</pdfrwt>
<pdfrwt beam="2">  1       -1 0.54697230E-01 0.13270934E+04</pdfrwt>
<totfact> 0.33170945E+01</totfact>
</mgrwt>
</event>
<event>
 6    1  0.1773638E-005  0.1875461E+04  0.7818608E-02  0.8667168E-01
         -1   -1    0    0    0  501 -0.00000000000E+00  0.00000000000E+00  0.35815054417E+03  0.35815054417E+03  0.00000000000E+00 0.  1.
          1   -1    0    0  501    0  0.00000000000E+00 -0.00000000000E+00 -0.24552195354E+04  0.24552195354E+04  0.00000000000E+00 0. -1.
         23    2    1    2    0    0  0.30200877066E+03  0.88251996268E+03 -0.11573919213E+04  0.14893444840E+04  0.92412933717E+02 0.  0.
         11    1    3    3    0    0  0.14465242880E+03  0.50747153891E+03 -0.59485061394E+03  0.79517227119E+03  0.00000000000E+00 0. -1.
        -11    1    3    3    0    0  0.15735634186E+03  0.37504842378E+03 -0.56254130735E+03  0.69417221276E+03  0.00000000000E+00 0.  1.
         22    1    1    2    0    0 -0.30200877066E+03 -0.88251996268E+03 -0.93967706998E+03  0.13240255956E+04  0.00000000000E+00 0.  1.
<mgrwt>
<rscale>  0 0.18754607E+04</rscale>
<asrwt>0</asrwt>
<pdfrwt beam="1">  1        1 0.37772607E+00 0.18754607E+04</pdfrwt>
<pdfrwt beam="2">  1       -1 0.55100085E-01 0.18754607E+04</pdfrwt>
<totfact> 0.45453301E+00</totfact>
</mgrwt>
</event>
<event>
 6    1  0.1773638E-005  0.2574121E+04  0.7818608E-02  0.8377045E-01
          2   -1    0    0  501    0  0.00000000000E+00  0.00000000000E+00  0.78679555018E+03  0.78679555018E+03  0.00000000000E+00 0. -1.
         -2   -1    0    0    0  501 -0.00000000000E+00 -0.00000000000E+00 -0.21054065215E+04  0.21054065215E+04  0.00000000000E+00 0.  1.
         23    2    1    2    0    0  0.77941534262E+03  0.79382202298E+03 -0.13836608854E+04  0.17778084375E+04  0.91889685044E+02 0.  0.
         11    1    3    3    0    0  0.48962860313E+03  0.44294895782E+03 -0.78275551831E+03  0.10240342522E+04  0.00000000000E+00 0. -1.
        -11    1    3    3    0    0  0.28978673949E+03  0.35087306516E+03 -0.60090536713E+03  0.75377418534E+03  0.00000000000E+00 0.  1.
         22    1    1    2    0    0 -0.77941534262E+03 -0.79382202298E+03  0.65049914109E+02  0.11143936341E+04  0.00000000000E+00 0. -1.
<mgrwt>
<rscale>  0 0.25741208E+04</rscale>
<asrwt>0</asrwt>
<pdfrwt beam="1">  1        2 0.12104547E+00 0.25741208E+04</pdfrwt>
<pdfrwt beam="2">  1       -2 0.32390870E+00 0.25741208E+04</pdfrwt>
<totfact> 0.70715669E-01</totfact>
</mgrwt>
</event>
<event>
 6    1  0.1773638E-005  0.1761578E+04  0.7818608E-02  0.8727003E-01
         -1   -1    0    0    0  501 -0.00000000000E+00  0.00000000000E+00  0.44731655829E+03  0.44731655829E+03  0.00000000000E+00 0.  1.
          1   -1    0    0  501    0  0.00000000000E+00 -0.00000000000E+00 -0.17343187247E+04  0.17343187247E+04  0.00000000000E+00 0. -1.
         23    2    1    2    0    0 -0.30088335062E+03 -0.76167397453E+03 -0.10390575672E+04  0.13259749775E+04  0.88831181666E+02 0.  0.
         11    1    3    3    0    0 -0.16608456726E+03 -0.30122003804E+03 -0.43416484078E+03  0.55391037521E+03  0.00000000000E+00 0. -1.
        -11    1    3    3    0    0 -0.13479878336E+03 -0.46045393649E+03 -0.60489272644E+03  0.77206460230E+03  0.00000000000E+00 0.  1.
         22    1    1    2    0    0  0.30088335062E+03  0.76167397453E+03 -0.24794459923E+03  0.85566030552E+03  0.00000000000E+00 0.  1.
<mgrwt>
<rscale>  0 0.17615783E+04</rscale>
<asrwt>0</asrwt>
<pdfrwt beam="1">  1        1 0.26681826E+00 0.17615783E+04</pdfrwt>
<pdfrwt beam="2">  1       -1 0.68817933E-01 0.17615783E+04</pdfrwt>
<totfact> 0.91340565E+00</totfact>
</mgrwt>
</event>
<event>
 6    1  0.1773638E-005  0.1862999E+04  0.7818608E-02  0.8673497E-01
          2   -1    0    0  501    0  0.00000000000E+00  0.00000000000E+00  0.34240500302E+04  0.34240500302E+04  0.00000000000E+00 0. -1.
         -2   -1    0    0    0  501 -0.00000000000E+00 -0.00000000000E+00 -0.25341076223E+03  0.25341076223E+03  0.00000000000E+00 0.  1.
         23    2    1    2    0    0  0.48233049633E+03 -0.78389615271E+03  0.18419526925E+04  0.20611242242E+04  0.91145270301E+02 0.  0.
         13    1    3    3    0    0  0.33413396147E+03 -0.59165450498E+03  0.14237673931E+04  0.15775975872E+04  0.00000000000E+00 0. -1.
        -13    1    3    3    0    0  0.14819653486E+03 -0.19224164773E+03  0.41818529932E+03  0.48352663694E+03  0.00000000000E+00 0.  1.
         22    1    1    2    0    0 -0.48233049633E+03  0.78389615271E+03  0.13286865755E+04  0.16163365683E+04  0.00000000000E+00 0.  1.
<mgrwt>
<rscale>  0 0.18629988E+04</rscale>
<asrwt>0</asrwt>
<pdfrwt beam="1">  1        2 0.52677689E+00 0.18629988E+04</pdfrwt>
<pdfrwt beam="2">  1       -2 0.38986274E-01 0.18629988E+04</pdfrwt>
<totfact> 0.53973643E+00</totfact>
</mgrwt>
</event>
<event>
 6    1  0.1773638E-005  0.4358425E+04  0.7818608E-02  0.7935902E-01
         -2   -1    0    0    0  501 -0.00000000000E+00  0.00000000000E+00  0.19959427227E+04  0.19959427227E+04  0.00000000000E+00 0.  1.
          2   -1    0    0  501    0  0.00000000000E+00 -0.00000000000E+00 -0.23793106745E+04  0.23793106745E+04  0.00000000000E+00 0. -1.
         23    2    1    2    0    0  0.16479774923E+04 -0.39098065191E+03 -0.15667871032E+04  0.23090548169E+04  0.90645657782E+02 0.  0.
         11    1    3    3    0    0  0.99504797288E+03 -0.22523740686E+03 -0.88458540649E+03  0.13503124450E+04  0.00000000000E+00 0. -1.
        -11    1    3    3    0    0  0.65292951944E+03 -0.16574324506E+03 -0.68220169667E+03  0.95874237185E+03  0.00000000000E+00 0.  1.
         22    1    1    2    0    0 -0.16479774923E+04  0.39098065191E+03  0.11834191515E+04  0.20661985803E+04  0.00000000000E+00 0.  1.
<mgrwt>
<rscale>  0 0.43584253E+04</rscale>
<asrwt>0</asrwt>
<pdfrwt beam="1">  1        2 0.36604780E+00 0.43584253E+04</pdfrwt>
<pdfrwt beam="2">  1       -2 0.30706811E+00 0.43584253E+04</pdfrwt>
<totfact> 0.90067632E-02</totfact>
</mgrwt>
</event>
<event>
 6    1  0.1773638E-005  0.9167688E+03  0.7818608E-02  0.9404859E-01
          1   -1    0    0  501    0  0.00000000000E+00  0.00000000000E+00  0.13572110297E+04  0.13572110297E+04  0.00000000000E+00 0. -1.
         -1   -1    0    0    0  501 -0.00000000000E+00 -0.00000000000E+00 -0.15481471641E+03  0.15481471641E+03  0.00000000000E+00 0.  1.
         23    2    1    2    0    0 -0.37008644120E+03 -0.25137072775E+03  0.73305280987E+03  0.86361650734E+03  0.91191189022E+02 0.  0.
         11    1    3    3    0    0 -0.17781002320E+02 -0.37922046303E+02  0.99134704288E+02  0.10761939989E+03  0.00000000000E+00 0. -1.
        -11    1    3    3    0    0 -0.35230543888E+03 -0.21344868145E+03  0.63391810558E+03  0.75599710744E+03  0.00000000000E+00 0.  1.
         22    1    1    2    0    0  0.37008644120E+03  0.25137072775E+03  0.46934350342E+03  0.64840923878E+03  0.00000000000E+00 0.  1.
<mgrwt>
<rscale>  0 0.91676876E+03</rscale>
<asrwt>0</asrwt>
<pdfrwt beam="1">  1        1 0.20880169E+00 0.91676876E+03</pdfrwt>
<pdfrwt beam="2">  1       -1 0.23817650E-01 0.91676876E+03</pdfrwt>
<totfact> 0.12617424E+02</totfact>
</mgrwt>
</event>
<event>
 6    1  0.1773638E-005  0.1274193E+04  0.7818608E-02  0.9050284E-01
          2   -1    0    0  501    0  0.00000000000E+00  0.00000000000E+00  0.94920206978E+03  0.94920206978E+03  0.00000000000E+00 0. -1.
         -2   -1    0    0    0  501 -0.00000000000E+00 -0.00000000000E+00 -0.42761404004E+03  0.42761404004E+03  0.00000000000E+00 0.  1.
         23    2    1    2    0    0  0.10127162984E+01  0.20204119522E+03 -0.38721068337E+03  0.44582912220E+03  0.89497612979E+02 0.  0.
         13    1    3    3    0    0 -0.22155114806E+02  0.19432703536E+03 -0.35613282108E+03  0.40630583558E+03  0.00000000000E+00 0.  1.
        -13    1    3    3    0    0  0.23167831105E+02  0.77141598688E+01 -0.31077862290E+02  0.39523286618E+02  0.00000000000E+00 0. -1.
         22    1    1    2    0    0 -0.10127162984E+01 -0.20204119522E+03  0.90879871311E+03  0.93098698762E+03  0.00000000000E+00 0. -1.
<mgrwt>
<rscale>  0 0.12741933E+04</rscale>
<asrwt>0</asrwt>
<pdfrwt beam="1">  1        2 0.14603109E+00 0.12741933E+04</pdfrwt>
<pdfrwt beam="2">  1       -2 0.65786776E-01 0.12741933E+04</pdfrwt>
<totfact> 0.56792873E+01</totfact>
</mgrwt>
</event>
<event>
 6    1  0.1773638E-005  0.2455817E+04  0.7818608E-02  0.8418897E-01
          2   -1    0    0  501    0  0.00000000000E+00  0.00000000000E+00  0.90103681498E+03  0.90103681498E+03  0.00000000000E+00 0.  1.
         -2   -1    0    0    0  501 -0.00000000000E+00 -0.00000000000E+00 -0.16733609952E+04  0.16733609952E+04  0.00000000000E+00 0. -1.
         23    2    1    2    0    0  0.11810174378E+04 -0.10088055820E+03 -0.57134335878E+02  0.11900295106E+04  0.89032738042E+02 0.  0.
         13    1    3    3    0    0  0.92501050806E+03 -0.63629546679E+02 -0.78091535005E+02  0.93047914919E+03  0.00000000000E+00 0.  1.
        -13    1    3    3    0    0  0.25600692971E+03 -0.37251011519E+02  0.20957199127E+02  0.25955036142E+03  0.00000000000E+00 0. -1.
         22    1    1    2    0    0 -0.11810174378E+04  0.10088055820E+03 -0.71518984433E+03  0.13843682995E+04  0.00000000000E+00 0. -1.
<mgrwt>
<rscale>  0 0.24558175E+04</rscale>
<asrwt>0</asrwt>
<pdfrwt beam="1">  1        2 0.13862105E+00 0.24558175E+04</pdfrwt>
<pdfrwt beam="2">  1       -2 0.25744015E+00 0.24558175E+04</pdfrwt>
<totfact> 0.15155801E+00</totfact>
</mgrwt>
</event>
<event>
 6    1  0.1773638E-005  0.2904445E+04  0.7818608E-02  0.8271556E-01
          1   -1    0    0  501    0  0.00000000000E+00  0.00000000000E+00  0.40681467939E+04  0.40681467939E+04  0.00000000000E+00 0. -1.
         -1   -1    0    0    0  501 -0.00000000000E+00 -0.00000000000E+00 -0.51840571437E+03  0.51840571437E+03  0.00000000000E+00 0.  1.
         23    2    1    2    0    0  0.13996408947E+04 -0.24110008920E+03  0.13107754452E+04  0.19351206312E+04  0.97137543125E+02 0.  0.
         11    1    3    3    0    0  0.75483384181E+03 -0.12095086638E+03  0.76994983972E+03  0.10850004592E+04  0.00000000000E+00 0. -1.
        -11    1    3    3    0    0  0.64480705291E+03 -0.12014922282E+03  0.54082560546E+03  0.85012017195E+03  0.00000000000E+00 0.  1.
         22    1    1    2    0    0 -0.13996408947E+04  0.24110008920E+03  0.22389656343E+04  0.26514318771E+04  0.00000000000E+00 0.  1.
<mgrwt>
<rscale>  0 0.29044452E+04</rscale>
<asrwt>0</asrwt>
<pdfrwt beam="1">  1        1 0.62586872E+00 0.29044452E+04</pdfrwt>
<pdfrwt beam="2">  1       -1 0.79754728E-01 0.29044452E+04</pdfrwt>
<totfact> 0.11242634E-01</totfact>
</mgrwt>
</event>
<event>
 6    1  0.1773638E-005  0.3992849E+04  0.7818608E-02  0.8005991E-01
         -2   -1    0    0    0  501 -0.00000000000E+00  0.00000000000E+00  0.30121134175E+04  0.30121134175E+04  0.00000000000E+00 0.  1.
          2   -1    0    0  501    0  0.00000000000E+00 -0.00000000000E+00 -0.13232274398E+04  0.13232274398E+04  0.00000000000E+00 0. -1.
         23    2    1    2    0    0 -0.17343644790E+03  0.19770540983E+04  0.62063503450E+03  0.20814590532E+04  0.91982797469E+02 0.  0.
         13    1    3    3    0    0 -0.10569301107E+03  0.11374311694E+04  0.40435179270E+03  0.12117842424E+04  0.00000000000E+00 0. -1.
        -13    1    3    3    0    0 -0.67743436831E+02  0.83962292889E+03  0.21628324179E+03  0.86967481086E+03  0.00000000000E+00 0.  1.
         22    1    1    2    0    0  0.17343644790E+03 -0.19770540983E+04  0.10682509432E+04  0.22538818041E+04  0.00000000000E+00 0.  1.
<mgrwt>
<rscale>  0 0.39928492E+04</rscale>
<asrwt>0</asrwt>
<pdfrwt beam="1">  1        2 0.20357345E+00 0.39928492E+04</pdfrwt>
<pdfrwt beam="2">  1       -2 0.46340206E+00 0.39928492E+04</pdfrwt>
<totfact> 0.35830362E-02</totfact>
</mgrwt>
</event>
<event>
 6    1  0.1773638E-005  0.4973172E+04  0.7818608E-02  0.7832659E-01
         -1   -1    0    0    0  501 -0.00000000000E+00  0.00000000000E+00  0.26417255189E+04  0.26417255189E+04  0.00000000000E+00 0.  1.
          1   -1    0    0  501    0  0.00000000000E+00 -0.00000000000E+00 -0.23405573982E+04  0.23405573982E+04  0.00000000000E+00 0. -1.
         23    2    1    2    0    0 -0.35082865917E+03 -0.55080969068E+03  0.25534843230E+04  0.26372028889E+04  0.89915658367E+02 0.  0.
         13    1    3    3    0    0 -0.28371807795E+03 -0.36940217979E+03  0.18006077633E+04  0.18598769410E+04  0.00000000000E+00 0.  1.
        -13    1    3    3    0    0 -0.67110581214E+02 -0.18140751089E+03  0.75287655970E+03  0.77732594789E+03  0.00000000000E+00 0. -1.
         22    1    1    2    0    0  0.35082865917E+03  0.55080969068E+03 -0.22523162024E+04  0.23450800283E+04  0.00000000000E+00 0. -1.
<mgrwt>
<rscale>  0 0.49731721E+04</rscale>
<asrwt>0</asrwt>
<pdfrwt beam="1">  1        1 0.36008575E+00 0.49731721E+04</pdfrwt>
<pdfrwt beam="2">  1       -1 0.40641931E+00 0.49731721E+04</pdfrwt>
<totfact> 0.81693283E-03</totfact>
</mgrwt>
</event>
<event>
 6    1  0.1773638E-005  0.3067440E+04  0.7818608E-02  0.8224731E-01
         -1   -1    0    0    0  501 -0.00000000000E+00  0.00000000000E+00  0.10846386989E+04  0.10846386989E+04  0.00000000000E+00 0.  1.
          1   -1    0    0  501    0  0.00000000000E+00 -0.00000000000E+00 -0.21687381896E+04  0.21687381896E+04  0.00000000000E+00 0. -1.
         23    2    1    2    0    0  0.92176577892E+03 -0.28256286085E+03 -0.18055440122E+04  0.20492273467E+04  0.99245236047E+02 0.  0.
         13    1    3    3    0    0  0.59493582066E+03 -0.19023258616E+03 -0.10678536629E+04  0.12371129750E+04  0.00000000000E+00 0. -1.
        -13    1    3    3    0    0  0.32682995826E+03 -0.92330274689E+02 -0.73769034935E+03  0.81211437173E+03  0.00000000000E+00 0.  1.
         22    1    1    2    0    0 -0.92176577892E+03  0.28256286085E+03  0.72144452152E+03  0.12041495419E+04  0.00000000000E+00 0.  1.
<mgrwt>
<rscale>  0 0.30674402E+04</rscale>
<asrwt>0</asrwt>
<pdfrwt beam="1">  1        1 0.33365203E+00 0.30674402E+04</pdfrwt>
<pdfrwt beam="2">  1       -1 0.16686749E+00 0.30674402E+04</pdfrwt>
<totfact> 0.50246113E-01</totfact>
</mgrwt>
</event>
<event>
 6    1  0.1773638E-005  0.2032912E+04  0.7818608E-02  0.8591386E-01
          1   -1    0    0  501    0  0.00000000000E+00  0.00000000000E+00  0.10817180701E+04  0.10817180701E+04  0.00000000000E+00 0. -1.
         -1   -1    0    0    0  501 -0.00000000000E+00 -0.00000000000E+00 -0.95513114035E+03  0.95513114035E+03  0.00000000000E+00 0.  1.
         23    2    1    2    0    0 -0.56204330358E+02 -0.18374629669E+03  0.10610144057E+04  0.10828699988E+04  0.99670642754E+02 0.  0.
         11    1    3    3    0    0 -0.61358768797E+02 -0.64203525937E+02  0.31336127593E+03  0.32570274869E+03  0.00000000000E+00 0.  1.
        -11    1    3    3    0    0  0.51544384386E+01 -0.11954277075E+03  0.74765312976E+03  0.75716725016E+03  0.00000000000E+00 0. -1.
         22    1    1    2    0    0  0.56204330358E+02  0.18374629669E+03 -0.93442747597E+03  0.95397921159E+03  0.00000000000E+00 0.  1.
<mgrwt>
<rscale>  0 0.20329118E+04</rscale>
<asrwt>0</asrwt>
<pdfrwt beam="1">  1        1 0.16641816E+00 0.20329118E+04</pdfrwt>
<pdfrwt beam="2">  1       -1 0.14694325E+00 0.20329118E+04</pdfrwt>
<totfact> 0.44650916E+00</totfact>
</mgrwt>
</event>
<event>
 6    1  0.1773638E-005  0.1830063E+04  0.7818608E-02  0.8690474E-01
         -2   -1    0    0    0  501 -0.00000000000E+00  0.00000000000E+00  0.37422066276E+03  0.37422066276E+03  0.00000000000E+00 0.  1.
          2   -1    0    0  501    0  0.00000000000E+00 -0.00000000000E+00 -0.22374039032E+04  0.22374039032E+04  0.00000000000E+00 0. -1.
         23    2    1    2    0    0  0.15488218606E+03 -0.88588725730E+03 -0.71167318310E+03  0.11505427283E+04  0.92114742858E+02 0.  0.
         11    1    3    3    0    0  0.13039876055E+03 -0.49366902747E+03 -0.38416412090E+03  0.63897966886E+03  0.00000000000E+00 0. -1.
        -11    1    3    3    0    0  0.24483425506E+02 -0.39221822983E+03 -0.32750906219E+03  0.51156305942E+03  0.00000000000E+00 0.  1.
         22    1    1    2    0    0 -0.15488218606E+03  0.88588725730E+03 -0.11515100573E+04  0.14610818376E+04  0.00000000000E+00 0.  1.
<mgrwt>
<rscale>  0 0.18300631E+04</rscale>
<asrwt>0</asrwt>
<pdfrwt beam="1">  1        2 0.34421598E+00 0.18300631E+04</pdfrwt>
<pdfrwt beam="2">  1       -2 0.57572411E-01 0.18300631E+04</pdfrwt>
<totfact> 0.13094362E+01</totfact>
</mgrwt>
</event>
<event>
 6    1  0.1773638E-005  0.1000386E+04  0.7818608E-02  0.9308121E-01
         -2   -1    0    0    0  501 -0.00000000000E+00  0.00000000000E+00  0.29822588544E+03  0.29822588544E+03  0.00000000000E+00 0.  1.
          2   -1    0    0  501    0  0.00000000000E+00 -0.00000000000E+00 -0.83893830578E+03  0.83893830578E+03  0.00000000000E+00 0. -1.
         23    2    1    2    0    0  0.30019643508E+03  0.39548286525E+03 -0.28788118412E+03  0.57998537760E+03  0.83563542959E+02 0.  0.
         13    1    3    3    0    0  0.16788572750E+03  0.22186180865E+03 -0.11305241501E+03  0.30031504820E+03  0.00000000000E+00 0.  1.
        -13    1    3    3    0    0  0.13231070757E+03  0.17362105660E+03 -0.17482876911E+03  0.27967032939E+03  0.00000000000E+00 0. -1.
         22    1    1    2    0    0 -0.30019643508E+03 -0.39548286525E+03 -0.25283123621E+03  0.55717881362E+03  0.00000000000E+00 0.  1.
<mgrwt>
<rscale>  0 0.10003862E+04</rscale>
<asrwt>0</asrwt>
<pdfrwt beam="1">  1        2 0.12906743E+00 0.10003862E+04</pdfrwt>
<pdfrwt beam="2">  1       -2 0.45880905E-01 0.10003862E+04</pdfrwt>
<totfact> 0.14526170E+02</totfact>
</mgrwt>
</event>
<event>
 6    1  0.1773638E-005  0.2153110E+04  0.7818608E-02  0.8538202E-01
         -1   -1    0    0    0  501 -0.00000000000E+00  0.00000000000E+00  0.37923136116E+03  0.37923136116E+03  0.00000000000E+00 0.  1.
          1   -1    0    0  501    0  0.00000000000E+00 -0.00000000000E+00 -0.30561052354E+04  0.30561052354E+04  0.00000000000E+00 0. -1.
         23    2    1    2    0    0  0.94487606550E+03 -0.12131073561E+03 -0.21343615617E+04  0.23390580357E+04  0.90477314873E+02 0.  0.
         11    1    3    3    0    0  0.30016069411E+03 -0.80639017838E+02 -0.67623166943E+03  0.74423676624E+03  0.00000000000E+00 0. -1.
        -11    1    3    3    0    0  0.64471537139E+03 -0.40671717776E+02 -0.14581298923E+04  0.15948212695E+04  0.00000000000E+00 0.  1.
         22    1    1    2    0    0 -0.94487606550E+03  0.12131073561E+03 -0.54251231248E+03  0.10962785608E+04  0.00000000000E+00 0.  1.
<mgrwt>
<rscale>  0 0.21531103E+04</rscale>
<asrwt>0</asrwt>
<pdfrwt beam="1">  1        1 0.47017002E+00 0.21531103E+04</pdfrwt>
<pdfrwt beam="2">  1       -1 0.58343289E-01 0.21531103E+04</pdfrwt>
<totfact> 0.14836635E+00</totfact>
</mgrwt>
</event>
<event>
 6    1  0.1773638E-005  0.5283321E+04  0.7818608E-02  0.7786229E-01
          2   -1    0    0  501    0  0.00000000000E+00  0.00000000000E+00  0.44367229107E+04  0.44367229107E+04  0.00000000000E+00 0. -1.
         -2   -1    0    0    0  501 -0.00000000000E+00 -0.00000000000E+00 -0.15728660649E+04  0.15728660649E+04  0.00000000000E+00 0.  1.
         23    2    1    2    0    0  0.11784750118E+04 -0.19605077154E+04  0.29335578927E+04  0.37210846405E+04  0.91187371318E+02 0.  0.
         11    1    3    3    0    0  0.74066051321E+03 -0.11540168251E+04  0.17888886449E+04  0.22539865599E+04  0.00000000000E+00 0.  1.
        -11    1    3    3    0    0  0.43781449861E+03 -0.80649089033E+03  0.11446692478E+04  0.14670980806E+04  0.00000000000E+00 0. -1.
         22    1    1    2    0    0 -0.11784750118E+04  0.19605077154E+04 -0.69701046916E+02  0.22885043351E+04  0.00000000000E+00 0.  1.
<mgrwt>
<rscale>  0 0.52833213E+04</rscale>
<asrwt>0</asrwt>
<pdfrwt beam="1">  1        2 0.68257275E+00 0.52833213E+04</pdfrwt>
<pdfrwt beam="2">  1       -2 0.24197940E+00 0.52833213E+04</pdfrwt>
<totfact> 0.71946699E-03</totfact>
</mgrwt>
</event>
<event>
 6    1  0.1773638E-005  0.3241674E+04  0.7818608E-02  0.8177897E-01
         -2   -1    0    0    0  501 -0.00000000000E+00  0.00000000000E+00  0.25184782782E+04  0.25184782782E+04  0.00000000000E+00 0.  1.
          2   -1    0    0  501    0  0.00000000000E+00 -0.00000000000E+00 -0.10431351190E+04  0.10431351190E+04  0.00000000000E+00 0. -1.
         23    2    1    2    0    0  0.11233352505E+04 -0.33640496609E+03  0.19656019968E+04  0.22906279080E+04  0.91294121893E+02 0.  0.
         13    1    3    3    0    0  0.68625476121E+03 -0.24083984165E+03  0.12721417857E+04  0.14653648521E+04  0.00000000000E+00 0. -1.
        -13    1    3    3    0    0  0.43708048927E+03 -0.95565124438E+02  0.69346021106E+03  0.82526305590E+03  0.00000000000E+00 0.  1.
         22    1    1    2    0    0 -0.11233352505E+04  0.33640496609E+03 -0.49025883756E+03  0.12709854893E+04  0.00000000000E+00 0. -1.
<mgrwt>
<rscale>  0 0.32416743E+04</rscale>
<asrwt>0</asrwt>
<pdfrwt beam="1">  1        2 0.16048233E+00 0.32416743E+04</pdfrwt>
<pdfrwt beam="2">  1       -2 0.38745819E+00 0.32416743E+04</pdfrwt>
<totfact> 0.17761649E-01</totfact>
</mgrwt>
</event>
<event>
 6    1  0.1773638E-005  0.9811661E+03  0.7818608E-02  0.9329446E-01
          1   -1    0    0  501    0  0.00000000000E+00  0.00000000000E+00  0.41964043778E+03  0.41964043778E+03  0.00000000000E+00 0. -1.
         -1   -1    0    0    0  501 -0.00000000000E+00 -0.00000000000E+00 -0.57351888432E+03  0.57351888432E+03  0.00000000000E+00 0.  1.
         23    2    1    2    0    0 -0.29502785247E+03  0.24046978455E+03  0.22895896620E+03  0.45331523756E+03  0.90583361563E+02 0.  0.
         13    1    3    3    0    0 -0.28860458811E+03  0.22977662445E+03  0.19528275492E+03  0.41740299447E+03  0.00000000000E+00 0. -1.
        -13    1    3    3    0    0 -0.64232643566E+01  0.10693160096E+02  0.33676211281E+02  0.35912243095E+02  0.00000000000E+00 0.  1.
         22    1    1    2    0    0  0.29502785247E+03 -0.24046978455E+03 -0.38283741275E+03  0.53984408454E+03  0.00000000000E+00 0.  1.
<mgrwt>
<rscale>  0 0.98116607E+03</rscale>
<asrwt>0</asrwt>
<pdfrwt beam="1">  1        1 0.64560068E-01 0.98116607E+03</pdfrwt>
<pdfrwt beam="2">  1       -1 0.88233674E-01 0.98116607E+03</pdfrwt>
<totfact> 0.71308847E+01</totfact>
</mgrwt>
</event>
<event>
 6    1  0.1773638E-005  0.3178676E+04  0.7818608E-02  0.8194471E-01
         -1   -1    0    0    0  501 -0.00000000000E+00  0.00000000000E+00  0.15304862704E+04  0.15304862704E+04  0.00000000000E+00 0.  1.
          1   -1    0    0  501    0  0.00000000000E+00 -0.00000000000E+00 -0.16504531614E+04  0.16504531614E+04  0.00000000000E+00 0. -1.
         23    2    1    2    0    0 -0.79539071049E+03  0.12474837750E+04 -0.63720584705E+03  0.16136493217E+04  0.94713730079E+02 0.  0.
         11    1    3    3    0    0 -0.43189751165E+03  0.68893437045E+03 -0.29922293740E+03  0.86642968187E+03  0.00000000000E+00 0. -1.
        -11    1    3    3    0    0 -0.36349319884E+03  0.55854940458E+03 -0.33798290965E+03  0.74721963985E+03  0.00000000000E+00 0.  1.
         22    1    1    2    0    0  0.79539071049E+03 -0.12474837750E+04  0.51723895606E+03  0.15672901100E+04  0.00000000000E+00 0.  1.
<mgrwt>
<rscale>  0 0.31786764E+04</rscale>
<asrwt>0</asrwt>
<pdfrwt beam="1">  1        1 0.25391587E+00 0.31786764E+04</pdfrwt>
<pdfrwt beam="2">  1       -1 0.23545943E+00 0.31786764E+04</pdfrwt>
<totfact> 0.37513062E-01</totfact>
</mgrwt>
</event>
<event>
 6    1  0.1773638E-005  0.3640954E+04  0.7818608E-02  0.8081175E-01
          2   -1    0    0  501    0  0.00000000000E+00  0.00000000000E+00  0.33375693589E+04  0.33375693589E+04  0.00000000000E+00 0. -1.
         -2   -1    0    0    0  501 -0.00000000000E+00 -0.00000000000E+00 -0.99297919376E+03  0.99297919376E+03  0.00000000000E+00 0.  1.
         23    2    1    2    0    0 -0.16280167825E+04  0.80021710028E+03  0.13337189326E+04  0.22538572659E+04  0.10139197248E+03 0.  0.
         13    1    3    3    0    0 -0.58293304722E+03  0.28779175840E+03  0.53885861523E+03  0.84439542926E+03  0.00000000000E+00 0. -1.
        -13    1    3    3    0    0 -0.10450837353E+04  0.51242534188E+03  0.79486031733E+03  0.14094618366E+04  0.00000000000E+00 0.  1.
         22    1    1    2    0    0  0.16280167825E+04 -0.80021710028E+03  0.10108712326E+04  0.20766912868E+04  0.00000000000E+00 0.  1.
<mgrwt>
<rscale>  0 0.36409542E+04</rscale>
<asrwt>0</asrwt>
<pdfrwt beam="1">  1        2 0.51347220E+00 0.36409542E+04</pdfrwt>
<pdfrwt beam="2">  1       -2 0.15276603E+00 0.36409542E+04</pdfrwt>
<totfact> 0.24334702E-01</totfact>
</mgrwt>
</event>
<event>
 6    1  0.3500753E-005  0.3283752E+04  0.7818608E-02  0.8167042E-01
         -2   -1    0    0    0  501 -0.00000000000E+00  0.00000000000E+00  0.14101545175E+04  0.14101545175E+04  0.00000000000E+00 0.  1.
          2   -1    0    0  501    0  0.00000000000E+00 -0.00000000000E+00 -0.19116751773E+04  0.19116751773E+04  0.00000000000E+00 0. -1.
         23    2    1    2    0    0  0.47487827482E+03  0.46686327123E+03 -0.17677302725E+04  0.18911803760E+04  0.90676394262E+02 0.  0.
         11    1    3    3    0    0  0.16973072675E+03  0.22872575933E+03 -0.77145361401E+03  0.82235313044E+03  0.00000000000E+00 0.  1.
        -11    1    3    3    0    0  0.30514754807E+03  0.23813751190E+03 -0.99627665849E+03  0.10688272456E+04  0.00000000000E+00 0. -1.
         22    1    1    2    0    0 -0.47487827482E+03 -0.46686327123E+03  0.12662096127E+04  0.14306493188E+04  0.00000000000E+00 0.  1.
<mgrwt>
<rscale>  0 0.32837524E+04</rscale>
<asrwt>0</asrwt>
<pdfrwt beam="1">  1        2 0.29410387E+00 0.32837524E+04</pdfrwt>
<pdfrwt beam="2">  1       -2 0.21694685E+00 0.32837524E+04</pdfrwt>
<totfact> 0.64665983E-01</totfact>
</mgrwt>
</event>
<event>
 6    1  0.2201277E-005  0.2376958E+04  0.7818608E-02  0.8448181E-01
          1   -1    0    0  501    0  0.00000000000E+00  0.00000000000E+00  0.14371425275E+04  0.14371425275E+04  0.00000000000E+00 0. -1.
         -1   -1    0    0    0  501 -0.00000000000E+00 -0.00000000000E+00 -0.98284109096E+03  0.98284109096E+03  0.00000000000E+00 0.  1.
         23    2    1    2    0    0 -0.88704147601E+03 -0.36978624035E+03  0.93634250092E+03  0.13448333818E+04  0.90857592638E+02 0.  0.
         13    1    3    3    0    0 -0.19450333298E+03 -0.12201235244E+03  0.23407498168E+03  0.32788665379E+03  0.00000000000E+00 0.  1.
        -13    1    3    3    0    0 -0.69253814302E+03 -0.24777388791E+03  0.70226751924E+03  0.10169467280E+04  0.00000000000E+00 0. -1.
         22    1    1    2    0    0  0.88704147601E+03  0.36978624035E+03 -0.48204106434E+03  0.10751502367E+04  0.00000000000E+00 0.  1.
<mgrwt>
<rscale>  0 0.23769583E+04</rscale>
<asrwt>0</asrwt>
<pdfrwt beam="1">  1        1 0.22109885E+00 0.23769583E+04</pdfrwt>
<pdfrwt beam="2">  1       -1 0.15120632E+00 0.23769583E+04</pdfrwt>
<totfact> 0.22183047E+00</totfact>
</mgrwt>
</event>
<event>
 6    1  0.1773638E-005  0.7981637E+03  0.7818608E-02  0.9562679E-01
         -2   -1    0    0    0  501 -0.00000000000E+00  0.00000000000E+00  0.87003754600E+03  0.87003754600E+03  0.00000000000E+00 0.  1.
          2   -1    0    0  501    0  0.00000000000E+00 -0.00000000000E+00 -0.18305682985E+03  0.18305682985E+03  0.00000000000E+00 0. -1.
         23    2    1    2    0    0 -0.61396546914E+02 -0.15964713283E+03  0.81658648468E+03  0.83849149090E+03  0.83652557383E+02 0.  0.
         13    1    3    3    0    0 -0.44269338309E+01 -0.12018407083E+03  0.55494608446E+03  0.56782828855E+03  0.00000000000E+00 0. -1.
        -13    1    3    3    0    0 -0.56969613083E+02 -0.39463062001E+02  0.26164040022E+03  0.27066320235E+03  0.00000000000E+00 0.  1.
         22    1    1    2    0    0  0.61396546914E+02  0.15964713283E+03 -0.12960576853E+03  0.21460288496E+03  0.00000000000E+00 0. -1.
<mgrwt>
<rscale>  0 0.79816368E+03</rscale>
<asrwt>0</asrwt>
<pdfrwt beam="1">  1        2 0.28162590E-01 0.79816368E+03</pdfrwt>
<pdfrwt beam="2">  1       -2 0.13385193E+00 0.79816368E+03</pdfrwt>
<totfact> 0.77693388E+01</totfact>
</mgrwt>
</event>
<event>
 6    1  0.1773638E-005  0.6340691E+03  0.7818608E-02  0.9837140E-01
         -2   -1    0    0    0  501 -0.00000000000E+00  0.00000000000E+00  0.71858248378E+02  0.71858248378E+02  0.00000000000E+00 0.  1.
          2   -1    0    0  501    0  0.00000000000E+00 -0.00000000000E+00 -0.13987385624E+04  0.13987385624E+04  0.00000000000E+00 0. -1.
         23    2    1    2    0    0  0.21646901620E+03  0.20366100523E+03 -0.88562377795E+03  0.93857804169E+03  0.90898978279E+02 0.  0.
         11    1    3    3    0    0  0.92190336676E+02  0.12315154034E+03 -0.56220716698E+03  0.58287413622E+03  0.00000000000E+00 0. -1.
        -11    1    3    3    0    0  0.12427867952E+03  0.80509464884E+02 -0.32341661097E+03  0.35570390548E+03  0.00000000000E+00 0.  1.
         22    1    1    2    0    0 -0.21646901620E+03 -0.20366100523E+03 -0.44125653604E+03  0.53201876905E+03  0.00000000000E+00 0.  1.
<mgrwt>
<rscale>  0 0.63406909E+03</rscale>
<asrwt>0</asrwt>
<pdfrwt beam="1">  1        2 0.21519052E+00 0.63406909E+03</pdfrwt>
<pdfrwt beam="2">  1       -2 0.11055116E-01 0.63406909E+03</pdfrwt>
<totfact> 0.85736885E+02</totfact>
</mgrwt>
</event>
<event>
 6    1  0.1773638E-005  0.3642352E+04  0.7818608E-02  0.8080859E-01
          2   -1    0    0  501    0  0.00000000000E+00  0.00000000000E+00  0.23627265374E+04  0.23627265374E+04  0.00000000000E+00 0. -1.
         -2   -1    0    0    0  501 -0.00000000000E+00 -0.00000000000E+00 -0.14037517774E+04  0.14037517774E+04  0.00000000000E+00 0.  1.
         23    2    1    2    0    0  0.14431495652E+04 -0.87434599238E+03  0.11852479681E+04  0.20640209300E+04  0.90598409181E+02 0.  0.
         11    1    3    3    0    0  0.59233678205E+03 -0.32117674749E+03  0.51033262438E+03  0.84525543713E+03  0.00000000000E+00 0. -1.
        -11    1    3    3    0    0  0.85081278314E+03 -0.55316924488E+03  0.67491534376E+03  0.12187654929E+04  0.00000000000E+00 0.  1.
         22    1    1    2    0    0 -0.14431495652E+04  0.87434599238E+03 -0.22627320814E+03  0.17024573847E+04  0.00000000000E+00 0.  1.
<mgrwt>
<rscale>  0 0.36423518E+04</rscale>
<asrwt>0</asrwt>
<pdfrwt beam="1">  1        2 0.36349639E+00 0.36423518E+04</pdfrwt>
<pdfrwt beam="2">  1       -2 0.21596181E+00 0.36423518E+04</pdfrwt>
<totfact> 0.35562608E-01</totfact>
</mgrwt>
</event>
<event>
 6    1  0.1773638E-005  0.2768948E+04  0.7818608E-02  0.8312974E-01
          1   -1    0    0  501    0  0.00000000000E+00  0.00000000000E+00  0.10988302564E+04  0.10988302564E+04  0.00000000000E+00 0. -1.
         -1   -1    0    0    0  501 -0.00000000000E+00 -0.00000000000E+00 -0.17443712909E+04  0.17443712909E+04  0.00000000000E+00 0.  1.
         23    2    1    2    0    0  0.63853083109E+02  0.94886208330E+03  0.70801033816E+03  0.11889591866E+04  0.89044029328E+02 0.  0.
         11    1    3    3    0    0  0.25380863392E+02  0.72274956409E+03  0.49893406563E+03  0.87860475896E+03  0.00000000000E+00 0.  1.
        -11    1    3    3    0    0  0.38472219717E+02  0.22611251921E+03  0.20907627253E+03  0.31035442766E+03  0.00000000000E+00 0. -1.
         22    1    1    2    0    0 -0.63853083109E+02 -0.94886208330E+03 -0.13535513727E+04  0.16542423607E+04  0.00000000000E+00 0.  1.
<mgrwt>
<rscale>  0 0.27689478E+04</rscale>
<asrwt>0</asrwt>
<pdfrwt beam="1">  1        1 0.16905081E+00 0.27689478E+04</pdfrwt>
<pdfrwt beam="2">  1       -1 0.26836481E+00 0.27689478E+04</pdfrwt>
<totfact> 0.58385458E-01</totfact>
</mgrwt>
</event>
<event>
 6    1  0.1773638E-005  0.2473137E+04  0.7818608E-02  0.8412619E-01
         -2   -1    0    0    0  501 -0.00000000000E+00  0.00000000000E+00  0.23961917680E+04  0.23961917680E+04  0.00000000000E+00 0.  1.
          2   -1    0    0  501    0  0.00000000000E+00 -0.00000000000E+00 -0.63813834074E+03  0.63813834074E+03  0.00000000000E+00 0. -1.
         23    2    1    2    0    0 -0.85431435031E+03  0.14113957576E+03  0.19605882394E+04  0.21450642660E+04  0.87298750096E+02 0.  0.
         11    1    3    3    0    0 -0.63978258217E+03  0.12310544647E+03  0.15525794028E+04  0.16837397381E+04  0.00000000000E+00 0. -1.
        -11    1    3    3    0    0 -0.21453176814E+03  0.18034129286E+02  0.40800883659E+03  0.46132452796E+03  0.00000000000E+00 0.  1.
         22    1    1    2    0    0  0.85431435031E+03 -0.14113957576E+03 -0.20253481212E+03  0.88926584277E+03  0.00000000000E+00 0. -1.
<mgrwt>
<rscale>  0 0.24731371E+04</rscale>
<asrwt>0</asrwt>
<pdfrwt beam="1">  1        2 0.98175131E-01 0.24731371E+04</pdfrwt>
<pdfrwt beam="2">  1       -2 0.36864488E+00 0.24731371E+04</pdfrwt>
<totfact> 0.48726596E-01</totfact>
</mgrwt>
</event>
<event>
 6    1  0.1773638E-005  0.3819040E+04  0.7818608E-02  0.8042081E-01
          2   -1    0    0  501    0  0.00000000000E+00  0.00000000000E+00  0.17005159555E+04  0.17005159555E+04  0.00000000000E+00 0. -1.
         -2   -1    0    0    0  501 -0.00000000000E+00 -0.00000000000E+00 -0.21442122026E+04  0.21442122026E+04  0.00000000000E+00 0.  1.
         23    2    1    2    0    0  0.68186305958E+03  0.15650864136E+04  0.63678861452E+03  0.18243617928E+04  0.91452159001E+02 0.  0.
         13    1    3    3    0    0  0.11163338966E+03  0.18083736213E+03  0.79606948319E+02  0.22693926820E+03  0.00000000000E+00 0. -1.
        -13    1    3    3    0    0  0.57022966992E+03  0.13842490515E+04  0.55718166621E+03  0.15974225246E+04  0.00000000000E+00 0.  1.
         22    1    1    2    0    0 -0.68186305958E+03 -0.15650864136E+04 -0.10804848616E+04  0.20203663654E+04  0.00000000000E+00 0.  1.
<mgrwt>
<rscale>  0 0.38190402E+04</rscale>
<asrwt>0</asrwt>
<pdfrwt beam="1">  1        2 0.26161784E+00 0.38190402E+04</pdfrwt>
<pdfrwt beam="2">  1       -2 0.32987880E+00 0.38190402E+04</pdfrwt>
<totfact> 0.16312126E-01</totfact>
</mgrwt>
</event>
<event>
 6    1  0.1773638E-005  0.2606539E+04  0.7818608E-02  0.8365983E-01
         -2   -1    0    0    0  501 -0.00000000000E+00  0.00000000000E+00  0.60959649051E+03  0.60959649051E+03  0.00000000000E+00 0.  1.
          2   -1    0    0  501    0  0.00000000000E+00 -0.00000000000E+00 -0.27862878955E+04  0.27862878955E+04  0.00000000000E+00 0. -1.
         23    2    1    2    0    0 -0.27305794733E+03 -0.62088211984E+03  0.35821488884E+03  0.77180260988E+03  0.85475801819E+02 0.  0.
         11    1    3    3    0    0 -0.13076120216E+03 -0.38290077485E+03  0.18529569264E+03  0.44502358261E+03  0.00000000000E+00 0.  1.
        -11    1    3    3    0    0 -0.14229674516E+03 -0.23798134499E+03  0.17291919619E+03  0.32677902727E+03  0.00000000000E+00 0. -1.
         22    1    1    2    0    0  0.27305794733E+03  0.62088211984E+03 -0.25349062939E+04  0.26240817762E+04  0.00000000000E+00 0. -1.
<mgrwt>
<rscale>  0 0.26065389E+04</rscale>
<asrwt>0</asrwt>
<pdfrwt beam="1">  1        2 0.42865967E+00 0.26065389E+04</pdfrwt>
<pdfrwt beam="2">  1       -2 0.93784076E-01 0.26065389E+04</pdfrwt>
<totfact> 0.20010018E+00</totfact>
</mgrwt>
</event>
<event>
 6    1  0.1773638E-005  0.4060430E+04  0.7818608E-02  0.7992466E-01
         -1   -1    0    0    0  501 -0.00000000000E+00  0.00000000000E+00  0.17405361875E+04  0.17405361875E+04  0.00000000000E+00 0.  1.
          1   -1    0    0  501    0  0.00000000000E+00 -0.00000000000E+00 -0.23681054821E+04  0.23681054821E+04  0.00000000000E+00 0. -1.
         23    2    1    2    0    0 -0.70759544165E+03  0.16106175210E+04  0.70934864440E+03  0.18990874875E+04  0.92615754433E+02 0.  0.
         11    1    3    3    0    0 -0.31996696753E+03  0.81865755099E+03  0.32317877245E+03  0.93649536308E+03  0.00000000000E+00 0.  1.
        -11    1    3    3    0    0 -0.38762847413E+03  0.79195996998E+03  0.38616987194E+03  0.96259212443E+03  0.00000000000E+00 0. -1.
         22    1    1    2    0    0  0.70759544165E+03 -0.16106175210E+04 -0.13369179391E+04  0.22095541821E+04  0.00000000000E+00 0. -1.
<mgrwt>
<rscale>  0 0.40604302E+04</rscale>
<asrwt>0</asrwt>
<pdfrwt beam="1">  1        1 0.36432392E+00 0.40604302E+04</pdfrwt>
<pdfrwt beam="2">  1       -1 0.26777480E+00 0.40604302E+04</pdfrwt>
<totfact> 0.69523031E-02</totfact>
</mgrwt>
</event>
<event>
 6    1  0.1773638E-005  0.8063430E+03  0.7818608E-02  0.9550881E-01
         -2   -1    0    0    0  501 -0.00000000000E+00  0.00000000000E+00  0.47088381581E+02  0.47088381581E+02  0.00000000000E+00 0.  1.
          2   -1    0    0  501    0  0.00000000000E+00 -0.00000000000E+00 -0.34519613374E+04  0.34519613374E+04  0.00000000000E+00 0. -1.
         23    2    1    2    0    0 -0.22642684672E+03 -0.32129294635E+03 -0.19954885278E+04  0.20358809863E+04  0.91316217540E+02 0.  0.
         11    1    3    3    0    0 -0.86760105725E+02 -0.18733365125E+03 -0.89463499042E+03  0.91814649100E+03  0.00000000000E+00 0.  1.
        -11    1    3    3    0    0 -0.13966674100E+03 -0.13395929510E+03 -0.11008535374E+04  0.11177344953E+04  0.00000000000E+00 0. -1.
         22    1    1    2    0    0  0.22642684672E+03  0.32129294635E+03 -0.14093844280E+04  0.14631687327E+04  0.00000000000E+00 0. -1.
<mgrwt>
<rscale>  0 0.80634304E+03</rscale>
<asrwt>0</asrwt>
<pdfrwt beam="1">  1        2 0.53107080E+00 0.80634304E+03</pdfrwt>
<pdfrwt beam="2">  1       -2 0.72443688E-02 0.80634304E+03</pdfrwt>
<totfact> 0.10790320E+02</totfact>
</mgrwt>
</event>
<event>
 6    1  0.1773638E-005  0.3326227E+04  0.7818608E-02  0.8156254E-01
         -2   -1    0    0    0  501 -0.00000000000E+00  0.00000000000E+00  0.11694681551E+04  0.11694681551E+04  0.00000000000E+00 0. -1.
          2   -1    0    0  501    0  0.00000000000E+00 -0.00000000000E+00 -0.23651313171E+04  0.23651313171E+04  0.00000000000E+00 0.  1.
         23    2    1    2    0    0 -0.90095387906E+03  0.98381325249E+03 -0.16514307604E+04  0.21248723667E+04  0.90843878886E+02 0.  0.
         13    1    3    3    0    0 -0.68558967369E+03  0.78120087441E+03 -0.13330032780E+04  0.16903271122E+04  0.00000000000E+00 0.  1.
        -13    1    3    3    0    0 -0.21536420537E+03  0.20261237807E+03 -0.31842748241E+03  0.43454525456E+03  0.00000000000E+00 0. -1.
         22    1    1    2    0    0  0.90095387906E+03 -0.98381325249E+03  0.45576759844E+03  0.14097271054E+04  0.00000000000E+00 0. -1.
<mgrwt>
<rscale>  0 0.33262265E+04</rscale>
<asrwt>0</asrwt>
<pdfrwt beam="1">  1        2 0.36386635E+00 0.33262265E+04</pdfrwt>
<pdfrwt beam="2">  1       -2 0.17991818E+00 0.33262265E+04</pdfrwt>
<totfact> 0.62982373E-01</totfact>
</mgrwt>
</event>
<event>
 6    1  0.1773638E-005  0.2783583E+04  0.7818608E-02  0.8308383E-01
          2   -1    0    0  501    0  0.00000000000E+00  0.00000000000E+00  0.26971485050E+04  0.26971485050E+04  0.00000000000E+00 0. -1.
         -2   -1    0    0    0  501 -0.00000000000E+00 -0.00000000000E+00 -0.71819687220E+03  0.71819687220E+03  0.00000000000E+00 0.  1.
         23    2    1    2    0    0 -0.53527863629E+03  0.85147749989E+03  0.21683520007E+04  0.23919150421E+04  0.89274961002E+02 0.  0.
         13    1    3    3    0    0 -0.38663194380E+03  0.55743988116E+03  0.15257541018E+04  0.16697751526E+04  0.00000000000E+00 0.  1.
        -13    1    3    3    0    0 -0.14864669250E+03  0.29403761873E+03  0.64259789882E+03  0.72213988948E+03  0.00000000000E+00 0. -1.
         22    1    1    2    0    0  0.53527863629E+03 -0.85147749989E+03 -0.18940036790E+03  0.10234303350E+04  0.00000000000E+00 0.  1.
<mgrwt>
<rscale>  0 0.27835830E+04</rscale>
<asrwt>0</asrwt>
<pdfrwt beam="1">  1        2 0.41494592E+00 0.27835830E+04</pdfrwt>
<pdfrwt beam="2">  1       -2 0.11049183E+00 0.27835830E+04</pdfrwt>
<totfact> 0.15092531E+00</totfact>
</mgrwt>
</event>
<event>
 6    1  0.1773638E-005  0.1629772E+04  0.7818608E-02  0.8802464E-01
          2   -1    0    0  501    0  0.00000000000E+00  0.00000000000E+00  0.14392693339E+04  0.14392693339E+04  0.00000000000E+00 0. -1.
         -2   -1    0    0    0  501 -0.00000000000E+00 -0.00000000000E+00 -0.46137219125E+03  0.46137219125E+03  0.00000000000E+00 0.  1.
         23    2    1    2    0    0  0.66540534208E+03 -0.13040026722E+03  0.10111915035E+04  0.12217622919E+04  0.10210946180E+03 0.  0.
         13    1    3    3    0    0  0.17950024904E+03 -0.65461277489E+02  0.34873259326E+03  0.39764298040E+03  0.00000000000E+00 0.  1.
        -13    1    3    3    0    0  0.48590509304E+03 -0.64938989729E+02  0.66245891020E+03  0.82411931147E+03  0.00000000000E+00 0. -1.
         22    1    1    2    0    0 -0.66540534208E+03  0.13040026722E+03 -0.33294360790E+02  0.67887923331E+03  0.00000000000E+00 0.  1.
<mgrwt>
<rscale>  0 0.16297716E+04</rscale>
<asrwt>0</asrwt>
<pdfrwt beam="1">  1        2 0.22142605E+00 0.16297716E+04</pdfrwt>
<pdfrwt beam="2">  1       -2 0.70980338E-01 0.16297716E+04</pdfrwt>
<totfact> 0.23706383E+01</totfact>
</mgrwt>
</event>
<event>
 6    1  0.1773638E-005  0.1484020E+04  0.7818608E-02  0.8895150E-01
          2   -1    0    0  501    0  0.00000000000E+00  0.00000000000E+00  0.11880152522E+04  0.11880152522E+04  0.00000000000E+00 0. -1.
         -2   -1    0    0    0  501 -0.00000000000E+00 -0.00000000000E+00 -0.46344414046E+03  0.46344414046E+03  0.00000000000E+00 0.  1.
         23    2    1    2    0    0  0.51018596668E+03 -0.33253051623E+03 -0.10338074990E+03  0.62366050667E+03  0.86015017961E+02 0.  0.
         11    1    3    3    0    0  0.14946720096E+03 -0.53110992122E+02 -0.32234125800E+02  0.16186494529E+03  0.00000000000E+00 0. -1.
        -11    1    3    3    0    0  0.36071876571E+03 -0.27941952411E+03 -0.71146624105E+02  0.46179556138E+03  0.00000000000E+00 0.  1.
         22    1    1    2    0    0 -0.51018596668E+03  0.33253051623E+03  0.82795186162E+03  0.10277988860E+04  0.00000000000E+00 0. -1.
<mgrwt>
<rscale>  0 0.14840198E+04</rscale>
<asrwt>0</asrwt>
<pdfrwt beam="1">  1        2 0.18277158E+00 0.14840198E+04</pdfrwt>
<pdfrwt beam="2">  1       -2 0.71299099E-01 0.14840198E+04</pdfrwt>
<totfact> 0.33264003E+01</totfact>
</mgrwt>
</event>
<event>
 6    1  0.1773638E-005  0.1369863E+04  0.7818608E-02  0.8975927E-01
         -1   -1    0    0    0  501 -0.00000000000E+00  0.00000000000E+00  0.83936730374E+03  0.83936730374E+03  0.00000000000E+00 0.  1.
          1   -1    0    0  501    0  0.00000000000E+00 -0.00000000000E+00 -0.55891061881E+03  0.55891061881E+03  0.00000000000E+00 0. -1.
         23    2    1    2    0    0  0.61372933321E+03 -0.27883132192E+03  0.38253425309E+02  0.68198676702E+03  0.96083428972E+02 0.  0.
         11    1    3    3    0    0  0.41810324405E+03 -0.14089292029E+03  0.35112082609E+02  0.44259913694E+03  0.00000000000E+00 0. -1.
        -11    1    3    3    0    0  0.19562608915E+03 -0.13793840163E+03  0.31413426992E+01  0.23938763008E+03  0.00000000000E+00 0.  1.
         22    1    1    2    0    0 -0.61372933321E+03  0.27883132192E+03  0.24220325962E+03  0.71629115553E+03  0.00000000000E+00 0.  1.
<mgrwt>
<rscale>  0 0.13698632E+04</rscale>
<asrwt>0</asrwt>
<pdfrwt beam="1">  1        1 0.85986250E-01 0.13698632E+04</pdfrwt>
<pdfrwt beam="2">  1       -1 0.12913343E+00 0.13698632E+04</pdfrwt>
<totfact> 0.19119283E+01</totfact>
</mgrwt>
</event>
<event>
 6    1  0.1773638E-005  0.3129310E+04  0.7818608E-02  0.8207740E-01
         -1   -1    0    0    0  501 -0.00000000000E+00  0.00000000000E+00  0.18576900156E+04  0.18576900156E+04  0.00000000000E+00 0.  1.
          1   -1    0    0  501    0  0.00000000000E+00 -0.00000000000E+00 -0.13178435322E+04  0.13178435322E+04  0.00000000000E+00 0. -1.
         23    2    1    2    0    0 -0.98507335645E+03  0.86222456837E+03 -0.59689165770E+03  0.14417589588E+04  0.92674270303E+02 0.  0.
         11    1    3    3    0    0 -0.73672738933E+03  0.68357270493E+03 -0.48604111433E+03  0.11163668098E+04  0.00000000000E+00 0.  1.
        -11    1    3    3    0    0 -0.24834596712E+03  0.17865186344E+03 -0.11085054337E+03  0.32539214904E+03  0.00000000000E+00 0. -1.
         22    1    1    2    0    0  0.98507335645E+03 -0.86222456837E+03  0.11367381411E+04  0.17337745890E+04  0.00000000000E+00 0.  1.
<mgrwt>
<rscale>  0 0.31293097E+04</rscale>
<asrwt>0</asrwt>
<pdfrwt beam="1">  1        1 0.20274516E+00 0.31293097E+04</pdfrwt>
<pdfrwt beam="2">  1       -1 0.28579846E+00 0.31293097E+04</pdfrwt>
<totfact> 0.30178178E-01</totfact>
</mgrwt>
</event>
<event>
 6    1  0.1773638E-005  0.1965135E+04  0.7818608E-02  0.8623097E-01
         -2   -1    0    0    0  501 -0.00000000000E+00  0.00000000000E+00  0.41005805026E+03  0.41005805026E+03  0.00000000000E+00 0.  1.
          2   -1    0    0  501    0  0.00000000000E+00 -0.00000000000E+00 -0.23543953755E+04  0.23543953755E+04  0.00000000000E+00 0. -1.
         23    2    1    2    0    0  0.80436228361E+03 -0.16432672795E+03 -0.17284206162E+04  0.19155588610E+04  0.89027898229E+02 0.  0.
         11    1    3    3    0    0  0.70745214203E+03 -0.16321123097E+03 -0.15717284273E+04  0.17313164610E+04  0.00000000000E+00 0.  1.
        -11    1    3    3    0    0  0.96910141579E+02 -0.11154969798E+01 -0.15669218895E+03  0.18424239999E+03  0.00000000000E+00 0. -1.
         22    1    1    2    0    0 -0.80436228361E+03  0.16432672795E+03 -0.21591670905E+03  0.84889456475E+03  0.00000000000E+00 0.  1.
<mgrwt>
<rscale>  0 0.19651349E+04</rscale>
<asrwt>0</asrwt>
<pdfrwt beam="1">  1        2 0.36221467E+00 0.19651349E+04</pdfrwt>
<pdfrwt beam="2">  1       -2 0.63085855E-01 0.19651349E+04</pdfrwt>
<totfact> 0.91583794E+00</totfact>
</mgrwt>
</event>
<event>
 6    1  0.1773638E-005  0.2117602E+04  0.7818608E-02  0.8553529E-01
         -1   -1    0    0    0  501 -0.00000000000E+00  0.00000000000E+00  0.63044592435E+03  0.63044592435E+03  0.00000000000E+00 0.  1.
          1   -1    0    0  501    0  0.00000000000E+00 -0.00000000000E+00 -0.17782007614E+04  0.17782007614E+04  0.00000000000E+00 0. -1.
         23    2    1    2    0    0 -0.34044551783E+03 -0.80320152795E+03 -0.12534393096E+04  0.15298946997E+04  0.91825074541E+02 0.  0.
         13    1    3    3    0    0 -0.28889458692E+02 -0.12576381258E+03 -0.22854246315E+03  0.26245531970E+03  0.00000000000E+00 0. -1.
        -13    1    3    3    0    0 -0.31155605914E+03 -0.67743771537E+03 -0.10248968465E+04  0.12674393800E+04  0.00000000000E+00 0.  1.
         22    1    1    2    0    0  0.34044551783E+03  0.80320152795E+03  0.10568447258E+03  0.87875198598E+03  0.00000000000E+00 0.  1.
<mgrwt>
<rscale>  0 0.21176019E+04</rscale>
<asrwt>0</asrwt>
<pdfrwt beam="1">  1        1 0.27356934E+00 0.21176019E+04</pdfrwt>
<pdfrwt beam="2">  1       -1 0.96991682E-01 0.21176019E+04</pdfrwt>
<totfact> 0.39548283E+00</totfact>
</mgrwt>
</event>
<event>
 6    1  0.1773638E-005  0.3589054E+04  0.7818608E-02  0.8093004E-01
          1   -1    0    0  501    0  0.00000000000E+00  0.00000000000E+00  0.17688524510E+04  0.17688524510E+04  0.00000000000E+00 0. -1.
         -1   -1    0    0    0  501 -0.00000000000E+00 -0.00000000000E+00 -0.18205737684E+04  0.18205737684E+04  0.00000000000E+00 0.  1.
         23    2    1    2    0    0  0.53632807523E+03 -0.16450738092E+04 -0.49734214685E+03  0.18026711815E+04  0.91425027974E+02 0.  0.
         13    1    3    3    0    0  0.63029211031E+02 -0.23245743339E+03 -0.10008617222E+03  0.26081867581E+03  0.00000000000E+00 0.  1.
        -13    1    3    3    0    0  0.47329886420E+03 -0.14126163758E+04 -0.39725597462E+03  0.15418525057E+04  0.00000000000E+00 0. -1.
         22    1    1    2    0    0 -0.53632807523E+03  0.16450738092E+04  0.44562082938E+03  0.17867550379E+04  0.00000000000E+00 0. -1.
<mgrwt>
<rscale>  0 0.35890536E+04</rscale>
<asrwt>0</asrwt>
<pdfrwt beam="1">  1        1 0.27213115E+00 0.35890536E+04</pdfrwt>
<pdfrwt beam="2">  1       -1 0.28008827E+00 0.35890536E+04</pdfrwt>
<totfact> 0.15397060E-01</totfact>
</mgrwt>
</event>
<event>
 6    1  0.1773638E-005  0.3337579E+04  0.7818608E-02  0.8153399E-01
          2   -1    0    0  501    0  0.00000000000E+00  0.00000000000E+00  0.19996418978E+04  0.19996418978E+04  0.00000000000E+00 0. -1.
         -2   -1    0    0    0  501 -0.00000000000E+00 -0.00000000000E+00 -0.13926787014E+04  0.13926787014E+04  0.00000000000E+00 0.  1.
         23    2    1    2    0    0 -0.59290040493E+03 -0.15539415514E+04  0.18252658878E+03  0.16758091167E+04  0.93568180781E+02 0.  0.
         13    1    3    3    0    0 -0.56933644759E+03 -0.15287184366E+04  0.18008535850E+03  0.16412052843E+04  0.00000000000E+00 0. -1.
        -13    1    3    3    0    0 -0.23563957347E+02 -0.25223114852E+02  0.24412302717E+01  0.34603832359E+02  0.00000000000E+00 0.  1.
         22    1    1    2    0    0  0.59290040493E+03  0.15539415514E+04  0.42443660764E+03  0.17165114825E+04  0.00000000000E+00 0. -1.
<mgrwt>
<rscale>  0 0.33375792E+04</rscale>
<asrwt>0</asrwt>
<pdfrwt beam="1">  1        2 0.30763722E+00 0.33375792E+04</pdfrwt>
<pdfrwt beam="2">  1       -2 0.21425826E+00 0.33375792E+04</pdfrwt>
<totfact> 0.59846412E-01</totfact>
</mgrwt>
</event>
<event>
 6    1  0.1773638E-005  0.2644863E+04  0.7818608E-02  0.8353120E-01
         -2   -1    0    0    0  501 -0.00000000000E+00  0.00000000000E+00  0.10682208088E+04  0.10682208088E+04  0.00000000000E+00 0. -1.
          2   -1    0    0  501    0  0.00000000000E+00 -0.00000000000E+00 -0.16371376864E+04  0.16371376864E+04  0.00000000000E+00 0.  1.
         23    2    1    2    0    0 -0.26071182875E+03 -0.57769272656E+02 -0.16079533320E+04  0.16325562301E+04  0.91749551715E+02 0.  0.
         11    1    3    3    0    0 -0.83783464333E+02 -0.12173050977E+02 -0.78568295014E+03  0.79023132703E+03  0.00000000000E+00 0. -1.
        -11    1    3    3    0    0 -0.17692836442E+03 -0.45596221679E+02 -0.82227038181E+03  0.84232490309E+03  0.00000000000E+00 0.  1.
         22    1    1    2    0    0  0.26071182875E+03  0.57769272656E+02  0.10390364544E+04  0.10728022651E+04  0.00000000000E+00 0. -1.
<mgrwt>
<rscale>  0 0.26448626E+04</rscale>
<asrwt>0</asrwt>
<pdfrwt beam="1">  1        2 0.25186733E+00 0.26448626E+04</pdfrwt>
<pdfrwt beam="2">  1       -2 0.16434166E+00 0.26448626E+04</pdfrwt>
<totfact> 0.21935098E+00</totfact>
</mgrwt>
</event>
<event>
 6    1  0.1773638E-005  0.2534385E+03  0.7818608E-02  0.1111151E+00
         -2   -1    0    0    0  501 -0.00000000000E+00  0.00000000000E+00  0.16179858139E+02  0.16179858139E+02  0.00000000000E+00 0.  1.
          2   -1    0    0  501    0  0.00000000000E+00 -0.00000000000E+00 -0.99245458418E+03  0.99245458418E+03  0.00000000000E+00 0. -1.
         23    2    1    2    0    0  0.29174907879E-01 -0.10909566210E+03 -0.53196202332E+03  0.55112417780E+03  0.94087197644E+02 0.  0.
         11    1    3    3    0    0 -0.33510611140E+02 -0.95862763133E+02 -0.30883100785E+03  0.32509878779E+03  0.00000000000E+00 0.  1.
        -11    1    3    3    0    0  0.33539786048E+02 -0.13232898967E+02 -0.22313101547E+03  0.22602539001E+03  0.00000000000E+00 0. -1.
         22    1    1    2    0    0 -0.29174907879E-01  0.10909566210E+03 -0.44431270271E+03  0.45751026451E+03  0.00000000000E+00 0.  1.
<mgrwt>
<rscale>  0 0.25343855E+03</rscale>
<asrwt>0</asrwt>
<pdfrwt beam="1">  1        2 0.15268534E+00 0.25343855E+03</pdfrwt>
<pdfrwt beam="2">  1       -2 0.24892086E-02 0.25343855E+03</pdfrwt>
<totfact> 0.14747376E+04</totfact>
</mgrwt>
</event>
<event>
 6    1  0.1773638E-005  0.1530248E+04  0.7818608E-02  0.8864584E-01
         -2   -1    0    0    0  501 -0.00000000000E+00  0.00000000000E+00  0.31245896451E+03  0.31245896451E+03  0.00000000000E+00 0. -1.
          2   -1    0    0  501    0  0.00000000000E+00 -0.00000000000E+00 -0.18735742234E+04  0.18735742234E+04  0.00000000000E+00 0.  1.
         23    2    1    2    0    0  0.75140700984E+03  0.12098272829E+03 -0.81817981178E+03  0.11224531987E+04  0.10598897950E+03 0.  0.
         11    1    3    3    0    0  0.36959195769E+03  0.45200926574E+02 -0.32557354944E+03  0.49461042756E+03  0.00000000000E+00 0.  1.
        -11    1    3    3    0    0  0.38181505215E+03  0.75781801715E+02 -0.49260626233E+03  0.62784277109E+03  0.00000000000E+00 0. -1.
         22    1    1    2    0    0 -0.75140700984E+03 -0.12098272829E+03 -0.74293544710E+03  0.10635799893E+04  0.00000000000E+00 0.  1.
<mgrwt>
<rscale>  0 0.15302484E+04</rscale>
<asrwt>0</asrwt>
<pdfrwt beam="1">  1        2 0.28824218E+00 0.15302484E+04</pdfrwt>
<pdfrwt beam="2">  1       -2 0.48070611E-01 0.15302484E+04</pdfrwt>
<totfact> 0.31044194E+01</totfact>
</mgrwt>
</event>
<event>
 6    1  0.1773638E-005  0.1380160E+04  0.7818608E-02  0.8968306E-01
          1   -1    0    0  501    0  0.00000000000E+00  0.00000000000E+00  0.58960242895E+03  0.58960242895E+03  0.00000000000E+00 0. -1.
         -1   -1    0    0    0  501 -0.00000000000E+00 -0.00000000000E+00 -0.80768050592E+03  0.80768050592E+03  0.00000000000E+00 0.  1.
         23    2    1    2    0    0  0.19644913720E+03 -0.60737607284E+03 -0.36661052435E+03  0.74187478319E+03  0.92070407850E+02 0.  0.
         11    1    3    3    0    0  0.52079624037E+02 -0.15458838150E+03 -0.49220554065E+02  0.17038931268E+03  0.00000000000E+00 0.  1.
        -11    1    3    3    0    0  0.14436951316E+03 -0.45278769135E+03 -0.31738997029E+03  0.57148547051E+03  0.00000000000E+00 0. -1.
         22    1    1    2    0    0 -0.19644913720E+03  0.60737607284E+03  0.14853244739E+03  0.65540815168E+03  0.00000000000E+00 0.  1.
<mgrwt>
<rscale>  0 0.13801600E+04</rscale>
<asrwt>0</asrwt>
<pdfrwt beam="1">  1        1 0.90708066E-01 0.13801600E+04</pdfrwt>
<pdfrwt beam="2">  1       -1 0.12425854E+00 0.13801600E+04</pdfrwt>
<totfact> 0.19488855E+01</totfact>
</mgrwt>
</event>
<event>
 6    1  0.1773638E-005  0.3887130E+04  0.7818608E-02  0.8027711E-01
         -2   -1    0    0    0  501 -0.00000000000E+00  0.00000000000E+00  0.84928510858E+03  0.84928510858E+03  0.00000000000E+00 0.  1.
          2   -1    0    0  501    0  0.00000000000E+00 -0.00000000000E+00 -0.44477936773E+04  0.44477936773E+04  0.00000000000E+00 0. -1.
         23    2    1    2    0    0 -0.79528344128E+03 -0.17712748736E+04 -0.17203055406E+04  0.25956833975E+04  0.90723299806E+02 0.  0.
         13    1    3    3    0    0 -0.13761639686E+03 -0.34567614275E+03 -0.37311689914E+03  0.52692171029E+03  0.00000000000E+00 0.  1.
        -13    1    3    3    0    0 -0.65766704443E+03 -0.14255987308E+04 -0.13471886415E+04  0.20687616872E+04  0.00000000000E+00 0. -1.
         22    1    1    2    0    0  0.79528344128E+03  0.17712748736E+04 -0.18782030281E+04  0.27013953884E+04  0.00000000000E+00 0.  1.
<mgrwt>
<rscale>  0 0.38871300E+04</rscale>
<asrwt>0</asrwt>
<pdfrwt beam="1">  1        2 0.68427595E+00 0.38871300E+04</pdfrwt>
<pdfrwt beam="2">  1       -2 0.13065925E+00 0.38871300E+04</pdfrwt>
<totfact> 0.46899972E-02</totfact>
</mgrwt>
</event>
<event>
 6    1  0.1773638E-005  0.1386538E+04  0.7818608E-02  0.8963621E-01
         -2   -1    0    0    0  501 -0.00000000000E+00  0.00000000000E+00  0.36506894180E+03  0.36506894180E+03  0.00000000000E+00 0.  1.
          2   -1    0    0  501    0  0.00000000000E+00 -0.00000000000E+00 -0.13165236992E+04  0.13165236992E+04  0.00000000000E+00 0. -1.
         23    2    1    2    0    0  0.12581420608E+02  0.68747838920E+03 -0.40508434515E+03  0.80335266515E+03  0.92181072648E+02 0.  0.
         11    1    3    3    0    0  0.14153748597E+02  0.47095765028E+03 -0.32546909879E+03  0.57265309850E+03  0.00000000000E+00 0. -1.
        -11    1    3    3    0    0 -0.15723279895E+01  0.21652073892E+03 -0.79615246356E+02  0.23069956665E+03  0.00000000000E+00 0.  1.
         22    1    1    2    0    0 -0.12581420608E+02 -0.68747838920E+03 -0.54637041222E+03  0.87823997581E+03  0.00000000000E+00 0.  1.
<mgrwt>
<rscale>  0 0.13865380E+04</rscale>
<asrwt>0</asrwt>
<pdfrwt beam="1">  1        2 0.20254211E+00 0.13865380E+04</pdfrwt>
<pdfrwt beam="2">  1       -2 0.56164452E-01 0.13865380E+04</pdfrwt>
<totfact> 0.46873712E+01</totfact>
</mgrwt>
</event>
<event>
 6    1  0.1773638E-005  0.3019663E+04  0.7818608E-02  0.8238138E-01
          2   -1    0    0  501    0  0.00000000000E+00  0.00000000000E+00  0.19968788703E+04  0.19968788703E+04  0.00000000000E+00 0. -1.
         -2   -1    0    0    0  501 -0.00000000000E+00 -0.00000000000E+00 -0.11415771166E+04  0.11415771166E+04  0.00000000000E+00 0.  1.
         23    2    1    2    0    0 -0.11608401586E+03  0.12948934490E+04 -0.36766703006E+03  0.13535534156E+04  0.81873444814E+02 0.  0.
         13    1    3    3    0    0 -0.54975508960E+02  0.58773730389E+03 -0.20929487715E+03  0.62630806363E+03  0.00000000000E+00 0.  1.
        -13    1    3    3    0    0 -0.61108506897E+02  0.70715614511E+03 -0.15837215290E+03  0.72724535200E+03  0.00000000000E+00 0. -1.
         22    1    1    2    0    0  0.11608401586E+03 -0.12948934490E+04  0.12229687837E+04  0.17849025713E+04  0.00000000000E+00 0.  1.
<mgrwt>
<rscale>  0 0.30196630E+04</rscale>
<asrwt>0</asrwt>
<pdfrwt beam="1">  1        2 0.30721213E+00 0.30196630E+04</pdfrwt>
<pdfrwt beam="2">  1       -2 0.17562725E+00 0.30196630E+04</pdfrwt>
<totfact> 0.11151269E+00</totfact>
</mgrwt>
</event>
<event>
 6    1  0.1773638E-005  0.3064983E+04  0.7818608E-02  0.8225414E-01
          2   -1    0    0  501    0  0.00000000000E+00  0.00000000000E+00  0.31610485917E+04  0.31610485917E+04  0.00000000000E+00 0. -1.
         -2   -1    0    0    0  501 -0.00000000000E+00 -0.00000000000E+00 -0.74295908240E+03  0.74295908240E+03  0.00000000000E+00 0.  1.
         23    2    1    2    0    0 -0.10335125399E+04 -0.10954442947E+04  0.85863207928E+03  0.17360469159E+04  0.91997139087E+02 0.  0.
         13    1    3    3    0    0 -0.56965643718E+03 -0.60428870646E+03  0.42066269677E+03  0.93092985860E+03  0.00000000000E+00 0. -1.
        -13    1    3    3    0    0 -0.46385610276E+03 -0.49115558826E+03  0.43796938251E+03  0.80511705731E+03  0.00000000000E+00 0.  1.
         22    1    1    2    0    0  0.10335125399E+04  0.10954442947E+04  0.15594574301E+04  0.21679607582E+04  0.00000000000E+00 0. -1.
<mgrwt>
<rscale>  0 0.30649827E+04</rscale>
<asrwt>0</asrwt>
<pdfrwt beam="1">  1        2 0.48631516E+00 0.30649827E+04</pdfrwt>
<pdfrwt beam="2">  1       -2 0.11430140E+00 0.30649827E+04</pdfrwt>
<totfact> 0.69997475E-01</totfact>
</mgrwt>
</event>
<event>
 6    1  0.1773638E-005  0.2839020E+04  0.7818608E-02  0.8291256E-01
          2   -1    0    0  501    0  0.00000000000E+00  0.00000000000E+00  0.13495179000E+04  0.13495179000E+04  0.00000000000E+00 0. -1.
         -2   -1    0    0    0  501 -0.00000000000E+00 -0.00000000000E+00 -0.14931320465E+04  0.14931320465E+04  0.00000000000E+00 0.  1.
         23    2    1    2    0    0 -0.26097711545E+03  0.97802191727E+03 -0.10663295440E+04  0.14729639861E+04  0.89040903600E+02 0.  0.
         11    1    3    3    0    0 -0.81724402407E+02  0.39007526250E+03 -0.36537100735E+03  0.54067879686E+03  0.00000000000E+00 0.  1.
        -11    1    3    3    0    0 -0.17925271304E+03  0.58794665477E+03 -0.70095853661E+03  0.93228518922E+03  0.00000000000E+00 0. -1.
         22    1    1    2    0    0  0.26097711545E+03 -0.97802191727E+03  0.92271539745E+03  0.13696859604E+04  0.00000000000E+00 0. -1.
<mgrwt>
<rscale>  0 0.28390198E+04</rscale>
<asrwt>0</asrwt>
<pdfrwt beam="1">  1        2 0.20761814E+00 0.28390198E+04</pdfrwt>
<pdfrwt beam="2">  1       -2 0.22971262E+00 0.28390198E+04</pdfrwt>
<totfact> 0.11521958E+00</totfact>
</mgrwt>
</event>
<event>
 6    1  0.1773638E-005  0.1396197E+04  0.7818608E-02  0.8956576E-01
         -2   -1    0    0    0  501 -0.00000000000E+00  0.00000000000E+00  0.33901238990E+03  0.33901238990E+03  0.00000000000E+00 0.  1.
          2   -1    0    0  501    0  0.00000000000E+00 -0.00000000000E+00 -0.14375337010E+04  0.14375337010E+04  0.00000000000E+00 0. -1.
         23    2    1    2    0    0  0.18576763672E+01  0.68784243772E+03 -0.67998374823E+03  0.97137259307E+03  0.89756039528E+02 0.  0.
         13    1    3    3    0    0 -0.30546015785E+02  0.14693301015E+03 -0.17666154516E+03  0.23180092772E+03  0.00000000000E+00 0. -1.
        -13    1    3    3    0    0  0.32403692152E+02  0.54090942757E+03 -0.50332220307E+03  0.73957166535E+03  0.00000000000E+00 0.  1.
         22    1    1    2    0    0 -0.18576763672E+01 -0.68784243772E+03 -0.41853756288E+03  0.80517349784E+03  0.00000000000E+00 0.  1.
<mgrwt>
<rscale>  0 0.13961973E+04</rscale>
<asrwt>0</asrwt>
<pdfrwt beam="1">  1        2 0.22115903E+00 0.13961973E+04</pdfrwt>
<pdfrwt beam="2">  1       -2 0.52155751E-01 0.13961973E+04</pdfrwt>
<totfact> 0.46525185E+01</totfact>
</mgrwt>
</event>
<event>
 6    1  0.1773638E-005  0.2272036E+04  0.7818608E-02  0.8489029E-01
         -2   -1    0    0    0  501 -0.00000000000E+00  0.00000000000E+00  0.83110617878E+03  0.83110617878E+03  0.00000000000E+00 0.  1.
          2   -1    0    0  501    0  0.00000000000E+00 -0.00000000000E+00 -0.15527948309E+04  0.15527948309E+04  0.00000000000E+00 0. -1.
         23    2    1    2    0    0  0.85575678874E+03 -0.13970947911E+03  0.40566177924E+03  0.96166424489E+03  0.91641806709E+02 0.  0.
         11    1    3    3    0    0  0.78276356924E+03 -0.11091997226E+03  0.34546432790E+03  0.86276743531E+03  0.00000000000E+00 0. -1.
        -11    1    3    3    0    0  0.72993219492E+02 -0.28789506849E+02  0.60197451341E+02  0.98896809576E+02  0.00000000000E+00 0.  1.
         22    1    1    2    0    0 -0.85575678874E+03  0.13970947911E+03 -0.11273504313E+04  0.14222367648E+04  0.00000000000E+00 0. -1.
<mgrwt>
<rscale>  0 0.22720364E+04</rscale>
<asrwt>0</asrwt>
<pdfrwt beam="1">  1        2 0.23889151E+00 0.22720364E+04</pdfrwt>
<pdfrwt beam="2">  1       -2 0.12786249E+00 0.22720364E+04</pdfrwt>
<totfact> 0.48789261E+00</totfact>
</mgrwt>
</event>
<event>
 6    1  0.1773638E-005  0.3143973E+04  0.7818608E-02  0.8203773E-01
          1   -1    0    0  501    0  0.00000000000E+00  0.00000000000E+00  0.25670514752E+04  0.25670514752E+04  0.00000000000E+00 0.  1.
         -1   -1    0    0    0  501 -0.00000000000E+00 -0.00000000000E+00 -0.96263795268E+03  0.96263795268E+03  0.00000000000E+00 0. -1.
         23    2    1    2    0    0  0.13901069297E+04 -0.70856265653E+03  0.10052969779E+04  0.18583429802E+04  0.91423761429E+02 0.  0.
         11    1    3    3    0    0  0.24752233031E+03 -0.12314090755E+03  0.13779643817E+03  0.30889940999E+03  0.00000000000E+00 0. -1.
        -11    1    3    3    0    0  0.11425845993E+04 -0.58542174897E+03  0.86750053972E+03  0.15494435702E+04  0.00000000000E+00 0.  1.
         22    1    1    2    0    0 -0.13901069297E+04  0.70856265653E+03  0.59911654459E+03  0.16713464477E+04  0.00000000000E+00 0.  1.
<mgrwt>
<rscale>  0 0.31439728E+04</rscale>
<asrwt>0</asrwt>
<pdfrwt beam="1">  1        1 0.39493099E+00 0.31439728E+04</pdfrwt>
<pdfrwt beam="2">  1       -1 0.14809815E+00 0.31439728E+04</pdfrwt>
<totfact> 0.36918318E-01</totfact>
</mgrwt>
</event>
<event>
 6    1  0.1773638E-005  0.1270879E+04  0.7818608E-02  0.9052983E-01
          3   -1    0    0  501    0  0.00000000000E+00  0.00000000000E+00  0.28078810689E+03  0.28078810689E+03  0.00000000000E+00 0. -1.
         -3   -1    0    0    0  501 -0.00000000000E+00 -0.00000000000E+00 -0.14380356709E+04  0.14380356709E+04  0.00000000000E+00 0.  1.
         23    2    1    2    0    0 -0.52333105921E+03  0.29125226256E+03 -0.85527714768E+03  0.10480858183E+04  0.91003325226E+02 0.  0.
         11    1    3    3    0    0 -0.23312087097E+03  0.17920278727E+03 -0.44012762345E+03  0.52931210488E+03  0.00000000000E+00 0.  1.
        -11    1    3    3    0    0 -0.29021018824E+03  0.11204947529E+03 -0.41514952423E+03  0.51877371343E+03  0.00000000000E+00 0. -1.
         22    1    1    2    0    0  0.52333105921E+03 -0.29125226256E+03 -0.30197041635E+03  0.67073795951E+03  0.00000000000E+00 0. -1.
<mgrwt>
<rscale>  0 0.12708789E+04</rscale>
<asrwt>0</asrwt>
<pdfrwt beam="1">  1        3 0.43198170E-01 0.12708789E+04</pdfrwt>
<pdfrwt beam="2">  1       -3 0.22123626E+00 0.12708789E+04</pdfrwt>
<totfact> 0.14883231E+00</totfact>
</mgrwt>
</event>
<event>
 6    1  0.1773638E-005  0.3753338E+04  0.7818608E-02  0.8056243E-01
         -2   -1    0    0    0  501 -0.00000000000E+00  0.00000000000E+00  0.98048536817E+03  0.98048536817E+03  0.00000000000E+00 0.  1.
          2   -1    0    0  501    0  0.00000000000E+00 -0.00000000000E+00 -0.35919823816E+04  0.35919823816E+04  0.00000000000E+00 0. -1.
         23    2    1    2    0    0  0.15860156539E+04  0.72171833588E+03 -0.46118188061E+03  0.18047650596E+04  0.90361400761E+02 0.  0.
         11    1    3    3    0    0  0.95243142224E+03  0.46274985408E+03 -0.24370015619E+03  0.10865784866E+04  0.00000000000E+00 0. -1.
        -11    1    3    3    0    0  0.63358423163E+03  0.25896848180E+03 -0.21748172442E+03  0.71818657297E+03  0.00000000000E+00 0.  1.
         22    1    1    2    0    0 -0.15860156539E+04 -0.72171833588E+03 -0.21503151329E+04  0.27677026902E+04  0.00000000000E+00 0. -1.
<mgrwt>
<rscale>  0 0.37533378E+04</rscale>
<asrwt>0</asrwt>
<pdfrwt beam="1">  1        2 0.55261268E+00 0.37533378E+04</pdfrwt>
<pdfrwt beam="2">  1       -2 0.15084390E+00 0.37533378E+04</pdfrwt>
<totfact> 0.16588856E-01</totfact>
</mgrwt>
</event>
<event>
 6    1  0.1773638E-005  0.2012511E+04  0.7818608E-02  0.8600793E-01
         -1   -1    0    0    0  501 -0.00000000000E+00  0.00000000000E+00  0.19235121957E+04  0.19235121957E+04  0.00000000000E+00 0.  1.
          1   -1    0    0  501    0  0.00000000000E+00 -0.00000000000E+00 -0.52640709494E+03  0.52640709494E+03  0.00000000000E+00 0. -1.
         23    2    1    2    0    0  0.22635368267E+03 -0.65094151446E+03  0.15891500409E+04  0.17344878796E+04  0.89941687341E+02 0.  0.
         13    1    3    3    0    0  0.46288556045E+02 -0.20079729975E+03  0.39128391554E+03  0.44222764338E+03  0.00000000000E+00 0.  1.
        -13    1    3    3    0    0  0.18006512662E+03 -0.45014421470E+03  0.11978661254E+04  0.12922602362E+04  0.00000000000E+00 0. -1.
         22    1    1    2    0    0 -0.22635368267E+03  0.65094151446E+03 -0.19204494011E+03  0.71543141105E+03  0.00000000000E+00 0. -1.
<mgrwt>
<rscale>  0 0.20125113E+04</rscale>
<asrwt>0</asrwt>
<pdfrwt beam="1">  1        1 0.80985708E-01 0.20125113E+04</pdfrwt>
<pdfrwt beam="2">  1       -1 0.29592495E+00 0.20125113E+04</pdfrwt>
<totfact> 0.13426405E+00</totfact>
</mgrwt>
</event>
<event>
 6    1  0.1773638E-005  0.2427038E+04  0.7818608E-02  0.8429450E-01
          2   -1    0    0  501    0  0.00000000000E+00  0.00000000000E+00  0.17417269936E+04  0.17417269936E+04  0.00000000000E+00 0. -1.
         -2   -1    0    0    0  501 -0.00000000000E+00 -0.00000000000E+00 -0.84549893954E+03  0.84549893954E+03  0.00000000000E+00 0.  1.
         23    2    1    2    0    0 -0.90573396273E+03 -0.49367469070E+03 -0.22911768800E+03  0.10606376617E+04  0.91589425668E+02 0.  0.
         11    1    3    3    0    0 -0.30824448522E+03 -0.12446620783E+03 -0.54072873859E+02  0.33679426249E+03  0.00000000000E+00 0.  1.
        -11    1    3    3    0    0 -0.59748947750E+03 -0.36920848287E+03 -0.17504481414E+03  0.72384339916E+03  0.00000000000E+00 0. -1.
         22    1    1    2    0    0  0.90573396273E+03  0.49367469070E+03  0.11253457420E+04  0.15265882715E+04  0.00000000000E+00 0. -1.
<mgrwt>
<rscale>  0 0.24270380E+04</rscale>
<asrwt>0</asrwt>
<pdfrwt beam="1">  1        2 0.26795800E+00 0.24270380E+04</pdfrwt>
<pdfrwt beam="2">  1       -2 0.13007676E+00 0.24270380E+04</pdfrwt>
<totfact> 0.36176336E+00</totfact>
</mgrwt>
</event>
<event>
 6    1  0.1773638E-005  0.2451201E+04  0.7818608E-02  0.8420580E-01
         -1   -1    0    0    0  501 -0.00000000000E+00  0.00000000000E+00  0.40314735239E+03  0.40314735239E+03  0.00000000000E+00 0.  1.
          1   -1    0    0  501    0  0.00000000000E+00 -0.00000000000E+00 -0.37259249870E+04  0.37259249870E+04  0.00000000000E+00 0. -1.
         23    2    1    2    0    0  0.10319018908E+04 -0.38427824929E+02 -0.55606134523E+03  0.11759354926E+04  0.85567828369E+02 0.  0.
         11    1    3    3    0    0  0.71662249353E+03  0.64181240545E+01 -0.36031329909E+03  0.80213132594E+03  0.00000000000E+00 0.  1.
        -11    1    3    3    0    0  0.31527939722E+03 -0.44845948983E+02 -0.19574804614E+03  0.37380416667E+03  0.00000000000E+00 0. -1.
         22    1    1    2    0    0 -0.10319018908E+04  0.38427824929E+02 -0.27667162894E+04  0.29531368468E+04  0.00000000000E+00 0. -1.
<mgrwt>
<rscale>  0 0.24512012E+04</rscale>
<asrwt>0</asrwt>
<pdfrwt beam="1">  1        1 0.57321922E+00 0.24512012E+04</pdfrwt>
<pdfrwt beam="2">  1       -1 0.62022671E-01 0.24512012E+04</pdfrwt>
<totfact> 0.38713704E-01</totfact>
</mgrwt>
</event>
<event>
 6    1  0.1773638E-005  0.3728873E+04  0.7818608E-02  0.8061593E-01
         -2   -1    0    0    0  501 -0.00000000000E+00  0.00000000000E+00  0.14459988035E+04  0.14459988035E+04  0.00000000000E+00 0.  1.
          2   -1    0    0  501    0  0.00000000000E+00 -0.00000000000E+00 -0.24039597226E+04  0.24039597226E+04  0.00000000000E+00 0. -1.
         23    2    1    2    0    0 -0.10655372484E+04  0.12899886561E+04 -0.13259321573E+04  0.21368201216E+04  0.91998836196E+02 0.  0.
         11    1    3    3    0    0 -0.13494560782E+03  0.20714114630E+03 -0.21765752356E+03  0.32938210201E+03  0.00000000000E+00 0. -1.
        -11    1    3    3    0    0 -0.93059164059E+03  0.10828475098E+04 -0.11082746337E+04  0.18074380196E+04  0.00000000000E+00 0.  1.
         22    1    1    2    0    0  0.10655372484E+04 -0.12899886561E+04  0.36797123813E+03  0.17131384044E+04  0.00000000000E+00 0.  1.
<mgrwt>
<rscale>  0 0.37288727E+04</rscale>
<asrwt>0</asrwt>
<pdfrwt beam="1">  1        2 0.36983996E+00 0.37288727E+04</pdfrwt>
<pdfrwt beam="2">  1       -2 0.22246135E+00 0.37288727E+04</pdfrwt>
<totfact> 0.30412884E-01</totfact>
</mgrwt>
</event>
<event>
 6    1  0.1773638E-005  0.1919910E+04  0.7818608E-02  0.8645009E-01
         -1   -1    0    0    0  501 -0.00000000000E+00  0.00000000000E+00  0.69876349147E+03  0.69876349147E+03  0.00000000000E+00 0.  1.
          1   -1    0    0  501    0  0.00000000000E+00 -0.00000000000E+00 -0.13187771557E+04  0.13187771557E+04  0.00000000000E+00 0. -1.
         23    2    1    2    0    0 -0.52705955215E+03 -0.71109794404E+03 -0.69515438514E+03  0.11292286606E+04  0.92009190655E+02 0.  0.
         11    1    3    3    0    0 -0.25367968301E+03 -0.38789162554E+03 -0.31617601981E+03  0.56105309039E+03  0.00000000000E+00 0. -1.
        -11    1    3    3    0    0 -0.27337986913E+03 -0.32320631850E+03 -0.37897836533E+03  0.56817557018E+03  0.00000000000E+00 0.  1.
         22    1    1    2    0    0  0.52705955215E+03  0.71109794404E+03  0.75140720936E+02  0.88831198656E+03  0.00000000000E+00 0.  1.
<mgrwt>
<rscale>  0 0.19199097E+04</rscale>
<asrwt>0</asrwt>
<pdfrwt beam="1">  1        1 0.20288879E+00 0.19199097E+04</pdfrwt>
<pdfrwt beam="2">  1       -1 0.10750208E+00 0.19199097E+04</pdfrwt>
<totfact> 0.66003923E+00</totfact>
</mgrwt>
</event>
<event>
 6    1  0.1773638E-005  0.2036602E+04  0.7818608E-02  0.8589697E-01
          1   -1    0    0  501    0  0.00000000000E+00  0.00000000000E+00  0.30921274326E+04  0.30921274326E+04  0.00000000000E+00 0. -1.
         -1   -1    0    0    0  501 -0.00000000000E+00 -0.00000000000E+00 -0.33534754374E+03  0.33534754374E+03  0.00000000000E+00 0.  1.
         23    2    1    2    0    0  0.98954086752E+03  0.13360681119E+03  0.16983658769E+04  0.19723866185E+04  0.93917050549E+02 0.  0.
         11    1    3    3    0    0  0.52839568889E+03  0.24264370893E+02  0.90491866360E+03  0.10481739128E+04  0.00000000000E+00 0. -1.
        -11    1    3    3    0    0  0.46114517863E+03  0.10934244030E+03  0.79344721332E+03  0.92421270569E+03  0.00000000000E+00 0.  1.
         22    1    1    2    0    0 -0.98954086752E+03 -0.13360681119E+03  0.10584140120E+04  0.14550883579E+04  0.00000000000E+00 0.  1.
<mgrwt>
<rscale>  0 0.20366024E+04</rscale>
<asrwt>0</asrwt>
<pdfrwt beam="1">  1        1 0.47571189E+00 0.20366024E+04</pdfrwt>
<pdfrwt beam="2">  1       -1 0.51591932E-01 0.20366024E+04</pdfrwt>
<totfact> 0.17916809E+00</totfact>
</mgrwt>
</event>
<event>
 6    1  0.1773638E-005  0.5599691E+04  0.7818608E-02  0.7742119E-01
         -2   -1    0    0    0  501 -0.00000000000E+00  0.00000000000E+00  0.21652219942E+04  0.21652219942E+04  0.00000000000E+00 0. -1.
          2   -1    0    0  501    0  0.00000000000E+00 -0.00000000000E+00 -0.36204758064E+04  0.36204758064E+04  0.00000000000E+00 0.  1.
         23    2    1    2    0    0  0.12883670656E+04  0.11643043117E+03  0.18368532932E+04  0.22485499477E+04  0.92201440521E+02 0.  0.
         11    1    3    3    0    0  0.47246269928E+03  0.82769717177E+02  0.71410263491E+03  0.86024089735E+03  0.00000000000E+00 0. -1.
        -11    1    3    3    0    0  0.81590436630E+03  0.33660713997E+02  0.11227506583E+04  0.13883090503E+04  0.00000000000E+00 0.  1.
         22    1    1    2    0    0 -0.12883670656E+04 -0.11643043117E+03 -0.32921071053E+04  0.35371478530E+04  0.00000000000E+00 0.  1.
<mgrwt>
<rscale>  0 0.55996907E+04</rscale>
<asrwt>0</asrwt>
<pdfrwt beam="1">  1        2 0.55699627E+00 0.55996907E+04</pdfrwt>
<pdfrwt beam="2">  1       -2 0.33311108E+00 0.55996907E+04</pdfrwt>
<totfact> 0.91744844E-03</totfact>
</mgrwt>
</event>
<event>
 6    1  0.1773638E-005  0.2051098E+04  0.7818608E-02  0.8583097E-01
          2   -1    0    0  501    0  0.00000000000E+00  0.00000000000E+00  0.15808420659E+04  0.15808420659E+04  0.00000000000E+00 0. -1.
         -2   -1    0    0    0  501 -0.00000000000E+00 -0.00000000000E+00 -0.66531016470E+03  0.66531016470E+03  0.00000000000E+00 0.  1.
         23    2    1    2    0    0 -0.34849029546E+03  0.53090329165E+03 -0.42036380268E+03  0.76698992620E+03  0.90906705863E+02 0.  0.
         11    1    3    3    0    0 -0.95415224519E+02  0.14940507835E+03 -0.70398675123E+02  0.19074044135E+03  0.00000000000E+00 0. -1.
        -11    1    3    3    0    0 -0.25307507094E+03  0.38149821330E+03 -0.34996512756E+03  0.57624948485E+03  0.00000000000E+00 0.  1.
         22    1    1    2    0    0  0.34849029546E+03 -0.53090329165E+03  0.13358957039E+04  0.14791623044E+04  0.00000000000E+00 0. -1.
<mgrwt>
<rscale>  0 0.20510976E+04</rscale>
<asrwt>0</asrwt>
<pdfrwt beam="1">  1        2 0.24320647E+00 0.20510976E+04</pdfrwt>
<pdfrwt beam="2">  1       -2 0.10235541E+00 0.20510976E+04</pdfrwt>
<totfact> 0.82652820E+00</totfact>
</mgrwt>
</event>
<event>
 6    1  0.1773638E-005  0.9141804E+03  0.7818608E-02  0.9408027E-01
          2   -1    0    0  501    0  0.00000000000E+00  0.00000000000E+00  0.11732473203E+04  0.11732473203E+04  0.00000000000E+00 0. -1.
         -2   -1    0    0    0  501 -0.00000000000E+00 -0.00000000000E+00 -0.17807962752E+03  0.17807962752E+03  0.00000000000E+00 0.  1.
         23    2    1    2    0    0  0.35919303279E+03  0.21944064728E+03  0.74858257417E+03  0.86349700489E+03  0.89874215534E+02 0.  0.
         13    1    3    3    0    0  0.30773914346E+03  0.17830967600E+03  0.55663326296E+03  0.66055908926E+03  0.00000000000E+00 0. -1.
        -13    1    3    3    0    0  0.51453889332E+02  0.41130971279E+02  0.19194931120E+03  0.20293791562E+03  0.00000000000E+00 0.  1.
         22    1    1    2    0    0 -0.35919303279E+03 -0.21944064728E+03  0.24658511858E+03  0.48782994290E+03  0.00000000000E+00 0.  1.
<mgrwt>
<rscale>  0 0.91418039E+03</rscale>
<asrwt>0</asrwt>
<pdfrwt beam="1">  1        2 0.18049958E+00 0.91418039E+03</pdfrwt>
<pdfrwt beam="2">  1       -2 0.27396866E-01 0.91418039E+03</pdfrwt>
<totfact> 0.23863832E+02</totfact>
</mgrwt>
</event>
<event>
 6    1  0.1773638E-005  0.2890700E+04  0.7818608E-02  0.8275650E-01
          1   -1    0    0  501    0  0.00000000000E+00  0.00000000000E+00  0.32548177234E+04  0.32548177234E+04  0.00000000000E+00 0. -1.
         -1   -1    0    0    0  501 -0.00000000000E+00 -0.00000000000E+00 -0.64182912548E+03  0.64182912548E+03  0.00000000000E+00 0.  1.
         23    2    1    2    0    0 -0.35640283448E+03  0.11571803666E+04  0.23682579985E+04  0.26613402280E+04  0.89423041328E+02 0.  0.
         13    1    3    3    0    0 -0.31690438089E+03  0.10631073024E+04  0.21143085418E+04  0.23876612266E+04  0.00000000000E+00 0.  1.
        -13    1    3    3    0    0 -0.39498453588E+02  0.94073064245E+02  0.25394945666E+03  0.27367900137E+03  0.00000000000E+00 0. -1.
         22    1    1    2    0    0  0.35640283448E+03 -0.11571803666E+04  0.24473059944E+03  0.12353066209E+04  0.00000000000E+00 0. -1.
<mgrwt>
<rscale>  0 0.28907001E+04</rscale>
<asrwt>0</asrwt>
<pdfrwt beam="1">  1        1 0.50074118E+00 0.28907001E+04</pdfrwt>
<pdfrwt beam="2">  1       -1 0.98742945E-01 0.28907001E+04</pdfrwt>
<totfact> 0.32550953E-01</totfact>
</mgrwt>
</event>
<event>
 6    1  0.1773638E-005  0.2078503E+04  0.7818608E-02  0.8570772E-01
         -1   -1    0    0    0  501 -0.00000000000E+00  0.00000000000E+00  0.38846671598E+03  0.38846671598E+03  0.00000000000E+00 0.  1.
          1   -1    0    0  501    0  0.00000000000E+00 -0.00000000000E+00 -0.27802742689E+04  0.27802742689E+04  0.00000000000E+00 0. -1.
         23    2    1    2    0    0 -0.23868352296E+03  0.90103501825E+03 -0.50446999065E+03  0.10637761390E+04  0.91081141242E+02 0.  0.
         13    1    3    3    0    0 -0.13695714960E+03  0.41479511858E+03 -0.27833993805E+03  0.51796271327E+03  0.00000000000E+00 0. -1.
        -13    1    3    3    0    0 -0.10172637336E+03  0.48623989967E+03 -0.22613005260E+03  0.54581342578E+03  0.00000000000E+00 0.  1.
         22    1    1    2    0    0  0.23868352296E+03 -0.90103501825E+03 -0.18873375623E+04  0.21049648459E+04  0.00000000000E+00 0. -1.
<mgrwt>
<rscale>  0 0.20785033E+04</rscale>
<asrwt>0</asrwt>
<pdfrwt beam="1">  1        1 0.42773452E+00 0.20785033E+04</pdfrwt>
<pdfrwt beam="2">  1       -1 0.59764108E-01 0.20785033E+04</pdfrwt>
<totfact> 0.22533520E+00</totfact>
</mgrwt>
</event>
<event>
 6    1  0.1773638E-005  0.9919706E+03  0.7818608E-02  0.9317395E-01
          1   -1    0    0  501    0  0.00000000000E+00  0.00000000000E+00  0.14555266393E+04  0.14555266393E+04  0.00000000000E+00 0. -1.
         -1   -1    0    0    0  501 -0.00000000000E+00 -0.00000000000E+00 -0.16901195521E+03  0.16901195521E+03  0.00000000000E+00 0.  1.
         23    2    1    2    0    0 -0.48289203790E+03  0.57971456183E+02  0.52499912353E+03  0.72096161440E+03  0.87270612045E+02 0.  0.
         13    1    3    3    0    0 -0.86859277539E+02  0.84753458947E+01  0.50128757876E+02  0.10064421468E+03  0.00000000000E+00 0.  1.
        -13    1    3    3    0    0 -0.39603276036E+03  0.49496110288E+02  0.47487036566E+03  0.62031739972E+03  0.00000000000E+00 0. -1.
         22    1    1    2    0    0  0.48289203790E+03 -0.57971456183E+02  0.76151556053E+03  0.90357698008E+03  0.00000000000E+00 0. -1.
<mgrwt>
<rscale>  0 0.99197057E+03</rscale>
<asrwt>0</asrwt>
<pdfrwt beam="1">  1        1 0.22392717E+00 0.99197057E+03</pdfrwt>
<pdfrwt beam="2">  1       -1 0.26001840E-01 0.99197057E+03</pdfrwt>
<totfact> 0.92222053E+01</totfact>
</mgrwt>
</event>
<event>
 6    1  0.1773638E-005  0.2674754E+04  0.7818608E-02  0.8343243E-01
         -2   -1    0    0    0  501 -0.00000000000E+00  0.00000000000E+00  0.59897888648E+03  0.59897888648E+03  0.00000000000E+00 0.  1.
          2   -1    0    0  501    0  0.00000000000E+00 -0.00000000000E+00 -0.29860444409E+04  0.29860444409E+04  0.00000000000E+00 0. -1.
         23    2    1    2    0    0  0.12679072463E+04  0.17234070918E+03 -0.17092837068E+04  0.21370321885E+04  0.89250653859E+02 0.  0.
         13    1    3    3    0    0  0.61244028274E+03  0.38319078471E+02 -0.82176968451E+03  0.10256007342E+04  0.00000000000E+00 0.  1.
        -13    1    3    3    0    0  0.65546696352E+03  0.13402163071E+03 -0.88751402230E+03  0.11114314543E+04  0.00000000000E+00 0. -1.
         22    1    1    2    0    0 -0.12679072463E+04 -0.17234070918E+03 -0.67778184757E+03  0.14479911388E+04  0.00000000000E+00 0. -1.
<mgrwt>
<rscale>  0 0.26747542E+04</rscale>
<asrwt>0</asrwt>
<pdfrwt beam="1">  1        2 0.45939146E+00 0.26747542E+04</pdfrwt>
<pdfrwt beam="2">  1       -2 0.92150597E-01 0.26747542E+04</pdfrwt>
<totfact> 0.15622890E+00</totfact>
</mgrwt>
</event>
<event>
 6    1  0.1773638E-005  0.3559173E+04  0.7818608E-02  0.8099908E-01
         -2   -1    0    0    0  501 -0.00000000000E+00  0.00000000000E+00  0.88463298498E+03  0.88463298498E+03  0.00000000000E+00 0.  1.
          2   -1    0    0  501    0  0.00000000000E+00 -0.00000000000E+00 -0.35799342692E+04  0.35799342692E+04  0.00000000000E+00 0. -1.
         23    2    1    2    0    0 -0.37864882406E+03  0.77931139045E+03 -0.32966913444E+04  0.34098771670E+04  0.91582195457E+02 0.  0.
         11    1    3    3    0    0 -0.33065524657E+03  0.61237593617E+03 -0.25514803963E+04  0.26446907933E+04  0.00000000000E+00 0. -1.
        -11    1    3    3    0    0 -0.47993577491E+02  0.16693545428E+03 -0.74521094816E+03  0.76518637379E+03  0.00000000000E+00 0.  1.
         22    1    1    2    0    0  0.37864882406E+03 -0.77931139045E+03  0.60139006026E+03  0.10546900871E+04  0.00000000000E+00 0.  1.
<mgrwt>
<rscale>  0 0.35591729E+04</rscale>
<asrwt>0</asrwt>
<pdfrwt beam="1">  1        2 0.55075914E+00 0.35591729E+04</pdfrwt>
<pdfrwt beam="2">  1       -2 0.13609738E+00 0.35591729E+04</pdfrwt>
<totfact> 0.22510421E-01</totfact>
</mgrwt>
</event>
<event>
 6    1  0.1773638E-005  0.6062974E+03  0.7818608E-02  0.9892426E-01
         -2   -1    0    0    0  501 -0.00000000000E+00  0.00000000000E+00  0.10094578777E+03  0.10094578777E+03  0.00000000000E+00 0.  1.
          2   -1    0    0  501    0  0.00000000000E+00 -0.00000000000E+00 -0.91038106098E+03  0.91038106098E+03  0.00000000000E+00 0. -1.
         23    2    1    2    0    0 -0.18806308961E+03  0.16777116591E+03 -0.15414113484E+03  0.30924045980E+03  0.91407235732E+02 0.  0.
         11    1    3    3    0    0 -0.54577128545E+02  0.10743440228E+03 -0.55736684283E+02  0.13276818794E+03  0.00000000000E+00 0.  1.
        -11    1    3    3    0    0 -0.13348596106E+03  0.60336763625E+02 -0.98404450561E+02  0.17647227186E+03  0.00000000000E+00 0. -1.
         22    1    1    2    0    0  0.18806308961E+03 -0.16777116591E+03 -0.65529413836E+03  0.70208638896E+03  0.00000000000E+00 0. -1.
<mgrwt>
<rscale>  0 0.60629740E+03</rscale>
<asrwt>0</asrwt>
<pdfrwt beam="1">  1        2 0.14005862E+00 0.60629740E+03</pdfrwt>
<pdfrwt beam="2">  1       -2 0.15530122E-01 0.60629740E+03</pdfrwt>
<totfact> 0.95936814E+02</totfact>
</mgrwt>
</event>
<event>
 6    1  0.1773638E-005  0.9246964E+03  0.7818608E-02  0.9395226E-01
          2   -1    0    0  501    0  0.00000000000E+00  0.00000000000E+00  0.12033419155E+04  0.12033419155E+04  0.00000000000E+00 0. -1.
         -2   -1    0    0    0  501 -0.00000000000E+00 -0.00000000000E+00 -0.17764350423E+03  0.17764350423E+03  0.00000000000E+00 0.  1.
         23    2    1    2    0    0 -0.44843528311E+03 -0.16913688402E+02  0.38269561606E+03  0.59687262768E+03  0.91764498227E+02 0.  0.
         13    1    3    3    0    0 -0.15939758176E+03 -0.49891075330E+02  0.14573935245E+03  0.22166792127E+03  0.00000000000E+00 0.  1.
        -13    1    3    3    0    0 -0.28903770136E+03  0.32977386928E+02  0.23695626361E+03  0.37520470642E+03  0.00000000000E+00 0. -1.
         22    1    1    2    0    0  0.44843528311E+03  0.16913688402E+02  0.64300279517E+03  0.78411279201E+03  0.00000000000E+00 0.  1.
<mgrwt>
<rscale>  0 0.92469644E+03</rscale>
<asrwt>0</asrwt>
<pdfrwt beam="1">  1        2 0.18512952E+00 0.92469644E+03</pdfrwt>
<pdfrwt beam="2">  1       -2 0.27329771E-01 0.92469644E+03</pdfrwt>
<totfact> 0.22986012E+02</totfact>
</mgrwt>
</event>
<event>
 6    1  0.1773638E-005  0.3401992E+04  0.7818608E-02  0.8137418E-01
         -1   -1    0    0    0  501 -0.00000000000E+00  0.00000000000E+00  0.26517444469E+04  0.26517444469E+04  0.00000000000E+00 0.  1.
          1   -1    0    0  501    0  0.00000000000E+00 -0.00000000000E+00 -0.10911259667E+04  0.10911259667E+04  0.00000000000E+00 0. -1.
         23    2    1    2    0    0 -0.88612924154E+03 -0.90173025088E+03 -0.46932153980E+03  0.13514275514E+04  0.88041132585E+02 0.  0.
         11    1    3    3    0    0 -0.65278232493E+03 -0.61233768279E+03 -0.31363990410E+03  0.94839453338E+03  0.00000000000E+00 0. -1.
        -11    1    3    3    0    0 -0.23334691662E+03 -0.28939256809E+03 -0.15568163570E+03  0.40303301807E+03  0.00000000000E+00 0.  1.
         22    1    1    2    0    0  0.88612924154E+03  0.90173025088E+03  0.20299400200E+04  0.23914428621E+04  0.00000000000E+00 0.  1.
<mgrwt>
<rscale>  0 0.34019919E+04</rscale>
<asrwt>0</asrwt>
<pdfrwt beam="1">  1        1 0.16786553E+00 0.34019919E+04</pdfrwt>
<pdfrwt beam="2">  1       -1 0.40796068E+00 0.34019919E+04</pdfrwt>
<totfact> 0.66763866E-02</totfact>
</mgrwt>
</event>
<event>
 6    1  0.1773638E-005  0.3954276E+04  0.7818608E-02  0.8013835E-01
         -2   -1    0    0    0  501 -0.00000000000E+00  0.00000000000E+00  0.16176955115E+04  0.16176955115E+04  0.00000000000E+00 0. -1.
          2   -1    0    0  501    0  0.00000000000E+00 -0.00000000000E+00 -0.24164465093E+04  0.24164465093E+04  0.00000000000E+00 0.  1.
         23    2    1    2    0    0  0.17803530189E+02  0.17546485159E+04 -0.13266743674E+04  0.22017088121E+04  0.91369778959E+02 0.  0.
         11    1    3    3    0    0 -0.20651589770E+02  0.11612265352E+04 -0.84133177768E+03  0.14341243720E+04  0.00000000000E+00 0.  1.
        -11    1    3    3    0    0  0.38455119959E+02  0.59342198064E+03 -0.48534258968E+03  0.76758444012E+03  0.00000000000E+00 0. -1.
         22    1    1    2    0    0 -0.17803530189E+02 -0.17546485159E+04  0.52792336959E+03  0.18324332086E+04  0.00000000000E+00 0. -1.
<mgrwt>
<rscale>  0 0.39542760E+04</rscale>
<asrwt>0</asrwt>
<pdfrwt beam="1">  1        2 0.37176100E+00 0.39542760E+04</pdfrwt>
<pdfrwt beam="2">  1       -2 0.24887623E+00 0.39542760E+04</pdfrwt>
<totfact> 0.20111879E-01</totfact>
</mgrwt>
</event>
<event>
 6    1  0.1773638E-005  0.5008664E+04  0.7818608E-02  0.7827172E-01
          1   -1    0    0  501    0  0.00000000000E+00  0.00000000000E+00  0.24492138589E+04  0.24492138589E+04  0.00000000000E+00 0. -1.
         -1   -1    0    0    0  501 -0.00000000000E+00 -0.00000000000E+00 -0.25606908998E+04  0.25606908998E+04  0.00000000000E+00 0.  1.
         23    2    1    2    0    0 -0.15309528494E+04  0.35236449303E+02  0.19252988550E+04  0.24616672727E+04  0.89285194816E+02 0.  0.
         11    1    3    3    0    0 -0.95453401777E+03 -0.11593066957E+02  0.12424906062E+04  0.15668607139E+04  0.00000000000E+00 0.  1.
        -11    1    3    3    0    0 -0.57641883161E+03  0.46829516260E+02  0.68280824883E+03  0.89480655882E+03  0.00000000000E+00 0. -1.
         22    1    1    2    0    0  0.15309528494E+04 -0.35236449303E+02 -0.20367758959E+04  0.25482374859E+04  0.00000000000E+00 0.  1.
<mgrwt>
<rscale>  0 0.50086643E+04</rscale>
<asrwt>0</asrwt>
<pdfrwt beam="1">  1        1 0.37680213E+00 0.50086643E+04</pdfrwt>
<pdfrwt beam="2">  1       -1 0.39395245E+00 0.50086643E+04</pdfrwt>
<totfact> 0.83418610E-03</totfact>
</mgrwt>
</event>
<event>
 6    1  0.1773638E-005  0.2963019E+04  0.7818608E-02  0.8254371E-01
         -2   -1    0    0    0  501 -0.00000000000E+00  0.00000000000E+00  0.11333626872E+04  0.11333626872E+04  0.00000000000E+00 0.  1.
          2   -1    0    0  501    0  0.00000000000E+00 -0.00000000000E+00 -0.19366000035E+04  0.19366000035E+04  0.00000000000E+00 0. -1.
         23    2    1    2    0    0 -0.14768302635E+04  0.82733783932E+02 -0.45733806766E+03  0.15509107507E+04  0.91068888677E+02 0.  0.
         11    1    3    3    0    0 -0.49458941039E+03 -0.50961903354E+01 -0.12380314284E+03  0.50987437100E+03  0.00000000000E+00 0.  1.
        -11    1    3    3    0    0 -0.98224085307E+03  0.87829974267E+02 -0.33353492482E+03  0.10410363797E+04  0.00000000000E+00 0. -1.
         22    1    1    2    0    0  0.14768302635E+04 -0.82733783932E+02 -0.34589924871E+03  0.15190519400E+04  0.00000000000E+00 0. -1.
<mgrwt>
<rscale>  0 0.29630189E+04</rscale>
<asrwt>0</asrwt>
<pdfrwt beam="1">  1        2 0.29793846E+00 0.29630189E+04</pdfrwt>
<pdfrwt beam="2">  1       -2 0.17436349E+00 0.29630189E+04</pdfrwt>
<totfact> 0.12352319E+00</totfact>
</mgrwt>
</event>
<event>
 6    1  0.2571907E-005  0.2530101E+04  0.7818608E-02  0.8392340E-01
         -2   -1    0    0    0  501 -0.00000000000E+00  0.00000000000E+00  0.80727315140E+03  0.80727315140E+03  0.00000000000E+00 0.  1.
          2   -1    0    0  501    0  0.00000000000E+00 -0.00000000000E+00 -0.19824175107E+04  0.19824175107E+04  0.00000000000E+00 0. -1.
         23    2    1    2    0    0  0.62814877637E+03 -0.17667521549E+02 -0.17968412712E+04  0.19057279498E+04  0.90980428475E+02 0.  0.
         11    1    3    3    0    0  0.33621210000E+03 -0.18965416154E+02 -0.82802344964E+03  0.89387979972E+03  0.00000000000E+00 0. -1.
        -11    1    3    3    0    0  0.29193667638E+03  0.12978946047E+01 -0.96881782154E+03  0.10118481501E+04  0.00000000000E+00 0.  1.
         22    1    1    2    0    0 -0.62814877637E+03  0.17667521549E+02  0.62169691184E+03  0.88396271232E+03  0.00000000000E+00 0.  1.
<mgrwt>
<rscale>  0 0.25301007E+04</rscale>
<asrwt>0</asrwt>
<pdfrwt beam="1">  1        2 0.30498731E+00 0.25301007E+04</pdfrwt>
<pdfrwt beam="2">  1       -2 0.12419587E+00 0.25301007E+04</pdfrwt>
<totfact> 0.29626907E+00</totfact>
</mgrwt>
</event>
<event>
 6    1  0.1773638E-005  0.8869593E+03  0.7818608E-02  0.9442031E-01
         -2   -1    0    0    0  501 -0.00000000000E+00  0.00000000000E+00  0.32673146457E+03  0.32673146457E+03  0.00000000000E+00 0. -1.
          2   -1    0    0  501    0  0.00000000000E+00 -0.00000000000E+00 -0.60194446977E+03  0.60194446977E+03  0.00000000000E+00 0.  1.
         23    2    1    2    0    0  0.97191892402E+02  0.37330903362E+03 -0.35671665489E+03  0.53440604779E+03  0.97658350961E+02 0.  0.
         11    1    3    3    0    0  0.69162507553E+02  0.32365512017E+03 -0.25502702895E+03  0.41782158245E+03  0.00000000000E+00 0.  1.
        -11    1    3    3    0    0  0.28029384849E+02  0.49653913445E+02 -0.10168962595E+03  0.11658446535E+03  0.00000000000E+00 0. -1.
         22    1    1    2    0    0 -0.97191892402E+02 -0.37330903362E+03  0.81503649697E+02  0.39426988655E+03  0.00000000000E+00 0. -1.
<mgrwt>
<rscale>  0 0.88695930E+03</rscale>
<asrwt>0</asrwt>
<pdfrwt beam="1">  1        2 0.92606840E-01 0.88695930E+03</pdfrwt>
<pdfrwt beam="2">  1       -2 0.50266380E-01 0.88695930E+03</pdfrwt>
<totfact> 0.18565292E+02</totfact>
</mgrwt>
</event>
<event>
 6    1  0.1773638E-005  0.1475988E+04  0.7818608E-02  0.8900580E-01
         -1   -1    0    0    0  501 -0.00000000000E+00  0.00000000000E+00  0.27169963566E+03  0.27169963566E+03  0.00000000000E+00 0.  1.
          1   -1    0    0  501    0  0.00000000000E+00 -0.00000000000E+00 -0.20045485675E+04  0.20045485675E+04  0.00000000000E+00 0. -1.
         23    2    1    2    0    0  0.37827226139E+03 -0.35470683614E+03 -0.16733325959E+04  0.17542816931E+04  0.92495615339E+02 0.  0.
         13    1    3    3    0    0  0.19117324155E+03 -0.22855425046E+03 -0.85635249188E+03  0.90671045215E+03  0.00000000000E+00 0. -1.
        -13    1    3    3    0    0  0.18709901984E+03 -0.12615258567E+03 -0.81698010403E+03  0.84757124095E+03  0.00000000000E+00 0.  1.
         22    1    1    2    0    0 -0.37827226139E+03  0.35470683614E+03 -0.59516335886E+02  0.52196651001E+03  0.00000000000E+00 0.  1.
<mgrwt>
<rscale>  0 0.14759880E+04</rscale>
<asrwt>0</asrwt>
<pdfrwt beam="1">  1        1 0.30839209E+00 0.14759880E+04</pdfrwt>
<pdfrwt beam="2">  1       -1 0.41799944E-01 0.14759880E+04</pdfrwt>
<totfact> 0.16120007E+01</totfact>
</mgrwt>
</event>
<event>
 6    1  0.1773638E-005  0.1153361E+04  0.7818608E-02  0.9154689E-01
          1   -1    0    0  501    0  0.00000000000E+00  0.00000000000E+00  0.10499314675E+04  0.10499314675E+04  0.00000000000E+00 0. -1.
         -1   -1    0    0    0  501 -0.00000000000E+00 -0.00000000000E+00 -0.31674471492E+03  0.31674471492E+03  0.00000000000E+00 0.  1.
         23    2    1    2    0    0 -0.36506697190E+03  0.42552814268E+03  0.22941836000E+03  0.61293173798E+03  0.93297574099E+02 0.  0.
         13    1    3    3    0    0 -0.15058696230E+03  0.22700744501E+03  0.75790853534E+02  0.28275973331E+03  0.00000000000E+00 0.  1.
        -13    1    3    3    0    0 -0.21448000960E+03  0.19852069767E+03  0.15362750647E+03  0.33017200467E+03  0.00000000000E+00 0. -1.
         22    1    1    2    0    0  0.36506697190E+03 -0.42552814268E+03  0.50376839261E+03  0.75374444448E+03  0.00000000000E+00 0.  1.
<mgrwt>
<rscale>  0 0.11533607E+04</rscale>
<asrwt>0</asrwt>
<pdfrwt beam="1">  1        1 0.16152792E+00 0.11533607E+04</pdfrwt>
<pdfrwt beam="2">  1       -1 0.48729957E-01 0.11533607E+04</pdfrwt>
<totfact> 0.57909347E+01</totfact>
</mgrwt>
</event>
<event>
 6    1  0.1773638E-005  0.2265087E+04  0.7818608E-02  0.8491815E-01
          2   -1    0    0  501    0  0.00000000000E+00  0.00000000000E+00  0.15701358357E+04  0.15701358357E+04  0.00000000000E+00 0.  1.
         -2   -1    0    0    0  501 -0.00000000000E+00 -0.00000000000E+00 -0.81690679936E+03  0.81690679936E+03  0.00000000000E+00 0. -1.
         23    2    1    2    0    0  0.10980430401E+04  0.48132673963E+02  0.97446282277E+02  0.11071729961E+04  0.91219476965E+02 0.  0.
         11    1    3    3    0    0  0.59594673468E+03  0.71029907645E+01  0.11337963380E+02  0.59609689856E+03  0.00000000000E+00 0. -1.
        -11    1    3    3    0    0  0.50209630546E+03  0.41029683198E+02  0.86108318897E+02  0.51107609750E+03  0.00000000000E+00 0.  1.
         22    1    1    2    0    0 -0.10980430401E+04 -0.48132673963E+02  0.65578275408E+03  0.12798696390E+04  0.00000000000E+00 0.  1.
<mgrwt>
<rscale>  0 0.22650869E+04</rscale>
<asrwt>0</asrwt>
<pdfrwt beam="1">  1        2 0.24155936E+00 0.22650869E+04</pdfrwt>
<pdfrwt beam="2">  1       -2 0.12567797E+00 0.22650869E+04</pdfrwt>
<totfact> 0.49852459E+00</totfact>
</mgrwt>
</event>
<event>
 6    1  0.1773638E-005  0.1200899E+04  0.7818608E-02  0.9112070E-01
         -1   -1    0    0    0  501 -0.00000000000E+00  0.00000000000E+00  0.45032257050E+03  0.45032257050E+03  0.00000000000E+00 0.  1.
          1   -1    0    0  501    0  0.00000000000E+00 -0.00000000000E+00 -0.80062533395E+03  0.80062533395E+03  0.00000000000E+00 0. -1.
         23    2    1    2    0    0  0.45586453127E+03  0.95759383435E+01  0.22601434779E+03  0.51606996753E+03  0.85682883405E+02 0.  0.
         13    1    3    3    0    0  0.44828252534E+03  0.32943738820E+01  0.20516351548E+03  0.49301130161E+03  0.00000000000E+00 0. -1.
        -13    1    3    3    0    0  0.75820059299E+01  0.62815644615E+01  0.20850832311E+02  0.23058665922E+02  0.00000000000E+00 0.  1.
         22    1    1    2    0    0 -0.45586453127E+03 -0.95759383435E+01 -0.57631711125E+03  0.73487793693E+03  0.00000000000E+00 0. -1.
<mgrwt>
<rscale>  0 0.12008991E+04</rscale>
<asrwt>0</asrwt>
<pdfrwt beam="1">  1        1 0.12317313E+00 0.12008991E+04</pdfrwt>
<pdfrwt beam="2">  1       -1 0.69280397E-01 0.12008991E+04</pdfrwt>
<totfact> 0.46069545E+01</totfact>
</mgrwt>
</event>
<event>
 6    1  0.1773638E-005  0.2567095E+04  0.7818608E-02  0.8379465E-01
          1   -1    0    0  501    0  0.00000000000E+00  0.00000000000E+00  0.28394648003E+04  0.28394648003E+04  0.00000000000E+00 0. -1.
         -1   -1    0    0    0  501 -0.00000000000E+00 -0.00000000000E+00 -0.58021296921E+03  0.58021296921E+03  0.00000000000E+00 0.  1.
         23    2    1    2    0    0 -0.60303690178E+03 -0.53059670438E+03  0.24619871938E+04  0.25912527608E+04  0.89574328487E+02 0.  0.
         11    1    3    3    0    0 -0.25953485538E+03 -0.28630334155E+03  0.12111347567E+04  0.12712888513E+04  0.00000000000E+00 0. -1.
        -11    1    3    3    0    0 -0.34350204640E+03 -0.24429336283E+03  0.12508524372E+04  0.13199639096E+04  0.00000000000E+00 0.  1.
         22    1    1    2    0    0  0.60303690178E+03  0.53059670438E+03 -0.20273536278E+03  0.82842500863E+03  0.00000000000E+00 0.  1.
<mgrwt>
<rscale>  0 0.25670951E+04</rscale>
<asrwt>0</asrwt>
<pdfrwt beam="1">  1        1 0.43684073E+00 0.25670951E+04</pdfrwt>
<pdfrwt beam="2">  1       -1 0.89263536E-01 0.25670951E+04</pdfrwt>
<totfact> 0.84822349E-01</totfact>
</mgrwt>
</event>
<event>
 6    1  0.1773638E-005  0.5182379E+04  0.7818608E-02  0.7800973E-01
          1   -1    0    0  501    0  0.00000000000E+00  0.00000000000E+00  0.25863355618E+04  0.25863355618E+04  0.00000000000E+00 0. -1.
         -1   -1    0    0    0  501 -0.00000000000E+00 -0.00000000000E+00 -0.25960527425E+04  0.25960527425E+04  0.00000000000E+00 0.  1.
         23    2    1    2    0    0 -0.18305914954E+04 -0.52592335416E+03  0.17508435180E+04  0.25886970021E+04  0.90766441401E+02 0.  0.
         13    1    3    3    0    0 -0.76943580467E+03 -0.26753555750E+03  0.75412320063E+03  0.11100939302E+04  0.00000000000E+00 0. -1.
        -13    1    3    3    0    0 -0.10611556907E+04 -0.25838779666E+03  0.99672031735E+03  0.14786030720E+04  0.00000000000E+00 0.  1.
         22    1    1    2    0    0  0.18305914954E+04  0.52592335416E+03 -0.17605606987E+04  0.25936913022E+04  0.00000000000E+00 0.  1.
<mgrwt>
<rscale>  0 0.51823792E+04</rscale>
<asrwt>0</asrwt>
<pdfrwt beam="1">  1        1 0.39789778E+00 0.51823792E+04</pdfrwt>
<pdfrwt beam="2">  1       -1 0.39939273E+00 0.51823792E+04</pdfrwt>
<totfact> 0.60663041E-03</totfact>
</mgrwt>
</event>
<event>
 6    1  0.1773638E-005  0.6343015E+03  0.7818608E-02  0.9836691E-01
         -1   -1    0    0    0  501 -0.00000000000E+00  0.00000000000E+00  0.11409387755E+03  0.11409387755E+03  0.00000000000E+00 0.  1.
          1   -1    0    0  501    0  0.00000000000E+00 -0.00000000000E+00 -0.88159504677E+03  0.88159504677E+03  0.00000000000E+00 0. -1.
         23    2    1    2    0    0  0.23259350268E+03  0.13552204622E+03 -0.63499297020E+03  0.69564828489E+03  0.90799237720E+02 0.  0.
         11    1    3    3    0    0  0.67465553186E+02  0.72809829959E+02 -0.31334430478E+03  0.32869062284E+03  0.00000000000E+00 0. -1.
        -11    1    3    3    0    0  0.16512794949E+03  0.62712216261E+02 -0.32164866542E+03  0.36695766205E+03  0.00000000000E+00 0.  1.
         22    1    1    2    0    0 -0.23259350268E+03 -0.13552204622E+03 -0.13250819903E+03  0.30004063943E+03  0.00000000000E+00 0.  1.
<mgrwt>
<rscale>  0 0.63430150E+03</rscale>
<asrwt>0</asrwt>
<pdfrwt beam="1">  1        1 0.13563001E+00 0.63430150E+03</pdfrwt>
<pdfrwt beam="2">  1       -1 0.17552904E-01 0.63430150E+03</pdfrwt>
<totfact> 0.48477002E+02</totfact>
</mgrwt>
</event>
<event>
 6    1  0.1773638E-005  0.3579356E+04  0.7818608E-02  0.8095237E-01
          2   -1    0    0  501    0  0.00000000000E+00  0.00000000000E+00  0.29140920479E+04  0.29140920479E+04  0.00000000000E+00 0. -1.
         -2   -1    0    0    0  501 -0.00000000000E+00 -0.00000000000E+00 -0.10991238147E+04  0.10991238147E+04  0.00000000000E+00 0.  1.
         23    2    1    2    0    0  0.15846885627E+04 -0.66758946534E+03  0.14606012096E+04  0.22575138599E+04  0.78098648608E+02 0.  0.
         13    1    3    3    0    0  0.14199844976E+04 -0.57332875238E+03  0.13104993325E+04  0.20155570773E+04  0.00000000000E+00 0. -1.
        -13    1    3    3    0    0  0.16470406515E+03 -0.94260712954E+02  0.15010187715E+03  0.24195678252E+03  0.00000000000E+00 0.  1.
         22    1    1    2    0    0 -0.15846885627E+04  0.66758946534E+03  0.35436702361E+03  0.17557020027E+04  0.00000000000E+00 0.  1.
<mgrwt>
<rscale>  0 0.35793563E+04</rscale>
<asrwt>0</asrwt>
<pdfrwt beam="1">  1        2 0.44832185E+00 0.35793563E+04</pdfrwt>
<pdfrwt beam="2">  1       -2 0.16909597E+00 0.35793563E+04</pdfrwt>
<totfact> 0.34758736E-01</totfact>
</mgrwt>
</event>
<event>
 6    1  0.1773638E-005  0.1450758E+04  0.7818608E-02  0.8917875E-01
          2   -1    0    0  501    0  0.00000000000E+00  0.00000000000E+00  0.35855808863E+04  0.35855808863E+04  0.00000000000E+00 0. -1.
         -2   -1    0    0    0  501 -0.00000000000E+00 -0.00000000000E+00 -0.14674746228E+03  0.14674746228E+03  0.00000000000E+00 0.  1.
         23    2    1    2    0    0 -0.98068095609E+02 -0.49839233361E+03  0.30481150943E+04  0.30914905510E+04  0.91081993605E+02 0.  0.
         13    1    3    3    0    0 -0.25123028220E+02 -0.27832419279E+03  0.14549788596E+04  0.14815731520E+04  0.00000000000E+00 0. -1.
        -13    1    3    3    0    0 -0.72945067389E+02 -0.22006814083E+03  0.15931362346E+04  0.16099173990E+04  0.00000000000E+00 0.  1.
         22    1    1    2    0    0  0.98068095609E+02  0.49839233361E+03  0.39071832977E+03  0.64083779758E+03  0.00000000000E+00 0. -1.
<mgrwt>
<rscale>  0 0.14507583E+04</rscale>
<asrwt>0</asrwt>
<pdfrwt beam="1">  1        2 0.55162776E+00 0.14507583E+04</pdfrwt>
<pdfrwt beam="2">  1       -2 0.22576536E-01 0.14507583E+04</pdfrwt>
<totfact> 0.12025435E+01</totfact>
</mgrwt>
</event>
<event>
 6    1  0.1773638E-005  0.2955603E+04  0.7818608E-02  0.8256524E-01
         -2   -1    0    0    0  501 -0.00000000000E+00  0.00000000000E+00  0.13348784382E+04  0.13348784382E+04  0.00000000000E+00 0.  1.
          2   -1    0    0  501    0  0.00000000000E+00 -0.00000000000E+00 -0.16360265938E+04  0.16360265938E+04  0.00000000000E+00 0. -1.
         23    2    1    2    0    0 -0.14720740038E+03  0.13137234379E+04 -0.81142973638E+03  0.15538917710E+04  0.92855418877E+02 0.  0.
         13    1    3    3    0    0 -0.75179329143E+02  0.80241205381E+03 -0.44389885216E+03  0.92008870582E+03  0.00000000000E+00 0. -1.
        -13    1    3    3    0    0 -0.72028071237E+02  0.51131138410E+03 -0.36753088423E+03  0.63380306517E+03  0.00000000000E+00 0.  1.
         22    1    1    2    0    0  0.14720740038E+03 -0.13137234379E+04  0.51028158082E+03  0.14170132610E+04  0.00000000000E+00 0.  1.
<mgrwt>
<rscale>  0 0.29556026E+04</rscale>
<asrwt>0</asrwt>
<pdfrwt beam="1">  1        2 0.25169640E+00 0.29556026E+04</pdfrwt>
<pdfrwt beam="2">  1       -2 0.20536591E+00 0.29556026E+04</pdfrwt>
<totfact> 0.11223002E+00</totfact>
</mgrwt>
</event>
<event>
 6    1  0.1773638E-005  0.3329247E+04  0.7818608E-02  0.8155493E-01
         -2   -1    0    0    0  501 -0.00000000000E+00  0.00000000000E+00  0.15441783533E+04  0.15441783533E+04  0.00000000000E+00 0.  1.
          2   -1    0    0  501    0  0.00000000000E+00 -0.00000000000E+00 -0.17944633953E+04  0.17944633953E+04  0.00000000000E+00 0. -1.
         23    2    1    2    0    0 -0.14762105952E+04 -0.30878077743E+03 -0.82881835184E+03  0.17233262746E+04  0.91489334809E+02 0.  0.
         11    1    3    3    0    0 -0.11365714079E+04 -0.20490506544E+03 -0.60884634084E+03  0.13055552527E+04  0.00000000000E+00 0. -1.
        -11    1    3    3    0    0 -0.33963918732E+03 -0.10387571199E+03 -0.21997201100E+03  0.41777102188E+03  0.00000000000E+00 0.  1.
         22    1    1    2    0    0  0.14762105952E+04  0.30878077743E+03  0.57853330987E+03  0.16153154740E+04  0.00000000000E+00 0.  1.
<mgrwt>
<rscale>  0 0.33292471E+04</rscale>
<asrwt>0</asrwt>
<pdfrwt beam="1">  1        2 0.27607129E+00 0.33292471E+04</pdfrwt>
<pdfrwt beam="2">  1       -2 0.23756590E+00 0.33292471E+04</pdfrwt>
<totfact> 0.55537644E-01</totfact>
</mgrwt>
</event>
<event>
 6    1  0.1773638E-005  0.4243298E+04  0.7818608E-02  0.7957187E-01
         -2   -1    0    0    0  501 -0.00000000000E+00  0.00000000000E+00  0.15819619488E+04  0.15819619488E+04  0.00000000000E+00 0.  1.
          2   -1    0    0  501    0  0.00000000000E+00 -0.00000000000E+00 -0.28454511355E+04  0.28454511355E+04  0.00000000000E+00 0. -1.
         23    2    1    2    0    0 -0.19143607835E+03  0.12181842047E+04 -0.24321958063E+04  0.27284440760E+04  0.90609639536E+02 0.  0.
         11    1    3    3    0    0 -0.58883471761E+02  0.24464132979E+03 -0.43141040686E+03  0.49943125917E+03  0.00000000000E+00 0. -1.
        -11    1    3    3    0    0 -0.13255260659E+03  0.97354287493E+03 -0.20007853995E+04  0.22290128168E+04  0.00000000000E+00 0.  1.
         22    1    1    2    0    0  0.19143607835E+03 -0.12181842047E+04  0.11687066196E+04  0.16989690084E+04  0.00000000000E+00 0.  1.
<mgrwt>
<rscale>  0 0.42432984E+04</rscale>
<asrwt>0</asrwt>
<pdfrwt beam="1">  1        2 0.43776171E+00 0.42432984E+04</pdfrwt>
<pdfrwt beam="2">  1       -2 0.24337876E+00 0.42432984E+04</pdfrwt>
<totfact> 0.11845950E-01</totfact>
</mgrwt>
</event>
<event>
 6    1  0.1773638E-005  0.3222928E+04  0.7818608E-02  0.8182788E-01
         -1   -1    0    0    0  501 -0.00000000000E+00  0.00000000000E+00  0.13057573188E+04  0.13057573188E+04  0.00000000000E+00 0.  1.
          1   -1    0    0  501    0  0.00000000000E+00 -0.00000000000E+00 -0.19887434402E+04  0.19887434402E+04  0.00000000000E+00 0. -1.
         23    2    1    2    0    0  0.33091763261E+03 -0.22396738768E+03 -0.19361013566E+04  0.19792191682E+04  0.95667040089E+02 0.  0.
         13    1    3    3    0    0  0.19996020903E+03 -0.15342774120E+03 -0.14164040846E+04  0.14386537762E+04  0.00000000000E+00 0. -1.
        -13    1    3    3    0    0  0.13095742358E+03 -0.70539646481E+02 -0.51969727195E+03  0.54056539196E+03  0.00000000000E+00 0.  1.
         22    1    1    2    0    0 -0.33091763261E+03  0.22396738768E+03  0.12531152352E+04  0.13152815907E+04  0.00000000000E+00 0.  1.
<mgrwt>
<rscale>  0 0.32229280E+04</rscale>
<asrwt>0</asrwt>
<pdfrwt beam="1">  1        1 0.30596053E+00 0.32229280E+04</pdfrwt>
<pdfrwt beam="2">  1       -1 0.20088574E+00 0.32229280E+04</pdfrwt>
<totfact> 0.37584625E-01</totfact>
</mgrwt>
</event>
<event>
 6    1  0.1773638E-005  0.1048057E+04  0.7818608E-02  0.9257352E-01
          4   -1    0    0  501    0  0.00000000000E+00  0.00000000000E+00  0.15662375756E+03  0.15662375756E+03  0.00000000000E+00 0. -1.
         -4   -1    0    0    0  501 -0.00000000000E+00 -0.00000000000E+00 -0.17532851277E+04  0.17532851277E+04  0.00000000000E+00 0.  1.
         23    2    1    2    0    0  0.14119547097E+03  0.46189976345E+03 -0.11580363348E+04  0.12574677200E+04  0.83002178314E+02 0.  0.
         11    1    3    3    0    0  0.14790844521E+03  0.37962449401E+03 -0.97269302664E+03  0.10545726095E+04  0.00000000000E+00 0.  1.
        -11    1    3    3    0    0 -0.67129742412E+01  0.82275269448E+02 -0.18534330820E+03  0.20289511054E+03  0.00000000000E+00 0. -1.
         22    1    1    2    0    0 -0.14119547097E+03 -0.46189976345E+03 -0.43862503533E+03  0.65244116525E+03  0.00000000000E+00 0. -1.
<mgrwt>
<rscale>  0 0.10480575E+04</rscale>
<asrwt>0</asrwt>
<pdfrwt beam="1">  1        4 0.24095963E-01 0.10480575E+04</pdfrwt>
<pdfrwt beam="2">  1       -4 0.26973617E+00 0.10480575E+04</pdfrwt>
<totfact> 0.15633837E+00</totfact>
</mgrwt>
</event>
<event>
 6    1  0.1773638E-005  0.5003913E+04  0.7818608E-02  0.7827904E-01
          2   -1    0    0  501    0  0.00000000000E+00  0.00000000000E+00  0.22430897452E+04  0.22430897452E+04  0.00000000000E+00 0.  1.
         -2   -1    0    0    0  501 -0.00000000000E+00 -0.00000000000E+00 -0.27906984813E+04  0.27906984813E+04  0.00000000000E+00 0. -1.
         23    2    1    2    0    0 -0.14526226165E+04  0.20333648364E+04 -0.16948990668E+03  0.25064064047E+04  0.93065641327E+02 0.  0.
         11    1    3    3    0    0 -0.40633923391E+03  0.51103143994E+03 -0.67650326090E+02  0.65638500306E+03  0.00000000000E+00 0.  1.
        -11    1    3    3    0    0 -0.10462833826E+04  0.15223333964E+04 -0.10183958059E+03  0.18500214017E+04  0.00000000000E+00 0. -1.
         22    1    1    2    0    0  0.14526226165E+04 -0.20333648364E+04 -0.37811882936E+03  0.25273818217E+04  0.00000000000E+00 0. -1.
<mgrwt>
<rscale>  0 0.50039133E+04</rscale>
<asrwt>0</asrwt>
<pdfrwt beam="1">  1        2 0.34509073E+00 0.50039133E+04</pdfrwt>
<pdfrwt beam="2">  1       -2 0.42933823E+00 0.50039133E+04</pdfrwt>
<totfact> 0.16930671E-02</totfact>
</mgrwt>
</event>
<event>
 6    1  0.1773638E-005  0.3088173E+04  0.7818608E-02  0.8218991E-01
          2   -1    0    0  501    0  0.00000000000E+00  0.00000000000E+00  0.19152023360E+04  0.19152023360E+04  0.00000000000E+00 0.  1.
         -2   -1    0    0    0  501 -0.00000000000E+00 -0.00000000000E+00 -0.12448828396E+04  0.12448828396E+04  0.00000000000E+00 0. -1.
         23    2    1    2    0    0 -0.14334708429E+04  0.61003547638E+02 -0.24473750271E+03  0.14583538802E+04  0.91320886866E+02 0.  0.
         13    1    3    3    0    0 -0.68818362561E+03  0.67630054658E+02 -0.14293422917E+03  0.70611664810E+03  0.00000000000E+00 0. -1.
        -13    1    3    3    0    0 -0.74528721730E+03 -0.66265070207E+01 -0.10180327354E+03  0.75223723211E+03  0.00000000000E+00 0.  1.
         22    1    1    2    0    0  0.14334708429E+04 -0.61003547638E+02  0.91505699902E+03  0.17017312954E+04  0.00000000000E+00 0.  1.
<mgrwt>
<rscale>  0 0.30881726E+04</rscale>
<asrwt>0</asrwt>
<pdfrwt beam="1">  1        2 0.29464651E+00 0.30881726E+04</pdfrwt>
<pdfrwt beam="2">  1       -2 0.19152044E+00 0.30881726E+04</pdfrwt>
<totfact> 0.95834463E-01</totfact>
</mgrwt>
</event>
<event>
 6    1  0.1773638E-005  0.3766921E+04  0.7818608E-02  0.8053291E-01
         -2   -1    0    0    0  501 -0.00000000000E+00  0.00000000000E+00  0.15784964658E+04  0.15784964658E+04  0.00000000000E+00 0.  1.
          2   -1    0    0  501    0  0.00000000000E+00 -0.00000000000E+00 -0.22473435638E+04  0.22473435638E+04  0.00000000000E+00 0. -1.
         23    2    1    2    0    0  0.13373844865E+04 -0.10803943925E+04  0.44371182031E+03  0.17780029621E+04  0.92547531960E+02 0.  0.
         13    1    3    3    0    0  0.87651632013E+03 -0.67020833358E+03  0.31876316964E+03  0.11485077397E+04  0.00000000000E+00 0. -1.
        -13    1    3    3    0    0  0.46086816642E+03 -0.41018605894E+03  0.12494865067E+03  0.62949522244E+03  0.00000000000E+00 0.  1.
         22    1    1    2    0    0 -0.13373844865E+04  0.10803943925E+04 -0.11125589183E+04  0.20478370675E+04  0.00000000000E+00 0. -1.
<mgrwt>
<rscale>  0 0.37669212E+04</rscale>
<asrwt>0</asrwt>
<pdfrwt beam="1">  1        2 0.34574516E+00 0.37669212E+04</pdfrwt>
<pdfrwt beam="2">  1       -2 0.24284561E+00 0.37669212E+04</pdfrwt>
<totfact> 0.27772137E-01</totfact>
</mgrwt>
</event>
<event>
 6    1  0.1773638E-005  0.2609114E+04  0.7818608E-02  0.8365112E-01
          2   -1    0    0  501    0  0.00000000000E+00  0.00000000000E+00  0.16764718960E+04  0.16764718960E+04  0.00000000000E+00 0. -1.
         -2   -1    0    0    0  501 -0.00000000000E+00 -0.00000000000E+00 -0.10151494408E+04  0.10151494408E+04  0.00000000000E+00 0.  1.
         23    2    1    2    0    0  0.11346361290E+03  0.80052043491E+03 -0.72302681583E+03  0.10884588801E+04  0.90928538847E+02 0.  0.
         11    1    3    3    0    0  0.54084550116E+02  0.44639921694E+03 -0.34232087622E+03  0.56513802008E+03  0.00000000000E+00 0. -1.
        -11    1    3    3    0    0  0.59379062788E+02  0.35412121798E+03 -0.38070593961E+03  0.52332086006E+03  0.00000000000E+00 0.  1.
         22    1    1    2    0    0 -0.11346361290E+03 -0.80052043491E+03  0.13843492710E+04  0.16031624566E+04  0.00000000000E+00 0. -1.
<mgrwt>
<rscale>  0 0.26091144E+04</rscale>
<asrwt>0</asrwt>
<pdfrwt beam="1">  1        2 0.25791875E+00 0.26091144E+04</pdfrwt>
<pdfrwt beam="2">  1       -2 0.15617684E+00 0.26091144E+04</pdfrwt>
<totfact> 0.24034244E+00</totfact>
</mgrwt>
</event>
<event>
 6    1  0.1773638E-005  0.2443551E+04  0.7818608E-02  0.8423376E-01
         -2   -1    0    0    0  501 -0.00000000000E+00  0.00000000000E+00  0.16969672120E+04  0.16969672120E+04  0.00000000000E+00 0.  1.
          2   -1    0    0  501    0  0.00000000000E+00 -0.00000000000E+00 -0.87964892851E+03  0.87964892851E+03  0.00000000000E+00 0. -1.
         23    2    1    2    0    0 -0.54672909798E+03  0.10268554774E+04  0.79708641065E+03  0.14131067049E+04  0.90437466257E+02 0.  0.
         11    1    3    3    0    0 -0.31493848703E+03  0.51236192657E+03  0.38012040908E+03  0.71147207943E+03  0.00000000000E+00 0.  1.
        -11    1    3    3    0    0 -0.23179061096E+03  0.51449355085E+03  0.41696600157E+03  0.70163462547E+03  0.00000000000E+00 0. -1.
         22    1    1    2    0    0  0.54672909798E+03 -0.10268554774E+04  0.20231872848E+02  0.11635094356E+04  0.00000000000E+00 0. -1.
<mgrwt>
<rscale>  0 0.24435510E+04</rscale>
<asrwt>0</asrwt>
<pdfrwt beam="1">  1        2 0.13533060E+00 0.24435510E+04</pdfrwt>
<pdfrwt beam="2">  1       -2 0.26107188E+00 0.24435510E+04</pdfrwt>
<totfact> 0.14906097E+00</totfact>
</mgrwt>
</event>
<event>
 6    1  0.1773638E-005  0.1296982E+04  0.7818608E-02  0.9031962E-01
         -2   -1    0    0    0  501 -0.00000000000E+00  0.00000000000E+00  0.15492637310E+03  0.15492637310E+03  0.00000000000E+00 0.  1.
          2   -1    0    0  501    0  0.00000000000E+00 -0.00000000000E+00 -0.27144523727E+04  0.27144523727E+04  0.00000000000E+00 0. -1.
         23    2    1    2    0    0  0.19241229395E+03  0.57696228236E+03 -0.17573545907E+04  0.18627075307E+04  0.10712712656E+03 0.  0.
         11    1    3    3    0    0  0.49065549825E+01  0.95501971464E+02 -0.37334618737E+03  0.38539859426E+03  0.00000000000E+00 0. -1.
        -11    1    3    3    0    0  0.18750573897E+03  0.48146031090E+03 -0.13840084033E+04  0.14773089364E+04  0.00000000000E+00 0.  1.
         22    1    1    2    0    0 -0.19241229395E+03 -0.57696228236E+03 -0.80217140892E+03  0.10066712152E+04  0.00000000000E+00 0.  1.
<mgrwt>
<rscale>  0 0.12969815E+04</rscale>
<asrwt>0</asrwt>
<pdfrwt beam="1">  1        2 0.41760801E+00 0.12969815E+04</pdfrwt>
<pdfrwt beam="2">  1       -2 0.23834829E-01 0.12969815E+04</pdfrwt>
<totfact> 0.40211229E+01</totfact>
</mgrwt>
</event>
<event>
 6    1  0.1773638E-005  0.3000080E+04  0.7818608E-02  0.8243708E-01
          3   -1    0    0  501    0  0.00000000000E+00  0.00000000000E+00  0.16993002324E+04  0.16993002324E+04  0.00000000000E+00 0. -1.
         -3   -1    0    0    0  501 -0.00000000000E+00 -0.00000000000E+00 -0.13241454651E+04  0.13241454651E+04  0.00000000000E+00 0.  1.
         23    2    1    2    0    0 -0.74874990547E+03 -0.42864109744E+03 -0.10467652115E+04  0.13602511697E+04  0.10102586407E+03 0.  0.
         13    1    3    3    0    0 -0.41560499606E+03 -0.24768673647E+03 -0.50865513513E+03  0.70200162298E+03  0.00000000000E+00 0.  1.
        -13    1    3    3    0    0 -0.33314490941E+03 -0.18095436097E+03 -0.53811007636E+03  0.65824954668E+03  0.00000000000E+00 0. -1.
         22    1    1    2    0    0  0.74874990547E+03  0.42864109744E+03  0.14219199788E+04  0.16631945279E+04  0.00000000000E+00 0. -1.
<mgrwt>
<rscale>  0 0.30000805E+04</rscale>
<asrwt>0</asrwt>
<pdfrwt beam="1">  1        3 0.26143080E+00 0.30000805E+04</pdfrwt>
<pdfrwt beam="2">  1       -3 0.20371469E+00 0.30000805E+04</pdfrwt>
<totfact> 0.19577437E-02</totfact>
</mgrwt>
</event>
<event>
 6    1  0.1773638E-005  0.2953394E+04  0.7818608E-02  0.8257166E-01
         -1   -1    0    0    0  501 -0.00000000000E+00  0.00000000000E+00  0.16565264791E+04  0.16565264791E+04  0.00000000000E+00 0.  1.
          1   -1    0    0  501    0  0.00000000000E+00 -0.00000000000E+00 -0.13163896389E+04  0.13163896389E+04  0.00000000000E+00 0. -1.
         23    2    1    2    0    0 -0.71321762300E+03 -0.10195936426E+04  0.96707126271E+03  0.15796116488E+04  0.10814601361E+03 0.  0.
         11    1    3    3    0    0 -0.20142188862E+03 -0.35499390048E+03  0.27516703022E+03  0.49224825151E+03  0.00000000000E+00 0.  1.
        -11    1    3    3    0    0 -0.51179573438E+03 -0.66459974210E+03  0.69190423248E+03  0.10873633973E+04  0.00000000000E+00 0. -1.
         22    1    1    2    0    0  0.71321762300E+03  0.10195936426E+04 -0.62693442247E+03  0.13933044692E+04  0.00000000000E+00 0. -1.
<mgrwt>
<rscale>  0 0.29533942E+04</rscale>
<asrwt>0</asrwt>
<pdfrwt beam="1">  1        1 0.20252148E+00 0.29533942E+04</pdfrwt>
<pdfrwt beam="2">  1       -1 0.25485023E+00 0.29533942E+04</pdfrwt>
<totfact> 0.48763074E-01</totfact>
</mgrwt>
</event>
<event>
 6    1  0.1773638E-005  0.2747565E+04  0.7818608E-02  0.8319735E-01
         -2   -1    0    0    0  501 -0.00000000000E+00  0.00000000000E+00  0.16059845721E+04  0.16059845721E+04  0.00000000000E+00 0.  1.
          2   -1    0    0  501    0  0.00000000000E+00 -0.00000000000E+00 -0.11751538796E+04  0.11751538796E+04  0.00000000000E+00 0. -1.
         23    2    1    2    0    0 -0.10909112537E+04 -0.54299485470E+03  0.85467409257E+03  0.14909547425E+04  0.86876142189E+02 0.  0.
         13    1    3    3    0    0 -0.45471679825E+03 -0.22076113717E+03  0.40676010839E+03  0.64881170772E+03  0.00000000000E+00 0. -1.
        -13    1    3    3    0    0 -0.63619445543E+03 -0.32223371753E+03  0.44791398418E+03  0.84214303479E+03  0.00000000000E+00 0.  1.
         22    1    1    2    0    0  0.10909112537E+04  0.54299485470E+03 -0.42384340009E+03  0.12901837092E+04  0.00000000000E+00 0. -1.
<mgrwt>
<rscale>  0 0.27475655E+04</rscale>
<asrwt>0</asrwt>
<pdfrwt beam="1">  1        2 0.18079290E+00 0.27475655E+04</pdfrwt>
<pdfrwt beam="2">  1       -2 0.24707455E+00 0.27475655E+04</pdfrwt>
<totfact> 0.11474901E+00</totfact>
</mgrwt>
</event>
<event>
 6    1  0.1773638E-005  0.1444890E+04  0.7818608E-02  0.8921951E-01
         -1   -1    0    0    0  501 -0.00000000000E+00  0.00000000000E+00  0.53658056421E+03  0.53658056421E+03  0.00000000000E+00 0.  1.
          1   -1    0    0  501    0  0.00000000000E+00 -0.00000000000E+00 -0.97269089435E+03  0.97269089435E+03  0.00000000000E+00 0. -1.
         23    2    1    2    0    0  0.15866701013E+03  0.29178258926E+03  0.44579039937E+03  0.56690146954E+03  0.11106708109E+03 0.  0.
         11    1    3    3    0    0  0.28930186830E+02  0.16939465591E+03  0.22083789159E+03  0.27982294317E+03  0.00000000000E+00 0.  1.
        -11    1    3    3    0    0  0.12973682330E+03  0.12238793334E+03  0.22495250778E+03  0.28707852637E+03  0.00000000000E+00 0. -1.
         22    1    1    2    0    0 -0.15866701013E+03 -0.29178258926E+03 -0.88190072951E+03  0.94236998902E+03  0.00000000000E+00 0. -1.
<mgrwt>
<rscale>  0 0.14448903E+04</rscale>
<asrwt>0</asrwt>
<pdfrwt beam="1">  1        1 0.14964475E+00 0.14448903E+04</pdfrwt>
<pdfrwt beam="2">  1       -1 0.82550857E-01 0.14448903E+04</pdfrwt>
<totfact> 0.22535901E+01</totfact>
</mgrwt>
</event>
<event>
 6    1  0.1773638E-005  0.1700938E+04  0.7818608E-02  0.8760830E-01
         -2   -1    0    0    0  501 -0.00000000000E+00  0.00000000000E+00  0.63999202465E+03  0.63999202465E+03  0.00000000000E+00 0. -1.
          2   -1    0    0  501    0  0.00000000000E+00 -0.00000000000E+00 -0.11301660906E+04  0.11301660906E+04  0.00000000000E+00 0.  1.
         23    2    1    2    0    0  0.81393095979E+03  0.13056443568E+03 -0.38300350389E+02  0.83009400364E+03  0.89768919326E+02 0.  0.
         13    1    3    3    0    0  0.58901549696E+03  0.13282043968E+03 -0.15359601008E+02  0.60400036606E+03  0.00000000000E+00 0. -1.
        -13    1    3    3    0    0  0.22491546282E+03 -0.22560040043E+01 -0.22940749381E+02  0.22609363758E+03  0.00000000000E+00 0.  1.
         22    1    1    2    0    0 -0.81393095979E+03 -0.13056443568E+03 -0.45187371560E+03  0.94006411165E+03  0.00000000000E+00 0.  1.
<mgrwt>
<rscale>  0 0.17009377E+04</rscale>
<asrwt>0</asrwt>
<pdfrwt beam="1">  1        2 0.17387171E+00 0.17009377E+04</pdfrwt>
<pdfrwt beam="2">  1       -2 0.98460311E-01 0.17009377E+04</pdfrwt>
<totfact> 0.17022923E+01</totfact>
</mgrwt>
</event>
<event>
 6    1  0.1773638E-005  0.4148713E+04  0.7818608E-02  0.7975200E-01
          2   -1    0    0  501    0  0.00000000000E+00  0.00000000000E+00  0.31343274926E+04  0.31343274926E+04  0.00000000000E+00 0. -1.
         -2   -1    0    0    0  501 -0.00000000000E+00 -0.00000000000E+00 -0.13728479877E+04  0.13728479877E+04  0.00000000000E+00 0.  1.
         23    2    1    2    0    0  0.64824545135E+03  0.98539844289E+03 -0.97158884350E+03  0.15304499549E+04  0.84023372742E+02 0.  0.
         11    1    3    3    0    0  0.28039835933E+03  0.40634680963E+03 -0.45872605878E+03  0.67392178079E+03  0.00000000000E+00 0. -1.
        -11    1    3    3    0    0  0.36784709203E+03  0.57905163325E+03 -0.51286278472E+03  0.85652817410E+03  0.00000000000E+00 0.  1.
         22    1    1    2    0    0 -0.64824545135E+03 -0.98539844289E+03  0.27330683484E+04  0.29767255254E+04  0.00000000000E+00 0. -1.
<mgrwt>
<rscale>  0 0.41487131E+04</rscale>
<asrwt>0</asrwt>
<pdfrwt beam="1">  1        2 0.48220423E+00 0.41487131E+04</pdfrwt>
<pdfrwt beam="2">  1       -2 0.21120738E+00 0.41487131E+04</pdfrwt>
<totfact> 0.12530333E-01</totfact>
</mgrwt>
</event>
<event>
 6    1  0.1773638E-005  0.2394209E+04  0.7818608E-02  0.8441675E-01
          2   -1    0    0  501    0  0.00000000000E+00  0.00000000000E+00  0.48971105660E+03  0.48971105660E+03  0.00000000000E+00 0. -1.
         -2   -1    0    0    0  501 -0.00000000000E+00 -0.00000000000E+00 -0.29263358710E+04  0.29263358710E+04  0.00000000000E+00 0.  1.
         23    2    1    2    0    0 -0.61556502898E+02 -0.73503653801E+02 -0.29201341954E+04  0.29231236965E+04  0.90974918914E+02 0.  0.
         11    1    3    3    0    0 -0.30922714670E+01 -0.98265886591E+01 -0.16582437827E+04  0.16582757813E+04  0.00000000000E+00 0.  1.
        -11    1    3    3    0    0 -0.58464231431E+02 -0.63677065141E+02 -0.12618904127E+04  0.12648479152E+04  0.00000000000E+00 0. -1.
         22    1    1    2    0    0  0.61556502898E+02  0.73503653801E+02  0.48350938103E+03  0.49292323105E+03  0.00000000000E+00 0. -1.
<mgrwt>
<rscale>  0 0.23942089E+04</rscale>
<asrwt>0</asrwt>
<pdfrwt beam="1">  1        2 0.75340160E-01 0.23942089E+04</pdfrwt>
<pdfrwt beam="2">  1       -2 0.45020553E+00 0.23942089E+04</pdfrwt>
<totfact> 0.19627213E-01</totfact>
</mgrwt>
</event>
<event>
 6    1  0.1773638E-005  0.1838138E+04  0.7818608E-02  0.8686277E-01
          1   -1    0    0  501    0  0.00000000000E+00  0.00000000000E+00  0.59096028909E+03  0.59096028909E+03  0.00000000000E+00 0. -1.
         -1   -1    0    0    0  501 -0.00000000000E+00 -0.00000000000E+00 -0.14293483767E+04  0.14293483767E+04  0.00000000000E+00 0.  1.
         23    2    1    2    0    0 -0.83571966930E+03  0.18208983095E+03 -0.78314328937E+03  0.11631995363E+04  0.90197989846E+02 0.  0.
         11    1    3    3    0    0 -0.54991262410E+03  0.13130781768E+03 -0.57192786257E+03  0.80420589224E+03  0.00000000000E+00 0. -1.
        -11    1    3    3    0    0 -0.28580704520E+03  0.50782013276E+02 -0.21121542680E+03  0.35899364407E+03  0.00000000000E+00 0.  1.
         22    1    1    2    0    0  0.83571966930E+03 -0.18208983095E+03 -0.55244798282E+02  0.85710912953E+03  0.00000000000E+00 0. -1.
<mgrwt>
<rscale>  0 0.18381383E+04</rscale>
<asrwt>0</asrwt>
<pdfrwt beam="1">  1        1 0.90916968E-01 0.18381383E+04</pdfrwt>
<pdfrwt beam="2">  1       -1 0.21989975E+00 0.18381383E+04</pdfrwt>
<totfact> 0.36286329E+00</totfact>
</mgrwt>
</event>
<event>
 6    1  0.1773638E-005  0.6288060E+04  0.7818608E-02  0.7655677E-01
         -1   -1    0    0    0  501 -0.00000000000E+00  0.00000000000E+00  0.23897919546E+04  0.23897919546E+04  0.00000000000E+00 0.  1.
          1   -1    0    0  501    0  0.00000000000E+00 -0.00000000000E+00 -0.41363116415E+04  0.41363116415E+04  0.00000000000E+00 0. -1.
         23    2    1    2    0    0 -0.47831810443E+03  0.18616604840E+04  0.17079443186E+04  0.25728910377E+04  0.90147266706E+02 0.  0.
         13    1    3    3    0    0 -0.22511211944E+03  0.74833839219E+03  0.65298029525E+03  0.10183658878E+04  0.00000000000E+00 0.  1.
        -13    1    3    3    0    0 -0.25320598499E+03  0.11133220918E+04  0.10549640233E+04  0.15545251498E+04  0.00000000000E+00 0. -1.
         22    1    1    2    0    0  0.47831810443E+03 -0.18616604840E+04 -0.34544640055E+04  0.39532125584E+04  0.00000000000E+00 0. -1.
<mgrwt>
<rscale>  0 0.62880599E+04</rscale>
<asrwt>0</asrwt>
<pdfrwt beam="1">  1        1 0.63635563E+00 0.62880599E+04</pdfrwt>
<pdfrwt beam="2">  1       -1 0.36766031E+00 0.62880599E+04</pdfrwt>
<totfact> 0.55804790E-04</totfact>
</mgrwt>
</event>
<event>
 6    1  0.1773638E-005  0.2921979E+04  0.7818608E-02  0.8266368E-01
         -1   -1    0    0    0  501 -0.00000000000E+00  0.00000000000E+00  0.90435373933E+03  0.90435373933E+03  0.00000000000E+00 0.  1.
          1   -1    0    0  501    0  0.00000000000E+00 -0.00000000000E+00 -0.23602381883E+04  0.23602381883E+04  0.00000000000E+00 0. -1.
         23    2    1    2    0    0  0.85568159407E+03  0.11100153933E+04 -0.27364485720E+03  0.14310119277E+04  0.92673974763E+02 0.  0.
         11    1    3    3    0    0  0.31327882100E+03  0.39298466336E+03 -0.14279387717E+03  0.52246593830E+03  0.00000000000E+00 0. -1.
        -11    1    3    3    0    0  0.54240277308E+03  0.71703072994E+03 -0.13085098002E+03  0.90854598942E+03  0.00000000000E+00 0.  1.
         22    1    1    2    0    0 -0.85568159407E+03 -0.11100153933E+04 -0.11822395918E+04  0.18335800000E+04  0.00000000000E+00 0. -1.
<mgrwt>
<rscale>  0 0.29219789E+04</rscale>
<asrwt>0</asrwt>
<pdfrwt beam="1">  1        1 0.36311357E+00 0.29219789E+04</pdfrwt>
<pdfrwt beam="2">  1       -1 0.13913134E+00 0.29219789E+04</pdfrwt>
<totfact> 0.61743990E-01</totfact>
</mgrwt>
</event>
<event>
 6    1  0.1773638E-005  0.2392768E+04  0.7818608E-02  0.8442216E-01
         -2   -1    0    0    0  501 -0.00000000000E+00  0.00000000000E+00  0.40791652699E+03  0.40791652699E+03  0.00000000000E+00 0.  1.
          2   -1    0    0  501    0  0.00000000000E+00 -0.00000000000E+00 -0.35088897641E+04  0.35088897641E+04  0.00000000000E+00 0. -1.
         23    2    1    2    0    0 -0.11317735665E+04  0.10468354282E+03 -0.21549734188E+04  0.24380278404E+04  0.90549793004E+02 0.  0.
         13    1    3    3    0    0 -0.42545265127E+03  0.81859702357E+02 -0.79388134841E+03  0.90441061731E+03  0.00000000000E+00 0. -1.
        -13    1    3    3    0    0 -0.70632091522E+03  0.22823840461E+02 -0.13610920703E+04  0.15336172231E+04  0.00000000000E+00 0.  1.
         22    1    1    2    0    0  0.11317735665E+04 -0.10468354282E+03 -0.94599981836E+03  0.14787784507E+04  0.00000000000E+00 0.  1.
<mgrwt>
<rscale>  0 0.23927675E+04</rscale>
<asrwt>0</asrwt>
<pdfrwt beam="1">  1        2 0.53982917E+00 0.23927675E+04</pdfrwt>
<pdfrwt beam="2">  1       -2 0.62756391E-01 0.23927675E+04</pdfrwt>
<totfact> 0.17008353E+00</totfact>
</mgrwt>
</event>
<event>
 6    1  0.1773638E-005  0.2440704E+04  0.7818608E-02  0.8424420E-01
         -2   -1    0    0    0  501 -0.00000000000E+00  0.00000000000E+00  0.65617906452E+03  0.65617906452E+03  0.00000000000E+00 0.  1.
          2   -1    0    0  501    0  0.00000000000E+00 -0.00000000000E+00 -0.22695916265E+04  0.22695916265E+04  0.00000000000E+00 0. -1.
         23    2    1    2    0    0 -0.33907174873E+03 -0.33199777357E+03  0.53770036957E+03  0.72293637661E+03  0.91231270628E+02 0.  0.
         11    1    3    3    0    0 -0.15708932286E+03 -0.16216510224E+03  0.32377860140E+03  0.39472415490E+03  0.00000000000E+00 0. -1.
        -11    1    3    3    0    0 -0.18198242587E+03 -0.16983267133E+03  0.21392176818E+03  0.32821222171E+03  0.00000000000E+00 0.  1.
         22    1    1    2    0    0  0.33907174873E+03  0.33199777357E+03 -0.21511129316E+04  0.22028343145E+04  0.00000000000E+00 0. -1.
<mgrwt>
<rscale>  0 0.24407036E+04</rscale>
<asrwt>0</asrwt>
<pdfrwt beam="1">  1        2 0.34916795E+00 0.24407036E+04</pdfrwt>
<pdfrwt beam="2">  1       -2 0.10095062E+00 0.24407036E+04</pdfrwt>
<totfact> 0.34139143E+00</totfact>
</mgrwt>
</event>
<event>
 6    1  0.1773638E-005  0.1487067E+04  0.7818608E-02  0.8893099E-01
         -2   -1    0    0    0  501 -0.00000000000E+00  0.00000000000E+00  0.34510435726E+03  0.34510435726E+03  0.00000000000E+00 0.  1.
          2   -1    0    0  501    0  0.00000000000E+00 -0.00000000000E+00 -0.16019553697E+04  0.16019553697E+04  0.00000000000E+00 0. -1.
         23    2    1    2    0    0  0.46136361051E+03 -0.47502331735E+03 -0.10654938006E+04  0.12577694284E+04  0.90572417660E+02 0.  0.
         13    1    3    3    0    0  0.39560707035E+03 -0.38179596884E+03 -0.93286096001E+03  0.10828216320E+04  0.00000000000E+00 0. -1.
        -13    1    3    3    0    0  0.65756540157E+02 -0.93227348513E+02 -0.13263284055E+03  0.17494779644E+03  0.00000000000E+00 0.  1.
         22    1    1    2    0    0 -0.46136361051E+03  0.47502331735E+03 -0.19135721185E+03  0.68929029854E+03  0.00000000000E+00 0.  1.
<mgrwt>
<rscale>  0 0.14870666E+04</rscale>
<asrwt>0</asrwt>
<pdfrwt beam="1">  1        2 0.24645468E+00 0.14870666E+04</pdfrwt>
<pdfrwt beam="2">  1       -2 0.53092977E-01 0.14870666E+04</pdfrwt>
<totfact> 0.35980986E+01</totfact>
</mgrwt>
</event>
<event>
 6    1  0.1773638E-005  0.1204532E+04  0.7818608E-02  0.9108899E-01
         -1   -1    0    0    0  501 -0.00000000000E+00  0.00000000000E+00  0.53483502733E+03  0.53483502733E+03  0.00000000000E+00 0.  1.
          1   -1    0    0  501    0  0.00000000000E+00 -0.00000000000E+00 -0.67819803914E+03  0.67819803914E+03  0.00000000000E+00 0. -1.
         23    2    1    2    0    0  0.30359657509E+03  0.59358822401E+02 -0.58834987450E+03  0.67108504481E+03  0.92223708152E+02 0.  0.
         11    1    3    3    0    0  0.10473969100E+03  0.77228502308E+01 -0.11887395449E+03  0.15862238916E+03  0.00000000000E+00 0.  1.
        -11    1    3    3    0    0  0.19885688409E+03  0.51635972170E+02 -0.46947592001E+03  0.51246265566E+03  0.00000000000E+00 0. -1.
         22    1    1    2    0    0 -0.30359657509E+03 -0.59358822401E+02  0.44498686269E+03  0.54194802165E+03  0.00000000000E+00 0.  1.
<mgrwt>
<rscale>  0 0.12045316E+04</rscale>
<asrwt>0</asrwt>
<pdfrwt beam="1">  1        1 0.10433816E+00 0.12045316E+04</pdfrwt>
<pdfrwt beam="2">  1       -1 0.82282312E-01 0.12045316E+04</pdfrwt>
<totfact> 0.41554533E+01</totfact>
</mgrwt>
</event>
<event>
 6    1  0.1773638E-005  0.4702411E+04  0.7818608E-02  0.7876128E-01
         -1   -1    0    0    0  501 -0.00000000000E+00  0.00000000000E+00  0.19496723014E+04  0.19496723014E+04  0.00000000000E+00 0.  1.
          1   -1    0    0  501    0  0.00000000000E+00 -0.00000000000E+00 -0.28354343966E+04  0.28354343966E+04  0.00000000000E+00 0. -1.
         23    2    1    2    0    0  0.97701493709E+03  0.21128452598E+04 -0.77364016774E+03  0.24546036180E+04  0.88806153833E+02 0.  0.
         11    1    3    3    0    0  0.35640593796E+03  0.72681889708E+03 -0.22902753972E+03  0.84127552901E+03  0.00000000000E+00 0.  1.
        -11    1    3    3    0    0  0.62060899913E+03  0.13860263628E+04 -0.54461262802E+03  0.16133280890E+04  0.00000000000E+00 0. -1.
         22    1    1    2    0    0 -0.97701493709E+03 -0.21128452598E+04 -0.11212192750E+03  0.23305030800E+04  0.00000000000E+00 0.  1.
<mgrwt>
<rscale>  0 0.47024113E+04</rscale>
<asrwt>0</asrwt>
<pdfrwt beam="1">  1        1 0.43622068E+00 0.47024113E+04</pdfrwt>
<pdfrwt beam="2">  1       -1 0.29994958E+00 0.47024113E+04</pdfrwt>
<totfact> 0.19206380E-02</totfact>
</mgrwt>
</event>
<event>
 6    1  0.1773638E-005  0.2086571E+04  0.7818608E-02  0.8567182E-01
         -1   -1    0    0    0  501 -0.00000000000E+00  0.00000000000E+00  0.80584569530E+03  0.80584569530E+03  0.00000000000E+00 0.  1.
          1   -1    0    0  501    0  0.00000000000E+00 -0.00000000000E+00 -0.13506860836E+04  0.13506860836E+04  0.00000000000E+00 0. -1.
         23    2    1    2    0    0 -0.98534997137E+03  0.33596026266E+03 -0.24542485803E+03  0.10732804120E+04  0.88958516797E+02 0.  0.
         13    1    3    3    0    0 -0.48887411325E+03  0.14434971880E+03 -0.79897894573E+02  0.51596357767E+03  0.00000000000E+00 0.  1.
        -13    1    3    3    0    0 -0.49647585811E+03  0.19161054386E+03 -0.16552696346E+03  0.55731683434E+03  0.00000000000E+00 0. -1.
         22    1    1    2    0    0  0.98534997137E+03 -0.33596026266E+03 -0.29941553032E+03  0.10832513669E+04  0.00000000000E+00 0.  1.
<mgrwt>
<rscale>  0 0.20865709E+04</rscale>
<asrwt>0</asrwt>
<pdfrwt beam="1">  1        1 0.20779786E+00 0.20865709E+04</pdfrwt>
<pdfrwt beam="2">  1       -1 0.12397626E+00 0.20865709E+04</pdfrwt>
<totfact> 0.43781247E+00</totfact>
</mgrwt>
</event>
<event>
 6    1  0.1936248E-005  0.2029260E+04  0.7818608E-02  0.8593062E-01
          2   -1    0    0  501    0  0.00000000000E+00  0.00000000000E+00  0.17245791692E+04  0.17245791692E+04  0.00000000000E+00 0.  1.
         -2   -1    0    0    0  501 -0.00000000000E+00 -0.00000000000E+00 -0.59694189151E+03  0.59694189151E+03  0.00000000000E+00 0. -1.
         23    2    1    2    0    0  0.62332084806E+03 -0.75023612510E+03  0.25386491630E+03  0.10119939466E+04  0.91111082000E+02 0.  0.
         11    1    3    3    0    0  0.14296885419E+03 -0.18976797732E+03  0.23607154630E+02  0.23876615387E+03  0.00000000000E+00 0.  1.
        -11    1    3    3    0    0  0.48035199387E+03 -0.56046814778E+03  0.23025776167E+03  0.77322779276E+03  0.00000000000E+00 0. -1.
         22    1    1    2    0    0 -0.62332084806E+03  0.75023612510E+03  0.87377236143E+03  0.13095271141E+04  0.00000000000E+00 0.  1.
<mgrwt>
<rscale>  0 0.20292595E+04</rscale>
<asrwt>0</asrwt>
<pdfrwt beam="1">  1        2 0.26531987E+00 0.20292595E+04</pdfrwt>
<pdfrwt beam="2">  1       -2 0.91837215E-01 0.20292595E+04</pdfrwt>
<totfact> 0.88827581E+00</totfact>
</mgrwt>
</event>
<event>
 6    1  0.1773638E-005  0.9669866E+03  0.7818608E-02  0.9345513E-01
         -2   -1    0    0    0  501 -0.00000000000E+00  0.00000000000E+00  0.32828710227E+03  0.32828710227E+03  0.00000000000E+00 0.  1.
          2   -1    0    0  501    0  0.00000000000E+00 -0.00000000000E+00 -0.71207719458E+03  0.71207719458E+03  0.00000000000E+00 0. -1.
         23    2    1    2    0    0  0.32880999633E+02  0.66619340307E+02 -0.70286070923E+03  0.71275880968E+03  0.92155561784E+02 0.  0.
         11    1    3    3    0    0 -0.23994174184E+02 -0.69773126417E+01 -0.12701002733E+03  0.12944477714E+03  0.00000000000E+00 0. -1.
        -11    1    3    3    0    0  0.56875173817E+02  0.73596652948E+02 -0.57585068189E+03  0.58331403254E+03  0.00000000000E+00 0.  1.
         22    1    1    2    0    0 -0.32880999633E+02 -0.66619340307E+02  0.31907061692E+03  0.32760548716E+03  0.00000000000E+00 0.  1.
<mgrwt>
<rscale>  0 0.96698657E+03</rscale>
<asrwt>0</asrwt>
<pdfrwt beam="1">  1        2 0.10955034E+00 0.96698657E+03</pdfrwt>
<pdfrwt beam="2">  1       -2 0.50505708E-01 0.96698657E+03</pdfrwt>
<totfact> 0.14864913E+02</totfact>
</mgrwt>
</event>
<event>
 6    1  0.1773638E-005  0.2030817E+04  0.7818608E-02  0.8592347E-01
          2   -1    0    0  501    0  0.00000000000E+00  0.00000000000E+00  0.10165740139E+04  0.10165740139E+04  0.00000000000E+00 0. -1.
         -2   -1    0    0    0  501 -0.00000000000E+00 -0.00000000000E+00 -0.10142440307E+04  0.10142440307E+04  0.00000000000E+00 0.  1.
         23    2    1    2    0    0  0.45396755804E+03  0.87049125352E+03 -0.24930917943E+03  0.10173271298E+04  0.94645949777E+02 0.  0.
         11    1    3    3    0    0  0.29513739402E+03  0.47226793639E+03 -0.15945357713E+03  0.57928277063E+03  0.00000000000E+00 0.  1.
        -11    1    3    3    0    0  0.15883016402E+03  0.39822331713E+03 -0.89855602305E+02  0.43804435914E+03  0.00000000000E+00 0. -1.
         22    1    1    2    0    0 -0.45396755804E+03 -0.87049125352E+03  0.25163916265E+03  0.10134909148E+04  0.00000000000E+00 0. -1.
<mgrwt>
<rscale>  0 0.20308167E+04</rscale>
<asrwt>0</asrwt>
<pdfrwt beam="1">  1        2 0.15639600E+00 0.20308167E+04</pdfrwt>
<pdfrwt beam="2">  1       -2 0.15603754E+00 0.20308167E+04</pdfrwt>
<totfact> 0.61411749E+00</totfact>
</mgrwt>
</event>
<event>
 6    1  0.1773638E-005  0.4657414E+04  0.7818608E-02  0.7883643E-01
         -2   -1    0    0    0  501 -0.00000000000E+00  0.00000000000E+00  0.15285007048E+04  0.15285007048E+04  0.00000000000E+00 0.  1.
          2   -1    0    0  501    0  0.00000000000E+00 -0.00000000000E+00 -0.35478402393E+04  0.35478402393E+04  0.00000000000E+00 0. -1.
         23    2    1    2    0    0 -0.22733928872E+04  0.42027508129E+03 -0.71414545347E+03  0.24214439682E+04  0.91873820598E+02 0.  0.
         13    1    3    3    0    0 -0.80924930837E+03  0.12070885112E+03 -0.28781664114E+03  0.86734853937E+03  0.00000000000E+00 0. -1.
        -13    1    3    3    0    0 -0.14641435789E+04  0.29956623017E+03 -0.42632881233E+03  0.15540954289E+04  0.00000000000E+00 0.  1.
         22    1    1    2    0    0  0.22733928872E+04 -0.42027508129E+03 -0.13051940810E+04  0.26548969759E+04  0.00000000000E+00 0.  1.
<mgrwt>
<rscale>  0 0.46574140E+04</rscale>
<asrwt>0</asrwt>
<pdfrwt beam="1">  1        2 0.54582157E+00 0.46574140E+04</pdfrwt>
<pdfrwt beam="2">  1       -2 0.23515396E+00 0.46574140E+04</pdfrwt>
<totfact> 0.44584936E-02</totfact>
</mgrwt>
</event>
<event>
 6    1  0.1773638E-005  0.6374346E+04  0.7818608E-02  0.7645644E-01
          2   -1    0    0  501    0  0.00000000000E+00  0.00000000000E+00  0.47270624499E+04  0.47270624499E+04  0.00000000000E+00 0. -1.
         -2   -1    0    0    0  501 -0.00000000000E+00 -0.00000000000E+00 -0.21489182203E+04  0.21489182203E+04  0.00000000000E+00 0.  1.
         23    2    1    2    0    0  0.27930331439E+04 -0.15148846064E+04  0.15491113989E+04  0.35360977261E+04  0.91276987376E+02 0.  0.
         13    1    3    3    0    0  0.11818401989E+04 -0.67001788515E+03  0.70378072694E+03  0.15300253376E+04  0.00000000000E+00 0.  1.
        -13    1    3    3    0    0  0.16111929450E+04 -0.84486672120E+03  0.84533067192E+03  0.20060723884E+04  0.00000000000E+00 0. -1.
         22    1    1    2    0    0 -0.27930331439E+04  0.15148846064E+04  0.10290328308E+04  0.33398829441E+04  0.00000000000E+00 0.  1.
<mgrwt>
<rscale>  0 0.63743457E+04</rscale>
<asrwt>0</asrwt>
<pdfrwt beam="1">  1        2 0.72724037E+00 0.63743457E+04</pdfrwt>
<pdfrwt beam="2">  1       -2 0.33060280E+00 0.63743457E+04</pdfrwt>
<totfact> 0.94964494E-04</totfact>
</mgrwt>
</event>
<event>
 6    1  0.1773638E-005  0.4590665E+04  0.7818608E-02  0.7894954E-01
          1   -1    0    0  501    0  0.00000000000E+00  0.00000000000E+00  0.27050951851E+04  0.27050951851E+04  0.00000000000E+00 0. -1.
         -1   -1    0    0    0  501 -0.00000000000E+00 -0.00000000000E+00 -0.19476398380E+04  0.19476398380E+04  0.00000000000E+00 0.  1.
         23    2    1    2    0    0  0.15557656929E+04  0.31290566592E+03 -0.13008182611E+04  0.20537338509E+04  0.85893743946E+02 0.  0.
         11    1    3    3    0    0  0.37496924875E+03  0.59944503328E+02 -0.26888829581E+03  0.46529151788E+03  0.00000000000E+00 0. -1.
        -11    1    3    3    0    0  0.11807964441E+04  0.25296116260E+03 -0.10319299652E+04  0.15884423330E+04  0.00000000000E+00 0.  1.
         22    1    1    2    0    0 -0.15557656929E+04 -0.31290566592E+03  0.20582736082E+04  0.25990011722E+04  0.00000000000E+00 0. -1.
<mgrwt>
<rscale>  0 0.45906649E+04</rscale>
<asrwt>0</asrwt>
<pdfrwt beam="1">  1        1 0.41616849E+00 0.45906649E+04</pdfrwt>
<pdfrwt beam="2">  1       -1 0.29963690E+00 0.45906649E+04</pdfrwt>
<totfact> 0.24107290E-02</totfact>
</mgrwt>
</event>
<event>
 6    1  0.1773638E-005  0.2866328E+04  0.7818608E-02  0.8282967E-01
         -2   -1    0    0    0  501 -0.00000000000E+00  0.00000000000E+00  0.54911600141E+03  0.54911600141E+03  0.00000000000E+00 0.  1.
          2   -1    0    0  501    0  0.00000000000E+00 -0.00000000000E+00 -0.37404826015E+04  0.37404826015E+04  0.00000000000E+00 0. -1.
         23    2    1    2    0    0  0.65806727826E+03  0.66588644096E+03 -0.32183406110E+04  0.33530171103E+04  0.92467068806E+02 0.  0.
         11    1    3    3    0    0  0.44975391789E+03  0.43388713549E+03 -0.22885071553E+04  0.23722988077E+04  0.00000000000E+00 0. -1.
        -11    1    3    3    0    0  0.20831336037E+03  0.23199930547E+03 -0.92983345570E+03  0.98071830267E+03  0.00000000000E+00 0.  1.
         22    1    1    2    0    0 -0.65806727826E+03 -0.66588644096E+03  0.26974010907E+02  0.93658149257E+03  0.00000000000E+00 0.  1.
<mgrwt>
<rscale>  0 0.28663279E+04</rscale>
<asrwt>0</asrwt>
<pdfrwt beam="1">  1        2 0.57545887E+00 0.28663279E+04</pdfrwt>
<pdfrwt beam="2">  1       -2 0.84479383E-01 0.28663279E+04</pdfrwt>
<totfact> 0.57583328E-01</totfact>
</mgrwt>
</event>
<event>
 6    1  0.1773638E-005  0.2855786E+04  0.7818608E-02  0.8286155E-01
          2   -1    0    0  501    0  0.00000000000E+00  0.00000000000E+00  0.29623454544E+04  0.29623454544E+04  0.00000000000E+00 0. -1.
         -2   -1    0    0    0  501 -0.00000000000E+00 -0.00000000000E+00 -0.68826514334E+03  0.68826514334E+03  0.00000000000E+00 0.  1.
         23    2    1    2    0    0  0.42653647546E+01  0.64317532754E+03 -0.48942679244E+03  0.81324135734E+03  0.90167759411E+02 0.  0.
         11    1    3    3    0    0 -0.14972552451E+01  0.23752244539E+03 -0.23635168544E+03  0.33508397910E+03  0.00000000000E+00 0. -1.
        -11    1    3    3    0    0  0.57626199996E+01  0.40565288215E+03 -0.25307510700E+03  0.47815737824E+03  0.00000000000E+00 0.  1.
         22    1    1    2    0    0 -0.42653647546E+01 -0.64317532754E+03  0.27635071035E+04  0.28373692404E+04  0.00000000000E+00 0. -1.
<mgrwt>
<rscale>  0 0.28557865E+04</rscale>
<asrwt>0</asrwt>
<pdfrwt beam="1">  1        2 0.45574545E+00 0.28557865E+04</pdfrwt>
<pdfrwt beam="2">  1       -2 0.10588695E+00 0.28557865E+04</pdfrwt>
<totfact> 0.11464069E+00</totfact>
</mgrwt>
</event>
<event>
 6    1  0.1773638E-005  0.2675593E+04  0.7818608E-02  0.8342968E-01
         -2   -1    0    0    0  501 -0.00000000000E+00  0.00000000000E+00  0.92957576659E+03  0.92957576659E+03  0.00000000000E+00 0. -1.
          2   -1    0    0  501    0  0.00000000000E+00 -0.00000000000E+00 -0.19252860549E+04  0.19252860549E+04  0.00000000000E+00 0.  1.
         23    2    1    2    0    0 -0.28077632826E+03  0.86477773721E+03  0.54624772427E+03  0.10648030532E+04  0.93504462954E+02 0.  0.
         13    1    3    3    0    0 -0.15723160633E+03  0.44611869576E+03  0.23131663054E+03  0.52654634392E+03  0.00000000000E+00 0.  1.
        -13    1    3    3    0    0 -0.12354472194E+03  0.41865904145E+03  0.31493109373E+03  0.53825670930E+03  0.00000000000E+00 0. -1.
         22    1    1    2    0    0  0.28077632826E+03 -0.86477773721E+03 -0.15419580126E+04  0.17900587682E+04  0.00000000000E+00 0.  1.
<mgrwt>
<rscale>  0 0.26755928E+04</rscale>
<asrwt>0</asrwt>
<pdfrwt beam="1">  1        2 0.29619786E+00 0.26755928E+04</pdfrwt>
<pdfrwt beam="2">  1       -2 0.14301166E+00 0.26755928E+04</pdfrwt>
<totfact> 0.21959523E+00</totfact>
</mgrwt>
</event>
<event>
 6    1  0.1773638E-005  0.4240180E+04  0.7818608E-02  0.7957773E-01
          2   -1    0    0  501    0  0.00000000000E+00  0.00000000000E+00  0.38418134691E+04  0.38418134691E+04  0.00000000000E+00 0. -1.
         -2   -1    0    0    0  501 -0.00000000000E+00 -0.00000000000E+00 -0.11699633680E+04  0.11699633680E+04  0.00000000000E+00 0.  1.
         23    2    1    2    0    0  0.51153260308E+03 -0.20467486461E+04  0.15725313367E+04  0.26328385508E+04  0.90213111861E+02 0.  0.
         13    1    3    3    0    0  0.28056531541E+02 -0.14980716761E+03  0.14149936113E+03  0.20796977096E+03  0.00000000000E+00 0. -1.
        -13    1    3    3    0    0  0.48347607154E+03 -0.18969414785E+04  0.14310319756E+04  0.24248687799E+04  0.00000000000E+00 0.  1.
         22    1    1    2    0    0 -0.51153260308E+03  0.20467486461E+04  0.10993187645E+04  0.23789382863E+04  0.00000000000E+00 0.  1.
<mgrwt>
<rscale>  0 0.42401797E+04</rscale>
<asrwt>0</asrwt>
<pdfrwt beam="1">  1        2 0.59104822E+00 0.42401797E+04</pdfrwt>
<pdfrwt beam="2">  1       -2 0.17999437E+00 0.42401797E+04</pdfrwt>
<totfact> 0.63810325E-02</totfact>
</mgrwt>
</event>
<event>
 6    1  0.1773638E-005  0.8719874E+03  0.7818608E-02  0.9461292E-01
         -2   -1    0    0    0  501 -0.00000000000E+00  0.00000000000E+00  0.69751839247E+02  0.69751839247E+02  0.00000000000E+00 0. -1.
          2   -1    0    0  501    0  0.00000000000E+00 -0.00000000000E+00 -0.27252403058E+04  0.27252403058E+04  0.00000000000E+00 0.  1.
         23    2    1    2    0    0 -0.21012702825E+03 -0.34947576687E+03 -0.89535487604E+03  0.98823899752E+03  0.93108982080E+02 0.  0.
         13    1    3    3    0    0 -0.12654038206E+03 -0.28736069042E+03 -0.68363151935E+03  0.75229029565E+03  0.00000000000E+00 0.  1.
        -13    1    3    3    0    0 -0.83586646194E+02 -0.62115076455E+02 -0.21172335669E+03  0.23594870187E+03  0.00000000000E+00 0. -1.
         22    1    1    2    0    0  0.21012702825E+03  0.34947576687E+03 -0.17601335905E+04  0.18067531476E+04  0.00000000000E+00 0. -1.
<mgrwt>
<rscale>  0 0.87198744E+03</rscale>
<asrwt>0</asrwt>
<pdfrwt beam="1">  1        2 0.41926774E+00 0.87198744E+03</pdfrwt>
<pdfrwt beam="2">  1       -2 0.10731052E-01 0.87198744E+03</pdfrwt>
<totfact> 0.16193950E+02</totfact>
</mgrwt>
</event>
<event>
 6    1  0.1773638E-005  0.1871435E+04  0.7818608E-02  0.8669207E-01
          1   -1    0    0  501    0  0.00000000000E+00  0.00000000000E+00  0.20314918394E+04  0.20314918394E+04  0.00000000000E+00 0. -1.
         -1   -1    0    0    0  501 -0.00000000000E+00 -0.00000000000E+00 -0.43099717782E+03  0.43099717782E+03  0.00000000000E+00 0.  1.
         23    2    1    2    0    0  0.42473939335E+03  0.20678495734E+03  0.18615317465E+04  0.19227632253E+04  0.92490034354E+02 0.  0.
         11    1    3    3    0    0  0.20172332457E+03  0.62108260636E+02  0.69600407133E+03  0.72730420253E+03  0.00000000000E+00 0.  1.
        -11    1    3    3    0    0  0.22301606878E+03  0.14467669671E+03  0.11655276751E+04  0.11954590227E+04  0.00000000000E+00 0. -1.
         22    1    1    2    0    0 -0.42473939335E+03 -0.20678495734E+03 -0.26103708487E+03  0.53972579197E+03  0.00000000000E+00 0.  1.
<mgrwt>
<rscale>  0 0.18714350E+04</rscale>
<asrwt>0</asrwt>
<pdfrwt beam="1">  1        1 0.31253720E+00 0.18714350E+04</pdfrwt>
<pdfrwt beam="2">  1       -1 0.66307259E-01 0.18714350E+04</pdfrwt>
<totfact> 0.61327226E+00</totfact>
</mgrwt>
</event>
<event>
 6    1  0.1773638E-005  0.3341616E+04  0.7818608E-02  0.8152386E-01
         -2   -1    0    0    0  501 -0.00000000000E+00  0.00000000000E+00  0.11953349440E+04  0.11953349440E+04  0.00000000000E+00 0.  1.
          2   -1    0    0  501    0  0.00000000000E+00 -0.00000000000E+00 -0.23354116313E+04  0.23354116313E+04  0.00000000000E+00 0. -1.
         23    2    1    2    0    0  0.80609271789E+03 -0.65793698504E+03  0.80907127270E+03  0.13212569699E+04  0.91962546801E+02 0.  0.
         11    1    3    3    0    0  0.50147699484E+02 -0.52761918018E+02  0.86398641151E+02  0.11297493947E+03  0.00000000000E+00 0. -1.
        -11    1    3    3    0    0  0.75594501841E+03 -0.60517506702E+03  0.72267263155E+03  0.12082820304E+04  0.00000000000E+00 0.  1.
         22    1    1    2    0    0 -0.80609271789E+03  0.65793698504E+03 -0.19491479600E+04  0.22094896054E+04  0.00000000000E+00 0. -1.
<mgrwt>
<rscale>  0 0.33416159E+04</rscale>
<asrwt>0</asrwt>
<pdfrwt beam="1">  1        2 0.35929409E+00 0.33416159E+04</pdfrwt>
<pdfrwt beam="2">  1       -2 0.18389769E+00 0.33416159E+04</pdfrwt>
<totfact> 0.61415631E-01</totfact>
</mgrwt>
</event>
<event>
 6    1  0.1773638E-005  0.5003276E+04  0.7818608E-02  0.7828002E-01
         -2   -1    0    0    0  501 -0.00000000000E+00  0.00000000000E+00  0.25037543999E+04  0.25037543999E+04  0.00000000000E+00 0.  1.
          2   -1    0    0  501    0  0.00000000000E+00 -0.00000000000E+00 -0.24995232259E+04  0.24995232259E+04  0.00000000000E+00 0. -1.
         23    2    1    2    0    0 -0.17228345764E+04 -0.96886255502E+03  0.15340052698E+04  0.25038652124E+04  0.96515315697E+02 0.  0.
         13    1    3    3    0    0 -0.15135072360E+04 -0.82195770976E+03  0.13604915134E+04  0.21948247739E+04  0.00000000000E+00 0. -1.
        -13    1    3    3    0    0 -0.20932734037E+03 -0.14690484526E+03  0.17351375635E+03  0.30904043850E+03  0.00000000000E+00 0.  1.
         22    1    1    2    0    0  0.17228345764E+04  0.96886255502E+03 -0.15297740958E+04  0.24994124134E+04  0.00000000000E+00 0. -1.
<mgrwt>
<rscale>  0 0.50032758E+04</rscale>
<asrwt>0</asrwt>
<pdfrwt beam="1">  1        2 0.38454203E+00 0.50032758E+04</pdfrwt>
<pdfrwt beam="2">  1       -2 0.38519299E+00 0.50032758E+04</pdfrwt>
<totfact> 0.23505148E-02</totfact>
</mgrwt>
</event>
<event>
 6    1  0.1773638E-005  0.1771587E+04  0.7818608E-02  0.8721557E-01
         -1   -1    0    0    0  501 -0.00000000000E+00  0.00000000000E+00  0.99947108945E+03  0.99947108945E+03  0.00000000000E+00 0.  1.
          1   -1    0    0  501    0  0.00000000000E+00 -0.00000000000E+00 -0.78504545763E+03  0.78504545763E+03  0.00000000000E+00 0. -1.
         23    2    1    2    0    0  0.53088553725E+03  0.66191105360E+03 -0.14011747714E+03  0.86491526790E+03  0.92085920285E+02 0.  0.
         13    1    3    3    0    0  0.31396591728E+03  0.34169625951E+03 -0.11049600312E+03  0.47701184229E+03  0.00000000000E+00 0. -1.
        -13    1    3    3    0    0  0.21691961996E+03  0.32021479409E+03 -0.29621474017E+02  0.38790342561E+03  0.00000000000E+00 0.  1.
         22    1    1    2    0    0 -0.53088553725E+03 -0.66191105360E+03  0.35454310896E+03  0.91960127917E+03  0.00000000000E+00 0. -1.
<mgrwt>
<rscale>  0 0.17715871E+04</rscale>
<asrwt>0</asrwt>
<pdfrwt beam="1">  1        1 0.12077622E+00 0.17715871E+04</pdfrwt>
<pdfrwt beam="2">  1       -1 0.15376478E+00 0.17715871E+04</pdfrwt>
<totfact> 0.70314454E+00</totfact>
</mgrwt>
</event>
<event>
 6    1  0.1773638E-005  0.5979079E+03  0.7818608E-02  0.9909756E-01
          1   -1    0    0  501    0  0.00000000000E+00  0.00000000000E+00  0.14789339883E+03  0.14789339883E+03  0.00000000000E+00 0. -1.
         -1   -1    0    0    0  501 -0.00000000000E+00 -0.00000000000E+00 -0.60431011746E+03  0.60431011746E+03  0.00000000000E+00 0.  1.
         23    2    1    2    0    0 -0.14865238402E+03  0.24838856647E+03 -0.28370239235E+03  0.41512096004E+03  0.89688086234E+02 0.  0.
         11    1    3    3    0    0 -0.88341492086E+02  0.66265987164E+02 -0.89625905025E+02  0.14222588769E+03  0.00000000000E+00 0. -1.
        -11    1    3    3    0    0 -0.60310891934E+02  0.18212257930E+03 -0.19407648733E+03  0.27289507235E+03  0.00000000000E+00 0.  1.
         22    1    1    2    0    0  0.14865238402E+03 -0.24838856647E+03 -0.17271432628E+03  0.33708255625E+03  0.00000000000E+00 0. -1.
<mgrwt>
<rscale>  0 0.59790794E+03</rscale>
<asrwt>0</asrwt>
<pdfrwt beam="1">  1        1 0.22752831E-01 0.59790794E+03</pdfrwt>
<pdfrwt beam="2">  1       -1 0.92970786E-01 0.59790794E+03</pdfrwt>
<totfact> 0.25267721E+02</totfact>
</mgrwt>
</event>
<event>
 6    1  0.1773638E-005  0.5663943E+03  0.7818608E-02  0.9977689E-01
         -1   -1    0    0    0  501 -0.00000000000E+00  0.00000000000E+00  0.12025802136E+03  0.12025802136E+03  0.00000000000E+00 0.  1.
          1   -1    0    0  501    0  0.00000000000E+00 -0.00000000000E+00 -0.66690469923E+03  0.66690469923E+03  0.00000000000E+00 0. -1.
         23    2    1    2    0    0  0.13615100658E+03  0.13505490063E+03 -0.55617929970E+03  0.59515284154E+03  0.89969820457E+02 0.  0.
         13    1    3    3    0    0  0.18835422605E+01 -0.98148165090E+01 -0.91309263027E+01  0.13537066510E+02  0.00000000000E+00 0. -1.
        -13    1    3    3    0    0  0.13426746432E+03  0.14486971714E+03 -0.54704837340E+03  0.58161577503E+03  0.00000000000E+00 0.  1.
         22    1    1    2    0    0 -0.13615100658E+03 -0.13505490063E+03  0.95326218367E+01  0.19200987906E+03  0.00000000000E+00 0.  1.
<mgrwt>
<rscale>  0 0.56639435E+03</rscale>
<asrwt>0</asrwt>
<pdfrwt beam="1">  1        1 0.10260072E+00 0.56639435E+03</pdfrwt>
<pdfrwt beam="2">  1       -1 0.18501234E-01 0.56639435E+03</pdfrwt>
<totfact> 0.68887400E+02</totfact>
</mgrwt>
</event>
<event>
 6    1  0.1773638E-005  0.1897950E+04  0.7818608E-02  0.8655878E-01
         -2   -1    0    0    0  501 -0.00000000000E+00  0.00000000000E+00  0.94263621940E+03  0.94263621940E+03  0.00000000000E+00 0.  1.
          2   -1    0    0  501    0  0.00000000000E+00 -0.00000000000E+00 -0.95535591342E+03  0.95535591342E+03  0.00000000000E+00 0. -1.
         23    2    1    2    0    0 -0.61040199935E+03  0.59104471904E+03  0.41127444361E+03  0.94841565383E+03  0.91766681134E+02 0.  0.
         11    1    3    3    0    0 -0.30238666388E+03  0.34669691142E+03  0.24872483492E+03  0.52297273962E+03  0.00000000000E+00 0. -1.
        -11    1    3    3    0    0 -0.30801533547E+03  0.24434780761E+03  0.16254960869E+03  0.42544291421E+03  0.00000000000E+00 0.  1.
         22    1    1    2    0    0  0.61040199935E+03 -0.59104471904E+03 -0.42399413762E+03  0.94957647899E+03  0.00000000000E+00 0. -1.
<mgrwt>
<rscale>  0 0.18979495E+04</rscale>
<asrwt>0</asrwt>
<pdfrwt beam="1">  1        2 0.14697783E+00 0.18979495E+04</pdfrwt>
<pdfrwt beam="2">  1       -2 0.14502096E+00 0.18979495E+04</pdfrwt>
<totfact> 0.82617847E+00</totfact>
</mgrwt>
</event>
<event>
 6    1  0.1773638E-005  0.2913895E+04  0.7818608E-02  0.8268755E-01
          2   -1    0    0  501    0  0.00000000000E+00  0.00000000000E+00  0.11847341254E+04  0.11847341254E+04  0.00000000000E+00 0. -1.
         -2   -1    0    0    0  501 -0.00000000000E+00 -0.00000000000E+00 -0.17917070588E+04  0.17917070588E+04  0.00000000000E+00 0.  1.
         23    2    1    2    0    0 -0.14257249170E+04  0.28503118194E+03 -0.23492024694E+03  0.14756555515E+04  0.91855705762E+02 0.  0.
         13    1    3    3    0    0 -0.91490424613E+03  0.13789927485E+03 -0.15184569258E+03  0.93761564831E+03  0.00000000000E+00 0.  1.
        -13    1    3    3    0    0 -0.51082067087E+03  0.14713190709E+03 -0.83074554366E+02  0.53803990322E+03  0.00000000000E+00 0. -1.
         22    1    1    2    0    0  0.14257249170E+04 -0.28503118194E+03 -0.37205268654E+03  0.15007856327E+04  0.00000000000E+00 0.  1.
<mgrwt>
<rscale>  0 0.29138953E+04</rscale>
<asrwt>0</asrwt>
<pdfrwt beam="1">  1        2 0.18226679E+00 0.29138953E+04</pdfrwt>
<pdfrwt beam="2">  1       -2 0.27564724E+00 0.29138953E+04</pdfrwt>
<totfact> 0.74655183E-01</totfact>
</mgrwt>
</event>
<event>
 6    1  0.1773638E-005  0.2470918E+04  0.7818608E-02  0.8413420E-01
         -1   -1    0    0    0  501 -0.00000000000E+00  0.00000000000E+00  0.11163465713E+04  0.11163465713E+04  0.00000000000E+00 0.  1.
          1   -1    0    0  501    0  0.00000000000E+00 -0.00000000000E+00 -0.13672809981E+04  0.13672809981E+04  0.00000000000E+00 0. -1.
         23    2    1    2    0    0  0.10285967482E+04 -0.27528491860E+03 -0.75240051724E+03  0.13066563308E+04  0.86320168708E+02 0.  0.
         11    1    3    3    0    0  0.51337629259E+03 -0.93108740708E+02 -0.36062239686E+03  0.63424992590E+03  0.00000000000E+00 0. -1.
        -11    1    3    3    0    0  0.51522045562E+03 -0.18217617789E+03 -0.39177812038E+03  0.67240640486E+03  0.00000000000E+00 0.  1.
         22    1    1    2    0    0 -0.10285967482E+04  0.27528491860E+03  0.50146609039E+03  0.11769712387E+04  0.00000000000E+00 0. -1.
<mgrwt>
<rscale>  0 0.24709184E+04</rscale>
<asrwt>0</asrwt>
<pdfrwt beam="1">  1        1 0.21035092E+00 0.24709184E+04</pdfrwt>
<pdfrwt beam="2">  1       -1 0.17174563E+00 0.24709184E+04</pdfrwt>
<totfact> 0.17240615E+00</totfact>
</mgrwt>
</event>
<event>
 6    1  0.1773638E-005  0.1493383E+04  0.7818608E-02  0.8888865E-01
         -2   -1    0    0    0  501 -0.00000000000E+00  0.00000000000E+00  0.30710074414E+03  0.30710074414E+03  0.00000000000E+00 0.  1.
          2   -1    0    0  501    0  0.00000000000E+00 -0.00000000000E+00 -0.18155212146E+04  0.18155212146E+04  0.00000000000E+00 0. -1.
         23    2    1    2    0    0  0.45031603557E+02 -0.41521640822E+03 -0.16318309672E+04  0.16871191899E+04  0.95217353629E+02 0.  0.
         11    1    3    3    0    0 -0.36714813853E+01 -0.13803255129E+03 -0.70932843025E+03  0.72264326397E+03  0.00000000000E+00 0. -1.
        -11    1    3    3    0    0  0.48703084943E+02 -0.27718385693E+03 -0.92250253692E+03  0.96447592591E+03  0.00000000000E+00 0.  1.
         22    1    1    2    0    0 -0.45031603557E+02  0.41521640822E+03  0.12341049673E+03  0.43550276885E+03  0.00000000000E+00 0.  1.
<mgrwt>
<rscale>  0 0.14933826E+04</rscale>
<asrwt>0</asrwt>
<pdfrwt beam="1">  1        2 0.27931096E+00 0.14933826E+04</pdfrwt>
<pdfrwt beam="2">  1       -2 0.47246268E-01 0.14933826E+04</pdfrwt>
<totfact> 0.34720656E+01</totfact>
</mgrwt>
</event>
<event>
 6    1  0.1773638E-005  0.3504046E+04  0.7818608E-02  0.8112832E-01
          1   -1    0    0  501    0  0.00000000000E+00  0.00000000000E+00  0.34371179570E+04  0.34371179570E+04  0.00000000000E+00 0. -1.
         -1   -1    0    0    0  501 -0.00000000000E+00 -0.00000000000E+00 -0.89306910986E+03  0.89306910986E+03  0.00000000000E+00 0.  1.
         23    2    1    2    0    0  0.56134165601E+03 -0.11827567591E+04  0.27095139467E+04  0.30105671576E+04  0.89614603277E+02 0.  0.
         13    1    3    3    0    0  0.34217551265E+03 -0.61777174665E+03  0.14440417137E+04  0.16074770553E+04  0.00000000000E+00 0. -1.
        -13    1    3    3    0    0  0.21916614336E+03 -0.56498501241E+03  0.12654722330E+04  0.14030901023E+04  0.00000000000E+00 0.  1.
         22    1    1    2    0    0 -0.56134165601E+03  0.11827567591E+04 -0.16546509954E+03  0.13196199093E+04  0.00000000000E+00 0.  1.
<mgrwt>
<rscale>  0 0.35040456E+04</rscale>
<asrwt>0</asrwt>
<pdfrwt beam="1">  1        1 0.52878737E+00 0.35040456E+04</pdfrwt>
<pdfrwt beam="2">  1       -1 0.13739525E+00 0.35040456E+04</pdfrwt>
<totfact> 0.10036711E-01</totfact>
</mgrwt>
</event>
<event>
 6    1  0.1773638E-005  0.4557810E+04  0.7818608E-02  0.7900593E-01
         -1   -1    0    0    0  501 -0.00000000000E+00  0.00000000000E+00  0.22534245474E+04  0.22534245474E+04  0.00000000000E+00 0.  1.
          1   -1    0    0  501    0  0.00000000000E+00 -0.00000000000E+00 -0.23046733941E+04  0.23046733941E+04  0.00000000000E+00 0. -1.
         23    2    1    2    0    0  0.63613527093E+03 -0.75368891158E+03 -0.20792476671E+04  0.23029938921E+04  0.88288998549E+02 0.  0.
         11    1    3    3    0    0  0.73836982753E+02 -0.12427798271E+03 -0.35351063601E+03  0.38192497533E+03  0.00000000000E+00 0. -1.
        -11    1    3    3    0    0  0.56229828818E+03 -0.62941092887E+03 -0.17257370311E+04  0.19210689167E+04  0.00000000000E+00 0.  1.
         22    1    1    2    0    0 -0.63613527093E+03  0.75368891158E+03  0.20279988204E+04  0.22551040494E+04  0.00000000000E+00 0.  1.
<mgrwt>
<rscale>  0 0.45578098E+04</rscale>
<asrwt>0</asrwt>
<pdfrwt beam="1">  1        1 0.35456514E+00 0.45578098E+04</pdfrwt>
<pdfrwt beam="2">  1       -1 0.34668070E+00 0.45578098E+04</pdfrwt>
<totfact> 0.22584171E-02</totfact>
</mgrwt>
</event>
<event>
 6    1  0.1773638E-005  0.1481458E+04  0.7818608E-02  0.8896878E-01
         -2   -1    0    0    0  501 -0.00000000000E+00  0.00000000000E+00  0.63016029828E+03  0.63016029828E+03  0.00000000000E+00 0.  1.
          2   -1    0    0  501    0  0.00000000000E+00 -0.00000000000E+00 -0.87069835194E+03  0.87069835194E+03  0.00000000000E+00 0. -1.
         23    2    1    2    0    0 -0.27810485996E+03 -0.33548684562E+02 -0.81248613792E+03  0.86399725364E+03  0.88823997954E+02 0.  0.
         11    1    3    3    0    0 -0.17152373321E+03  0.18270694564E+02 -0.42102488818E+03  0.45499029198E+03  0.00000000000E+00 0.  1.
        -11    1    3    3    0    0 -0.10658112675E+03 -0.51819379127E+02 -0.39146124975E+03  0.40900696166E+03  0.00000000000E+00 0. -1.
         22    1    1    2    0    0  0.27810485996E+03  0.33548684562E+02  0.57194808426E+03  0.63686139658E+03  0.00000000000E+00 0.  1.
<mgrwt>
<rscale>  0 0.14814581E+04</rscale>
<asrwt>0</asrwt>
<pdfrwt beam="1">  1        2 0.13395359E+00 0.14814581E+04</pdfrwt>
<pdfrwt beam="2">  1       -2 0.96947738E-01 0.14814581E+04</pdfrwt>
<totfact> 0.26408213E+01</totfact>
</mgrwt>
</event>
<event>
 6    1  0.1773638E-005  0.1021419E+04  0.7818608E-02  0.9285360E-01
         -1   -1    0    0    0  501 -0.00000000000E+00  0.00000000000E+00  0.11549265689E+03  0.11549265689E+03  0.00000000000E+00 0.  1.
          1   -1    0    0  501    0  0.00000000000E+00 -0.00000000000E+00 -0.22583613714E+04  0.22583613714E+04  0.00000000000E+00 0. -1.
         23    2    1    2    0    0  0.16876275571E+03  0.34899019151E+03 -0.32211079323E+03  0.51228629398E+03  0.91688943728E+02 0.  0.
         11    1    3    3    0    0  0.29847234421E+02  0.83825087169E+02 -0.12661779316E+03  0.15475648027E+03  0.00000000000E+00 0. -1.
        -11    1    3    3    0    0  0.13891552129E+03  0.26516510434E+03 -0.19549300007E+03  0.35752981371E+03  0.00000000000E+00 0.  1.
         22    1    1    2    0    0 -0.16876275571E+03 -0.34899019151E+03 -0.18207579213E+04  0.18615677343E+04  0.00000000000E+00 0. -1.
<mgrwt>
<rscale>  0 0.10214189E+04</rscale>
<asrwt>0</asrwt>
<pdfrwt beam="1">  1        1 0.34744021E+00 0.10214189E+04</pdfrwt>
<pdfrwt beam="2">  1       -1 0.17768101E-01 0.10214189E+04</pdfrwt>
<totfact> 0.49966993E+01</totfact>
</mgrwt>
</event>
<event>
 6    1  0.1773638E-005  0.1981267E+04  0.7818608E-02  0.8615430E-01
          2   -1    0    0  501    0  0.00000000000E+00  0.00000000000E+00  0.98700865945E+03  0.98700865945E+03  0.00000000000E+00 0. -1.
         -2   -1    0    0    0  501 -0.00000000000E+00 -0.00000000000E+00 -0.99427127197E+03  0.99427127197E+03  0.00000000000E+00 0.  1.
         23    2    1    2    0    0 -0.38745643508E+03  0.42327061641E+03  0.80121517616E+03  0.98985830639E+03  0.92699538352E+02 0.  0.
         11    1    3    3    0    0 -0.18411262181E+03  0.24980978783E+03  0.37475025379E+03  0.48655949309E+03  0.00000000000E+00 0. -1.
        -11    1    3    3    0    0 -0.20334381327E+03  0.17346082858E+03  0.42646492238E+03  0.50329881330E+03  0.00000000000E+00 0.  1.
         22    1    1    2    0    0  0.38745643508E+03 -0.42327061641E+03 -0.80847778868E+03  0.99142162504E+03  0.00000000000E+00 0.  1.
<mgrwt>
<rscale>  0 0.19812666E+04</rscale>
<asrwt>0</asrwt>
<pdfrwt beam="1">  1        2 0.15184749E+00 0.19812666E+04</pdfrwt>
<pdfrwt beam="2">  1       -2 0.15296481E+00 0.19812666E+04</pdfrwt>
<totfact> 0.67947029E+00</totfact>
</mgrwt>
</event>
<event>
 6    1  0.1773638E-005  0.1099750E+04  0.7818608E-02  0.9205436E-01
         -2   -1    0    0    0  501 -0.00000000000E+00  0.00000000000E+00  0.30128468711E+03  0.30128468711E+03  0.00000000000E+00 0.  1.
          2   -1    0    0  501    0  0.00000000000E+00 -0.00000000000E+00 -0.10035766566E+04  0.10035766566E+04  0.00000000000E+00 0. -1.
         23    2    1    2    0    0  0.37260820500E+03 -0.39281277590E+03 -0.27002385262E+03  0.61204500717E+03  0.92452466007E+02 0.  0.
         13    1    3    3    0    0  0.16142554315E+03 -0.18440007741E+03 -0.17260246951E+03  0.29975524518E+03  0.00000000000E+00 0.  1.
        -13    1    3    3    0    0  0.21118266185E+03 -0.20841269849E+03 -0.97421383116E+02  0.31228976199E+03  0.00000000000E+00 0. -1.
         22    1    1    2    0    0 -0.37260820500E+03  0.39281277590E+03 -0.43226811689E+03  0.69281633657E+03  0.00000000000E+00 0. -1.
<mgrwt>
<rscale>  0 0.10997496E+04</rscale>
<asrwt>0</asrwt>
<pdfrwt beam="1">  1        2 0.15439641E+00 0.10997496E+04</pdfrwt>
<pdfrwt beam="2">  1       -2 0.46351490E-01 0.10997496E+04</pdfrwt>
<totfact> 0.10973890E+02</totfact>
</mgrwt>
</event>
<event>
 6    1  0.1773638E-005  0.1243057E+04  0.7818608E-02  0.9075982E-01
          2   -1    0    0  501    0  0.00000000000E+00  0.00000000000E+00  0.22209547538E+04  0.22209547538E+04  0.00000000000E+00 0. -1.
         -2   -1    0    0    0  501 -0.00000000000E+00 -0.00000000000E+00 -0.17393304502E+03  0.17393304502E+03  0.00000000000E+00 0.  1.
         23    2    1    2    0    0  0.43886160938E+03 -0.16054174903E+03  0.18068771758E+04  0.18694902711E+04  0.10869949505E+03 0.  0.
         11    1    3    3    0    0  0.23239024451E+02  0.46699193449E+01  0.20435613928E+03  0.20572625517E+03  0.00000000000E+00 0. -1.
        -11    1    3    3    0    0  0.41562258493E+03 -0.16521166838E+03  0.16025210365E+04  0.16637640160E+04  0.00000000000E+00 0.  1.
         22    1    1    2    0    0 -0.43886160938E+03  0.16054174903E+03  0.24014453304E+03  0.52539752770E+03  0.00000000000E+00 0.  1.
<mgrwt>
<rscale>  0 0.12430566E+04</rscale>
<asrwt>0</asrwt>
<pdfrwt beam="1">  1        2 0.34168533E+00 0.12430566E+04</pdfrwt>
<pdfrwt beam="2">  1       -2 0.26758932E-01 0.12430566E+04</pdfrwt>
<totfact> 0.62830468E+01</totfact>
</mgrwt>
</event>
<event>
 6    1  0.1773638E-005  0.3558652E+04  0.7818608E-02  0.8100029E-01
         -1   -1    0    0    0  501 -0.00000000000E+00  0.00000000000E+00  0.24614034156E+04  0.24614034156E+04  0.00000000000E+00 0.  1.
          1   -1    0    0  501    0  0.00000000000E+00 -0.00000000000E+00 -0.12862581730E+04  0.12862581730E+04  0.00000000000E+00 0. -1.
         23    2    1    2    0    0 -0.19055034582E+03  0.11810040762E+04 -0.79750515267E+03  0.14406224377E+04  0.91095977692E+02 0.  0.
         13    1    3    3    0    0 -0.51659269382E+02  0.60587675747E+03 -0.40637269003E+03  0.73136453877E+03  0.00000000000E+00 0. -1.
        -13    1    3    3    0    0 -0.13889107644E+03  0.57512731872E+03 -0.39113246264E+03  0.70925789892E+03  0.00000000000E+00 0.  1.
         22    1    1    2    0    0  0.19055034582E+03 -0.11810040762E+04  0.19726503952E+04  0.23070391509E+04  0.00000000000E+00 0.  1.
<mgrwt>
<rscale>  0 0.35586516E+04</rscale>
<asrwt>0</asrwt>
<pdfrwt beam="1">  1        1 0.19788587E+00 0.35586516E+04</pdfrwt>
<pdfrwt beam="2">  1       -1 0.37867745E+00 0.35586516E+04</pdfrwt>
<totfact> 0.74975456E-02</totfact>
</mgrwt>
</event>
<event>
 6    1  0.1773638E-005  0.2080487E+04  0.7818608E-02  0.8569888E-01
          1   -1    0    0  501    0  0.00000000000E+00  0.00000000000E+00  0.21982896432E+04  0.21982896432E+04  0.00000000000E+00 0. -1.
         -1   -1    0    0    0  501 -0.00000000000E+00 -0.00000000000E+00 -0.49224910289E+03  0.49224910289E+03  0.00000000000E+00 0.  1.
         23    2    1    2    0    0  0.37111771746E+03  0.16711213730E+03  0.20899158750E+04  0.21310612227E+04  0.89547437612E+02 0.  0.
         13    1    3    3    0    0  0.29665714969E+03  0.16161604027E+03  0.15803314659E+04  0.16160361231E+04  0.00000000000E+00 0. -1.
        -13    1    3    3    0    0  0.74460567770E+02  0.54960970284E+01  0.50958440909E+03  0.51502509960E+03  0.00000000000E+00 0.  1.
         22    1    1    2    0    0 -0.37111771746E+03 -0.16711213730E+03 -0.38387533468E+03  0.55947752343E+03  0.00000000000E+00 0.  1.
<mgrwt>
<rscale>  0 0.20804866E+04</rscale>
<asrwt>0</asrwt>
<pdfrwt beam="1">  1        1 0.33819840E+00 0.20804866E+04</pdfrwt>
<pdfrwt beam="2">  1       -1 0.75730632E-01 0.20804866E+04</pdfrwt>
<totfact> 0.35253188E+00</totfact>
</mgrwt>
</event>
<event>
 6    1  0.1773638E-005  0.4259083E+04  0.7818608E-02  0.7954228E-01
         -1   -1    0    0    0  501 -0.00000000000E+00  0.00000000000E+00  0.18277607498E+04  0.18277607498E+04  0.00000000000E+00 0.  1.
          1   -1    0    0  501    0  0.00000000000E+00 -0.00000000000E+00 -0.24811487649E+04  0.24811487649E+04  0.00000000000E+00 0. -1.
         23    2    1    2    0    0  0.21135478841E+04  0.21863343909E+03 -0.19929106340E+03  0.21361027400E+04  0.91283890777E+02 0.  0.
         11    1    3    3    0    0  0.14267900502E+04  0.15621198020E+03 -0.17661268378E+03  0.14461410962E+04  0.00000000000E+00 0.  1.
        -11    1    3    3    0    0  0.68675783392E+03  0.62421458892E+02 -0.22678379627E+02  0.68996164378E+03  0.00000000000E+00 0. -1.
         22    1    1    2    0    0 -0.21135478841E+04 -0.21863343909E+03 -0.45409695169E+03  0.21728067748E+04  0.00000000000E+00 0.  1.
<mgrwt>
<rscale>  0 0.42590827E+04</rscale>
<asrwt>0</asrwt>
<pdfrwt beam="1">  1        1 0.38171520E+00 0.42590827E+04</pdfrwt>
<pdfrwt beam="2">  1       -1 0.28119396E+00 0.42590827E+04</pdfrwt>
<totfact> 0.46778996E-02</totfact>
</mgrwt>
</event>
<event>
 6    1  0.1773638E-005  0.4980661E+04  0.7818608E-02  0.7831497E-01
          2   -1    0    0  501    0  0.00000000000E+00  0.00000000000E+00  0.27855759869E+04  0.27855759869E+04  0.00000000000E+00 0.  1.
         -2   -1    0    0    0  501 -0.00000000000E+00 -0.00000000000E+00 -0.22263785777E+04  0.22263785777E+04  0.00000000000E+00 0. -1.
         23    2    1    2    0    0 -0.21686180107E+04  0.34923122730E+03  0.14586864159E+04  0.26383608758E+04  0.91189497182E+02 0.  0.
         13    1    3    3    0    0 -0.14117729710E+04  0.26252697641E+03  0.92170915947E+03  0.17063326492E+04  0.00000000000E+00 0. -1.
        -13    1    3    3    0    0 -0.75684503968E+03  0.86704250890E+02  0.53697725646E+03  0.93202822659E+03  0.00000000000E+00 0.  1.
         22    1    1    2    0    0  0.21686180107E+04 -0.34923122730E+03 -0.89948900680E+03  0.23735936888E+04  0.00000000000E+00 0. -1.
<mgrwt>
<rscale>  0 0.49806613E+04</rscale>
<asrwt>0</asrwt>
<pdfrwt beam="1">  1        2 0.42855015E+00 0.49806613E+04</pdfrwt>
<pdfrwt beam="2">  1       -2 0.34251978E+00 0.49806613E+04</pdfrwt>
<totfact> 0.29824092E-02</totfact>
</mgrwt>
</event>
<event>
 6    1  0.1773638E-005  0.1229779E+04  0.7818608E-02  0.9087183E-01
          1   -1    0    0  501    0  0.00000000000E+00  0.00000000000E+00  0.39265698847E+03  0.39265698847E+03  0.00000000000E+00 0. -1.
         -1   -1    0    0    0  501 -0.00000000000E+00 -0.00000000000E+00 -0.96289870907E+03  0.96289870907E+03  0.00000000000E+00 0.  1.
         23    2    1    2    0    0  0.25514205784E+03  0.41999413441E+03 -0.68786306101E+03  0.85025645715E+03  0.91037957016E+02 0.  0.
         11    1    3    3    0    0  0.21422501458E+03  0.37981889798E+03 -0.64538192574E+03  0.77889189378E+03  0.00000000000E+00 0. -1.
        -11    1    3    3    0    0  0.40917043257E+02  0.40175236431E+02 -0.42481135269E+02  0.71364563369E+02  0.00000000000E+00 0.  1.
         22    1    1    2    0    0 -0.25514205784E+03 -0.41999413441E+03  0.11762134041E+03  0.50529924039E+03  0.00000000000E+00 0. -1.
<mgrwt>
<rscale>  0 0.12297787E+04</rscale>
<asrwt>0</asrwt>
<pdfrwt beam="1">  1        1 0.60408768E-01 0.12297787E+04</pdfrwt>
<pdfrwt beam="2">  1       -1 0.14813826E+00 0.12297787E+04</pdfrwt>
<totfact> 0.21917291E+01</totfact>
</mgrwt>
</event>
<event>
 6    1  0.1773638E-005  0.1087875E+04  0.7818608E-02  0.9217091E-01
          2   -1    0    0  501    0  0.00000000000E+00  0.00000000000E+00  0.15495084320E+04  0.15495084320E+04  0.00000000000E+00 0. -1.
         -2   -1    0    0    0  501 -0.00000000000E+00 -0.00000000000E+00 -0.19094309611E+03  0.19094309611E+03  0.00000000000E+00 0.  1.
         23    2    1    2    0    0  0.10532485765E+03  0.53016749363E+03  0.70244530265E+03  0.89035483068E+03  0.84447761120E+02 0.  0.
         13    1    3    3    0    0  0.61437663148E+02  0.28119975317E+03  0.30544781279E+03  0.41969781269E+03  0.00000000000E+00 0.  1.
        -13    1    3    3    0    0  0.43887194497E+02  0.24896774046E+03  0.39699748985E+03  0.47065701799E+03  0.00000000000E+00 0. -1.
         22    1    1    2    0    0 -0.10532485765E+03 -0.53016749363E+03  0.65612003322E+03  0.85009669740E+03  0.00000000000E+00 0.  1.
<mgrwt>
<rscale>  0 0.10878749E+04</rscale>
<asrwt>0</asrwt>
<pdfrwt beam="1">  1        2 0.23838590E+00 0.10878749E+04</pdfrwt>
<pdfrwt beam="2">  1       -2 0.29375862E-01 0.10878749E+04</pdfrwt>
<totfact> 0.12604950E+02</totfact>
</mgrwt>
</event>
<event>
 6    1  0.1773638E-005  0.4388574E+04  0.7818608E-02  0.7930440E-01
         -1   -1    0    0    0  501 -0.00000000000E+00  0.00000000000E+00  0.15194362516E+04  0.15194362516E+04  0.00000000000E+00 0.  1.
          1   -1    0    0  501    0  0.00000000000E+00 -0.00000000000E+00 -0.31688698577E+04  0.31688698577E+04  0.00000000000E+00 0. -1.
         23    2    1    2    0    0 -0.16693786111E+04  0.99919306139E+03  0.25632355197E+03  0.19648667274E+04  0.98933169937E+02 0.  0.
         13    1    3    3    0    0 -0.67114843106E+03  0.37321892933E+03  0.14327371562E+03  0.78119136152E+03  0.00000000000E+00 0.  1.
        -13    1    3    3    0    0 -0.99823018005E+03  0.62597413206E+03  0.11304983635E+03  0.11836753659E+04  0.00000000000E+00 0. -1.
         22    1    1    2    0    0  0.16693786111E+04 -0.99919306139E+03 -0.19057571581E+04  0.27234393819E+04  0.00000000000E+00 0. -1.
<mgrwt>
<rscale>  0 0.43885741E+04</rscale>
<asrwt>0</asrwt>
<pdfrwt beam="1">  1        1 0.48751844E+00 0.43885741E+04</pdfrwt>
<pdfrwt beam="2">  1       -1 0.23375943E+00 0.43885741E+04</pdfrwt>
<totfact> 0.30295356E-02</totfact>
</mgrwt>
</event>
<event>
 6    1  0.1773638E-005  0.1554717E+04  0.7818608E-02  0.8848860E-01
         -2   -1    0    0    0  501 -0.00000000000E+00  0.00000000000E+00  0.93787794599E+03  0.93787794599E+03  0.00000000000E+00 0. -1.
          2   -1    0    0  501    0  0.00000000000E+00 -0.00000000000E+00 -0.64431234590E+03  0.64431234590E+03  0.00000000000E+00 0.  1.
         23    2    1    2    0    0  0.12103756776E+03  0.44887352288E+03  0.77799420400E+03  0.91076747084E+03  0.89915916958E+02 0.  0.
         13    1    3    3    0    0  0.33105447981E+01  0.17237693042E+03  0.26189478314E+03  0.31355006504E+03  0.00000000000E+00 0.  1.
        -13    1    3    3    0    0  0.11772702297E+03  0.27649659246E+03  0.51609942086E+03  0.59721740580E+03  0.00000000000E+00 0. -1.
         22    1    1    2    0    0 -0.12103756776E+03 -0.44887352288E+03 -0.48442860391E+03  0.67142282106E+03  0.00000000000E+00 0. -1.
<mgrwt>
<rscale>  0 0.15547171E+04</rscale>
<asrwt>0</asrwt>
<pdfrwt beam="1">  1        2 0.99124976E-01 0.15547171E+04</pdfrwt>
<pdfrwt beam="2">  1       -2 0.14428892E+00 0.15547171E+04</pdfrwt>
<totfact> 0.14509586E+01</totfact>
</mgrwt>
</event>
<event>
 6    1  0.1773638E-005  0.2644848E+04  0.7818608E-02  0.8353125E-01
         -1   -1    0    0    0  501 -0.00000000000E+00  0.00000000000E+00  0.59603868322E+03  0.59603868322E+03  0.00000000000E+00 0.  1.
          1   -1    0    0  501    0  0.00000000000E+00 -0.00000000000E+00 -0.29340468645E+04  0.29340468645E+04  0.00000000000E+00 0. -1.
         23    2    1    2    0    0  0.10481659522E+04  0.96451178148E+02 -0.22353950263E+04  0.24725014364E+04  0.91201623101E+02 0.  0.
         13    1    3    3    0    0  0.67404954914E+03  0.36183799360E+02 -0.15130076614E+04  0.16567571474E+04  0.00000000000E+00 0.  1.
        -13    1    3    3    0    0  0.37411640303E+03  0.60267378789E+02 -0.72238736489E+03  0.81574428893E+03  0.00000000000E+00 0. -1.
         22    1    1    2    0    0 -0.10481659522E+04 -0.96451178148E+02 -0.10261315497E+03  0.10575841114E+04  0.00000000000E+00 0.  1.
<mgrwt>
<rscale>  0 0.26448481E+04</rscale>
<asrwt>0</asrwt>
<pdfrwt beam="1">  1        1 0.45139182E+00 0.26448481E+04</pdfrwt>
<pdfrwt beam="2">  1       -1 0.91698260E-01 0.26448481E+04</pdfrwt>
<totfact> 0.67845922E-01</totfact>
</mgrwt>
</event>
<event>
 6    1  0.1773638E-005  0.1985063E+04  0.7818608E-02  0.8613636E-01
          1   -1    0    0  501    0  0.00000000000E+00  0.00000000000E+00  0.12933332205E+04  0.12933332205E+04  0.00000000000E+00 0. -1.
         -1   -1    0    0    0  501 -0.00000000000E+00 -0.00000000000E+00 -0.76169008134E+03  0.76169008134E+03  0.00000000000E+00 0.  1.
         23    2    1    2    0    0 -0.11663607248E+03  0.19413857759E+03 -0.73173521592E+03  0.77150523465E+03  0.92141956636E+02 0.  0.
         13    1    3    3    0    0 -0.88597944224E+02  0.66587822884E+02 -0.39750348543E+03  0.41266518487E+03  0.00000000000E+00 0.  1.
        -13    1    3    3    0    0 -0.28038128256E+02  0.12755075471E+03 -0.33423173049E+03  0.35884004979E+03  0.00000000000E+00 0. -1.
         22    1    1    2    0    0  0.11663607248E+03 -0.19413857759E+03  0.12633783551E+04  0.12835180672E+04  0.00000000000E+00 0. -1.
<mgrwt>
<rscale>  0 0.19850633E+04</rscale>
<asrwt>0</asrwt>
<pdfrwt beam="1">  1        1 0.19897434E+00 0.19850633E+04</pdfrwt>
<pdfrwt beam="2">  1       -1 0.11718309E+00 0.19850633E+04</pdfrwt>
<totfact> 0.55728037E+00</totfact>
</mgrwt>
</event>
<event>
 6    1  0.1773638E-005  0.1655676E+04  0.7818608E-02  0.8787056E-01
         -2   -1    0    0    0  501 -0.00000000000E+00  0.00000000000E+00  0.52745371573E+03  0.52745371573E+03  0.00000000000E+00 0.  1.
          2   -1    0    0  501    0  0.00000000000E+00 -0.00000000000E+00 -0.12992906381E+04  0.12992906381E+04  0.00000000000E+00 0. -1.
         23    2    1    2    0    0 -0.53014956553E+03 -0.10261086190E+03  0.30130877950E+03  0.62539958722E+03  0.93542034836E+02 0.  0.
         11    1    3    3    0    0 -0.42040451666E+03 -0.11495377472E+03  0.25994810542E+03  0.50747152182E+03  0.00000000000E+00 0.  1.
        -11    1    3    3    0    0 -0.10974504887E+03  0.12342912819E+02  0.41360674084E+02  0.11792806540E+03  0.00000000000E+00 0. -1.
         22    1    1    2    0    0  0.53014956553E+03  0.10261086190E+03 -0.10731457019E+04  0.12013447666E+04  0.00000000000E+00 0. -1.
<mgrwt>
<rscale>  0 0.16556759E+04</rscale>
<asrwt>0</asrwt>
<pdfrwt beam="1">  1        2 0.19989087E+00 0.16556759E+04</pdfrwt>
<pdfrwt beam="2">  1       -2 0.81146726E-01 0.16556759E+04</pdfrwt>
<totfact> 0.21152186E+01</totfact>
</mgrwt>
</event>
<event>
 6    1  0.1773638E-005  0.3015660E+04  0.7818608E-02  0.8239273E-01
         -1   -1    0    0    0  501 -0.00000000000E+00  0.00000000000E+00  0.12139778464E+04  0.12139778464E+04  0.00000000000E+00 0.  1.
          1   -1    0    0  501    0  0.00000000000E+00 -0.00000000000E+00 -0.18728113297E+04  0.18728113297E+04  0.00000000000E+00 0. -1.
         23    2    1    2    0    0  0.12995978082E+04  0.29376536633E+03 -0.10497965663E+04  0.16982270832E+04  0.81546561309E+02 0.  0.
         11    1    3    3    0    0  0.48454422883E+03  0.69310878519E+02 -0.38208871237E+03  0.62094999130E+03  0.00000000000E+00 0. -1.
        -11    1    3    3    0    0  0.81505357941E+03  0.22445448782E+03 -0.66770785397E+03  0.10772770919E+04  0.00000000000E+00 0.  1.
         22    1    1    2    0    0 -0.12995978082E+04 -0.29376536633E+03  0.39096308297E+03  0.13885620929E+04  0.00000000000E+00 0.  1.
<mgrwt>
<rscale>  0 0.30156601E+04</rscale>
<asrwt>0</asrwt>
<pdfrwt beam="1">  1        1 0.28812482E+00 0.30156601E+04</pdfrwt>
<pdfrwt beam="2">  1       -1 0.18676582E+00 0.30156601E+04</pdfrwt>
<totfact> 0.57541499E-01</totfact>
</mgrwt>
</event>
<event>
 6    1  0.1773638E-005  0.2102827E+04  0.7818608E-02  0.8559999E-01
          2   -1    0    0  501    0  0.00000000000E+00  0.00000000000E+00  0.33882577965E+04  0.33882577965E+04  0.00000000000E+00 0.  1.
         -2   -1    0    0    0  501 -0.00000000000E+00 -0.00000000000E+00 -0.32626497283E+03  0.32626497283E+03  0.00000000000E+00 0. -1.
         23    2    1    2    0    0  0.20683180437E+03 -0.81790276666E+02  0.33455325808E+04  0.33541565132E+04  0.91151638943E+02 0.  0.
         13    1    3    3    0    0  0.29246927803E+02 -0.43612465703E+02  0.11169781633E+04  0.11182118079E+04  0.00000000000E+00 0. -1.
        -13    1    3    3    0    0  0.17758487656E+03 -0.38177810963E+02  0.22285544175E+04  0.22359447053E+04  0.00000000000E+00 0.  1.
         22    1    1    2    0    0 -0.20683180437E+03  0.81790276666E+02 -0.28353975714E+03  0.36036625610E+03  0.00000000000E+00 0. -1.
<mgrwt>
<rscale>  0 0.21028265E+04</rscale>
<asrwt>0</asrwt>
<pdfrwt beam="1">  1        2 0.52127041E+00 0.21028265E+04</pdfrwt>
<pdfrwt beam="2">  1       -2 0.50194614E-01 0.21028265E+04</pdfrwt>
<totfact> 0.33719462E+00</totfact>
</mgrwt>
</event>
<event>
 6    1  0.1773638E-005  0.1703816E+04  0.7818608E-02  0.8759191E-01
          2   -1    0    0  501    0  0.00000000000E+00  0.00000000000E+00  0.15037661974E+04  0.15037661974E+04  0.00000000000E+00 0.  1.
         -2   -1    0    0    0  501 -0.00000000000E+00 -0.00000000000E+00 -0.48261990531E+03  0.48261990531E+03  0.00000000000E+00 0. -1.
         23    2    1    2    0    0 -0.50304695109E+03 -0.51812122195E+03 -0.95697877002E+01  0.72786257383E+03  0.90479334166E+02 0.  0.
         13    1    3    3    0    0 -0.32327137528E+03 -0.30781781635E+03  0.34463157606E+02  0.44770961501E+03  0.00000000000E+00 0. -1.
        -13    1    3    3    0    0 -0.17977557580E+03 -0.21030340560E+03 -0.44032945306E+02  0.28015295882E+03  0.00000000000E+00 0.  1.
         22    1    1    2    0    0  0.50304695109E+03  0.51812122195E+03  0.10307160798E+04  0.12585235289E+04  0.00000000000E+00 0.  1.
<mgrwt>
<rscale>  0 0.17038163E+04</rscale>
<asrwt>0</asrwt>
<pdfrwt beam="1">  1        2 0.23134864E+00 0.17038163E+04</pdfrwt>
<pdfrwt beam="2">  1       -2 0.74249217E-01 0.17038163E+04</pdfrwt>
<totfact> 0.19619447E+01</totfact>
</mgrwt>
</event>
<event>
 6    1  0.1773638E-005  0.1573917E+04  0.7818608E-02  0.8836734E-01
          2   -1    0    0  501    0  0.00000000000E+00  0.00000000000E+00  0.17910818692E+04  0.17910818692E+04  0.00000000000E+00 0.  1.
         -2   -1    0    0    0  501 -0.00000000000E+00 -0.00000000000E+00 -0.34577064285E+03  0.34577064285E+03  0.00000000000E+00 0. -1.
         23    2    1    2    0    0 -0.23872846900E+03  0.15654911180E+03 -0.26115199769E+03  0.40667459018E+03  0.12523957074E+03 0.  0.
         13    1    3    3    0    0 -0.12737054599E+03  0.82971169124E+02 -0.21922965998E+03  0.26677540124E+03  0.00000000000E+00 0. -1.
        -13    1    3    3    0    0 -0.11135792301E+03  0.73577942678E+02 -0.41922337714E+02  0.13989918894E+03  0.00000000000E+00 0.  1.
         22    1    1    2    0    0  0.23872846900E+03 -0.15654911180E+03  0.17064632240E+04  0.17301779218E+04  0.00000000000E+00 0.  1.
<mgrwt>
<rscale>  0 0.15739168E+04</rscale>
<asrwt>0</asrwt>
<pdfrwt beam="1">  1        2 0.27555105E+00 0.15739168E+04</pdfrwt>
<pdfrwt beam="2">  1       -2 0.53195485E-01 0.15739168E+04</pdfrwt>
<totfact> 0.27938414E+01</totfact>
</mgrwt>
</event>
<event>
 6    1  0.1773638E-005  0.3918041E+04  0.7818608E-02  0.8021287E-01
          2   -1    0    0  501    0  0.00000000000E+00  0.00000000000E+00  0.28138296586E+04  0.28138296586E+04  0.00000000000E+00 0. -1.
         -2   -1    0    0    0  501 -0.00000000000E+00 -0.00000000000E+00 -0.13638926304E+04  0.13638926304E+04  0.00000000000E+00 0.  1.
         23    2    1    2    0    0 -0.84448726830E+03 -0.12783211357E+04 -0.57440015167E+03  0.16389815204E+04  0.95190427301E+02 0.  0.
         11    1    3    3    0    0 -0.66500459310E+03 -0.95297572689E+03 -0.40498157217E+03  0.12306111972E+04  0.00000000000E+00 0. -1.
        -11    1    3    3    0    0 -0.17948267520E+03 -0.32534540886E+03 -0.16941857949E+03  0.40837032316E+03  0.00000000000E+00 0.  1.
         22    1    1    2    0    0  0.84448726830E+03  0.12783211357E+04  0.20243371799E+04  0.25387407686E+04  0.00000000000E+00 0. -1.
<mgrwt>
<rscale>  0 0.39180411E+04</rscale>
<asrwt>0</asrwt>
<pdfrwt beam="1">  1        2 0.43289687E+00 0.39180411E+04</pdfrwt>
<pdfrwt beam="2">  1       -2 0.20982964E+00 0.39180411E+04</pdfrwt>
<totfact> 0.20671024E-01</totfact>
</mgrwt>
</event>
<event>
 6    1  0.1773638E-005  0.1785800E+04  0.7818608E-02  0.8713888E-01
         -2   -1    0    0    0  501 -0.00000000000E+00  0.00000000000E+00  0.42604337839E+03  0.42604337839E+03  0.00000000000E+00 0. -1.
          2   -1    0    0  501    0  0.00000000000E+00 -0.00000000000E+00 -0.18713356950E+04  0.18713356950E+04  0.00000000000E+00 0.  1.
         23    2    1    2    0    0  0.63852313180E+03 -0.27837452865E+03 -0.14385156410E+04  0.16007801275E+04  0.89250204306E+02 0.  0.
         13    1    3    3    0    0  0.42380354988E+03 -0.15335046850E+03 -0.85353455507E+03  0.96521865490E+03  0.00000000000E+00 0.  1.
        -13    1    3    3    0    0  0.21471958193E+03 -0.12502406016E+03 -0.58498108597E+03  0.63556147257E+03  0.00000000000E+00 0. -1.
         22    1    1    2    0    0 -0.63852313180E+03  0.27837452865E+03 -0.67766755242E+01  0.69659894587E+03  0.00000000000E+00 0. -1.
<mgrwt>
<rscale>  0 0.17857997E+04</rscale>
<asrwt>0</asrwt>
<pdfrwt beam="1">  1        2 0.28789780E+00 0.17857997E+04</pdfrwt>
<pdfrwt beam="2">  1       -2 0.65545136E-01 0.17857997E+04</pdfrwt>
<totfact> 0.15961713E+01</totfact>
</mgrwt>
</event>
<event>
 6    1  0.1773638E-005  0.4441839E+04  0.7818608E-02  0.7920899E-01
          1   -1    0    0  501    0  0.00000000000E+00  0.00000000000E+00  0.28750148295E+04  0.28750148295E+04  0.00000000000E+00 0. -1.
         -1   -1    0    0    0  501 -0.00000000000E+00 -0.00000000000E+00 -0.17156374827E+04  0.17156374827E+04  0.00000000000E+00 0.  1.
         23    2    1    2    0    0 -0.78409455999E+03 -0.10854365799E+04 -0.12500570083E+04  0.18341416993E+04  0.91958691983E+02 0.  0.
         13    1    3    3    0    0 -0.11909235230E+03 -0.19903328607E+03 -0.17872119519E+03  0.29281137776E+03  0.00000000000E+00 0.  1.
        -13    1    3    3    0    0 -0.66500220769E+03 -0.88640329380E+03 -0.10713358131E+04  0.15413303215E+04  0.00000000000E+00 0. -1.
         22    1    1    2    0    0  0.78409455999E+03  0.10854365799E+04  0.24094343551E+04  0.27565106130E+04  0.00000000000E+00 0. -1.
<mgrwt>
<rscale>  0 0.44418389E+04</rscale>
<asrwt>0</asrwt>
<pdfrwt beam="1">  1        1 0.44230997E+00 0.44418389E+04</pdfrwt>
<pdfrwt beam="2">  1       -1 0.26394423E+00 0.44418389E+04</pdfrwt>
<totfact> 0.31443151E-02</totfact>
</mgrwt>
</event>
<event>
 6    1  0.1773638E-005  0.2850259E+04  0.7818608E-02  0.8287833E-01
          2   -1    0    0  501    0  0.00000000000E+00  0.00000000000E+00  0.14692074519E+04  0.14692074519E+04  0.00000000000E+00 0.  1.
         -2   -1    0    0    0  501 -0.00000000000E+00 -0.00000000000E+00 -0.13823739504E+04  0.13823739504E+04  0.00000000000E+00 0. -1.
         23    2    1    2    0    0 -0.66443171618E+02  0.85113995609E+03  0.11832077154E+04  0.14620166010E+04  0.93049040473E+02 0.  0.
         13    1    3    3    0    0 -0.66797038378E+02  0.70816236039E+03  0.10371027073E+04  0.12575920636E+04  0.00000000000E+00 0.  1.
        -13    1    3    3    0    0  0.35386675961E+00  0.14297759571E+03  0.14610500817E+03  0.20442453744E+03  0.00000000000E+00 0. -1.
         22    1    1    2    0    0  0.66443171618E+02 -0.85113995609E+03 -0.10963742140E+04  0.13895648013E+04  0.00000000000E+00 0. -1.
<mgrwt>
<rscale>  0 0.28502590E+04</rscale>
<asrwt>0</asrwt>
<pdfrwt beam="1">  1        2 0.22603192E+00 0.28502590E+04</pdfrwt>
<pdfrwt beam="2">  1       -2 0.21267292E+00 0.28502590E+04</pdfrwt>
<totfact> 0.12604428E+00</totfact>
</mgrwt>
</event>
<event>
 6    1  0.1773638E-005  0.3232212E+04  0.7818608E-02  0.8180361E-01
         -2   -1    0    0    0  501 -0.00000000000E+00  0.00000000000E+00  0.11382324076E+04  0.11382324076E+04  0.00000000000E+00 0.  1.
          2   -1    0    0  501    0  0.00000000000E+00 -0.00000000000E+00 -0.22946096207E+04  0.22946096207E+04  0.00000000000E+00 0. -1.
         23    2    1    2    0    0 -0.63754522808E+03  0.80567755139E+03 -0.19017819153E+04  0.21635081854E+04  0.91722301019E+02 0.  0.
         13    1    3    3    0    0 -0.35058469091E+03  0.37240087540E+03 -0.97158075732E+03  0.10979805124E+04  0.00000000000E+00 0. -1.
        -13    1    3    3    0    0 -0.28696053717E+03  0.43327667599E+03 -0.93020115794E+03  0.10655276731E+04  0.00000000000E+00 0.  1.
         22    1    1    2    0    0  0.63754522808E+03 -0.80567755139E+03  0.74540470222E+03  0.12693338429E+04  0.00000000000E+00 0.  1.
<mgrwt>
<rscale>  0 0.32322123E+04</rscale>
<asrwt>0</asrwt>
<pdfrwt beam="1">  1        2 0.35301686E+00 0.32322123E+04</pdfrwt>
<pdfrwt beam="2">  1       -2 0.17511268E+00 0.32322123E+04</pdfrwt>
<totfact> 0.75196934E-01</totfact>
</mgrwt>
</event>
<event>
 6    1  0.1773638E-005  0.5697773E+04  0.7818608E-02  0.7729047E-01
         -1   -1    0    0    0  501 -0.00000000000E+00  0.00000000000E+00  0.20480304834E+04  0.20480304834E+04  0.00000000000E+00 0.  1.
          1   -1    0    0  501    0  0.00000000000E+00 -0.00000000000E+00 -0.39629073966E+04  0.39629073966E+04  0.00000000000E+00 0. -1.
         23    2    1    2    0    0 -0.10207073213E+04 -0.94359827322E+03  0.16648554482E+04  0.21707940135E+04  0.91552435496E+02 0.  0.
         13    1    3    3    0    0 -0.26341780288E+03 -0.28173229382E+03  0.50887246662E+03  0.63852424507E+03  0.00000000000E+00 0. -1.
        -13    1    3    3    0    0 -0.75728951838E+03 -0.66186597941E+03  0.11559829816E+04  0.15322697684E+04  0.00000000000E+00 0.  1.
         22    1    1    2    0    0  0.10207073213E+04  0.94359827322E+03 -0.35797323614E+04  0.38401438666E+04  0.00000000000E+00 0. -1.
<mgrwt>
<rscale>  0 0.56977733E+04</rscale>
<asrwt>0</asrwt>
<pdfrwt beam="1">  1        1 0.60967806E+00 0.56977733E+04</pdfrwt>
<pdfrwt beam="2">  1       -1 0.31508161E+00 0.56977733E+04</pdfrwt>
<totfact> 0.18563286E-03</totfact>
</mgrwt>
</event>
<event>
 6    1  0.1773638E-005  0.1769011E+04  0.7818608E-02  0.8722955E-01
         -2   -1    0    0    0  501 -0.00000000000E+00  0.00000000000E+00  0.14086973778E+04  0.14086973778E+04  0.00000000000E+00 0.  1.
          2   -1    0    0  501    0  0.00000000000E+00 -0.00000000000E+00 -0.55537115786E+03  0.55537115786E+03  0.00000000000E+00 0. -1.
         23    2    1    2    0    0  0.59945268721E+03 -0.17360995462E+03  0.11200314977E+04  0.12853818291E+04  0.90840245555E+02 0.  0.
         11    1    3    3    0    0  0.30047997502E+03 -0.11837034427E+03  0.64597222400E+03  0.72220486565E+03  0.00000000000E+00 0. -1.
        -11    1    3    3    0    0  0.29897271219E+03 -0.55239610343E+02  0.47405927370E+03  0.56317696345E+03  0.00000000000E+00 0.  1.
         22    1    1    2    0    0 -0.59945268721E+03  0.17360995462E+03 -0.26670527772E+03  0.67868670659E+03  0.00000000000E+00 0. -1.
<mgrwt>
<rscale>  0 0.17690109E+04</rscale>
<asrwt>0</asrwt>
<pdfrwt beam="1">  1        2 0.85441717E-01 0.17690109E+04</pdfrwt>
<pdfrwt beam="2">  1       -2 0.21672267E+00 0.17690109E+04</pdfrwt>
<totfact> 0.53364711E+00</totfact>
</mgrwt>
</event>
<event>
 6    1  0.1773638E-005  0.1461526E+04  0.7818608E-02  0.8910448E-01
         -1   -1    0    0    0  501 -0.00000000000E+00  0.00000000000E+00  0.14770350784E+03  0.14770350784E+03  0.00000000000E+00 0.  1.
          1   -1    0    0  501    0  0.00000000000E+00 -0.00000000000E+00 -0.36154502800E+04  0.36154502800E+04  0.00000000000E+00 0. -1.
         23    2    1    2    0    0  0.42493770855E+03 -0.47792610236E+03 -0.84543992050E+03  0.10639912067E+04  0.91231645765E+02 0.  0.
         11    1    3    3    0    0  0.28676528510E+03 -0.30152328586E+03 -0.47930904002E+03  0.63473441415E+03  0.00000000000E+00 0.  1.
        -11    1    3    3    0    0  0.13817242345E+03 -0.17640281650E+03 -0.36613088048E+03  0.42925679250E+03  0.00000000000E+00 0. -1.
         22    1    1    2    0    0 -0.42493770855E+03  0.47792610236E+03 -0.26223068517E+04  0.26991625812E+04  0.00000000000E+00 0.  1.
<mgrwt>
<rscale>  0 0.14615262E+04</rscale>
<asrwt>0</asrwt>
<pdfrwt beam="1">  1        1 0.55622305E+00 0.14615262E+04</pdfrwt>
<pdfrwt beam="2">  1       -1 0.22723620E-01 0.14615262E+04</pdfrwt>
<totfact> 0.32812531E+00</totfact>
</mgrwt>
</event>
<event>
 6    1  0.1773638E-005  0.3227426E+04  0.7818608E-02  0.8181611E-01
         -2   -1    0    0    0  501 -0.00000000000E+00  0.00000000000E+00  0.16426157262E+04  0.16426157262E+04  0.00000000000E+00 0.  1.
          2   -1    0    0  501    0  0.00000000000E+00 -0.00000000000E+00 -0.15853191325E+04  0.15853191325E+04  0.00000000000E+00 0. -1.
         23    2    1    2    0    0 -0.81838407592E+03  0.97245481906E+03 -0.96365179853E+03  0.15976721528E+04  0.92253174630E+02 0.  0.
         11    1    3    3    0    0 -0.40347276960E+03  0.48989505977E+03 -0.53837485793E+03  0.83224691832E+03  0.00000000000E+00 0. -1.
        -11    1    3    3    0    0 -0.41491130632E+03  0.48255975928E+03 -0.42527694061E+03  0.76542523449E+03  0.00000000000E+00 0.  1.
         22    1    1    2    0    0  0.81838407592E+03 -0.97245481906E+03  0.10209483922E+04  0.16302627059E+04  0.00000000000E+00 0.  1.
<mgrwt>
<rscale>  0 0.32274263E+04</rscale>
<asrwt>0</asrwt>
<pdfrwt beam="1">  1        2 0.24389525E+00 0.32274263E+04</pdfrwt>
<pdfrwt beam="2">  1       -2 0.25271011E+00 0.32274263E+04</pdfrwt>
<totfact> 0.59051845E-01</totfact>
</mgrwt>
</event>
<event>
 6    1  0.1773638E-005  0.1561765E+04  0.7818608E-02  0.8844388E-01
         -2   -1    0    0    0  501 -0.00000000000E+00  0.00000000000E+00  0.34842553648E+03  0.34842553648E+03  0.00000000000E+00 0. -1.
          2   -1    0    0  501    0  0.00000000000E+00 -0.00000000000E+00 -0.17500945047E+04  0.17500945047E+04  0.00000000000E+00 0.  1.
         23    2    1    2    0    0 -0.76764601499E+03  0.77430204153E+02 -0.83949640570E+03  0.11438924536E+04  0.91977657469E+02 0.  0.
         11    1    3    3    0    0 -0.49206423318E+03  0.89045687332E+02 -0.51129333728E+03  0.71517635640E+03  0.00000000000E+00 0. -1.
        -11    1    3    3    0    0 -0.27558178181E+03 -0.11615483179E+02 -0.32820306842E+03  0.42871609724E+03  0.00000000000E+00 0.  1.
         22    1    1    2    0    0  0.76764601499E+03 -0.77430204153E+02 -0.56217256255E+03  0.95462758756E+03  0.00000000000E+00 0. -1.
<mgrwt>
<rscale>  0 0.15617652E+04</rscale>
<asrwt>0</asrwt>
<pdfrwt beam="1">  1        2 0.26924531E+00 0.15617652E+04</pdfrwt>
<pdfrwt beam="2">  1       -2 0.53603928E-01 0.15617652E+04</pdfrwt>
<totfact> 0.29005513E+01</totfact>
</mgrwt>
</event>
<event>
 6    1  0.1773638E-005  0.5893358E+03  0.7818608E-02  0.9927781E-01
          1   -1    0    0  501    0  0.00000000000E+00  0.00000000000E+00  0.70739060058E+03  0.70739060058E+03  0.00000000000E+00 0. -1.
         -1   -1    0    0    0  501 -0.00000000000E+00 -0.00000000000E+00 -0.12274573561E+03  0.12274573561E+03  0.00000000000E+00 0.  1.
         23    2    1    2    0    0  0.23828023172E+03 -0.12763692143E+03  0.43775754066E+03  0.52249281101E+03  0.91095667363E+02 0.  0.
         13    1    3    3    0    0  0.11216697228E+03 -0.41417196253E+02  0.11737817483E+03  0.16755431878E+03  0.00000000000E+00 0.  1.
        -13    1    3    3    0    0  0.12611325944E+03 -0.86219725172E+02  0.32037936582E+03  0.35493849222E+03  0.00000000000E+00 0. -1.
         22    1    1    2    0    0 -0.23828023172E+03  0.12763692143E+03  0.14688732431E+03  0.30764352518E+03  0.00000000000E+00 0. -1.
<mgrwt>
<rscale>  0 0.58933583E+03</rscale>
<asrwt>0</asrwt>
<pdfrwt beam="1">  1        1 0.10882932E+00 0.58933583E+03</pdfrwt>
<pdfrwt beam="2">  1       -1 0.18883960E-01 0.58933583E+03</pdfrwt>
<totfact> 0.60957396E+02</totfact>
</mgrwt>
</event>
<event>
 6    1  0.1773638E-005  0.2842578E+04  0.7818608E-02  0.8290170E-01
          1   -1    0    0  501    0  0.00000000000E+00  0.00000000000E+00  0.15750403242E+04  0.15750403242E+04  0.00000000000E+00 0. -1.
         -1   -1    0    0    0  501 -0.00000000000E+00 -0.00000000000E+00 -0.12825463606E+04  0.12825463606E+04  0.00000000000E+00 0.  1.
         23    2    1    2    0    0  0.52778469783E+03  0.53260840661E+03  0.13582641342E+04  0.15544771504E+04  0.96381279008E+02 0.  0.
         13    1    3    3    0    0  0.16542101097E+03  0.14145546656E+03  0.47970447293E+03  0.52677333004E+03  0.00000000000E+00 0. -1.
        -13    1    3    3    0    0  0.36236368686E+03  0.39115294005E+03  0.87855966123E+03  0.10277038204E+04  0.00000000000E+00 0.  1.
         22    1    1    2    0    0 -0.52778469783E+03 -0.53260840661E+03 -0.10657701706E+04  0.13031095344E+04  0.00000000000E+00 0.  1.
<mgrwt>
<rscale>  0 0.28425779E+04</rscale>
<asrwt>0</asrwt>
<pdfrwt beam="1">  1        1 0.24231390E+00 0.28425779E+04</pdfrwt>
<pdfrwt beam="2">  1       -1 0.19731482E+00 0.28425779E+04</pdfrwt>
<totfact> 0.78663850E-01</totfact>
</mgrwt>
</event>
<event>
 6    1  0.1773638E-005  0.1161207E+04  0.7818608E-02  0.9147506E-01
         -2   -1    0    0    0  501 -0.00000000000E+00  0.00000000000E+00  0.17837924858E+03  0.17837924858E+03  0.00000000000E+00 0.  1.
          2   -1    0    0  501    0  0.00000000000E+00 -0.00000000000E+00 -0.18897964793E+04  0.18897964793E+04  0.00000000000E+00 0. -1.
         23    2    1    2    0    0 -0.39353200415E+03  0.26436969219E+03 -0.27471117227E+03  0.55527022164E+03  0.90000102380E+02 0.  0.
         11    1    3    3    0    0 -0.72983659943E+02  0.11856172121E+02 -0.32777328915E+02  0.80879767105E+02  0.00000000000E+00 0.  1.
        -11    1    3    3    0    0 -0.32054834420E+03  0.25251352007E+03 -0.24193384336E+03  0.47439045453E+03  0.00000000000E+00 0. -1.
         22    1    1    2    0    0  0.39353200415E+03 -0.26436969219E+03 -0.14367060584E+04  0.15129055062E+04  0.00000000000E+00 0. -1.
<mgrwt>
<rscale>  0 0.11612071E+04</rscale>
<asrwt>0</asrwt>
<pdfrwt beam="1">  1        2 0.29073791E+00 0.11612071E+04</pdfrwt>
<pdfrwt beam="2">  1       -2 0.27442962E-01 0.11612071E+04</pdfrwt>
<totfact> 0.92138195E+01</totfact>
</mgrwt>
</event>
<event>
 6    1  0.1773638E-005  0.3805904E+04  0.7818608E-02  0.8044889E-01
         -1   -1    0    0    0  501 -0.00000000000E+00  0.00000000000E+00  0.19672187878E+04  0.19672187878E+04  0.00000000000E+00 0.  1.
          1   -1    0    0  501    0  0.00000000000E+00 -0.00000000000E+00 -0.18407845625E+04  0.18407845625E+04  0.00000000000E+00 0. -1.
         23    2    1    2    0    0 -0.33851174389E+03  0.11362927354E+04  0.15511859386E+04  0.19544476252E+04  0.89086037320E+02 0.  0.
         13    1    3    3    0    0 -0.42616991618E+01  0.52408682270E+02  0.46880056974E+02  0.70445523626E+02  0.00000000000E+00 0. -1.
        -13    1    3    3    0    0 -0.33425004473E+03  0.10838840532E+04  0.15043058816E+04  0.18840021015E+04  0.00000000000E+00 0.  1.
         22    1    1    2    0    0  0.33851174389E+03 -0.11362927354E+04 -0.14247517134E+04  0.18535557251E+04  0.00000000000E+00 0. -1.
<mgrwt>
<rscale>  0 0.38059038E+04</rscale>
<asrwt>0</asrwt>
<pdfrwt beam="1">  1        1 0.28319762E+00 0.38059038E+04</pdfrwt>
<pdfrwt beam="2">  1       -1 0.30264905E+00 0.38059038E+04</pdfrwt>
<totfact> 0.96481886E-02</totfact>
</mgrwt>
</event>
<event>
 6    1  0.1773638E-005  0.1783496E+04  0.7818608E-02  0.8715126E-01
          1   -1    0    0  501    0  0.00000000000E+00  0.00000000000E+00  0.71840119243E+03  0.71840119243E+03  0.00000000000E+00 0. -1.
         -1   -1    0    0    0  501 -0.00000000000E+00 -0.00000000000E+00 -0.11069219642E+04  0.11069219642E+04  0.00000000000E+00 0.  1.
         23    2    1    2    0    0 -0.18310019556E+03  0.13572582348E+03  0.68504574583E+03  0.72782953548E+03  0.92200748743E+02 0.  0.
         11    1    3    3    0    0 -0.10608328123E+03  0.33537009890E+02  0.23605698375E+03  0.26096224471E+03  0.00000000000E+00 0.  1.
        -11    1    3    3    0    0 -0.77016914328E+02  0.10218881359E+03  0.44898876208E+03  0.46686729077E+03  0.00000000000E+00 0. -1.
         22    1    1    2    0    0  0.18310019556E+03 -0.13572582348E+03 -0.10735665176E+04  0.10974936211E+04  0.00000000000E+00 0.  1.
<mgrwt>
<rscale>  0 0.17834955E+04</rscale>
<asrwt>0</asrwt>
<pdfrwt beam="1">  1        1 0.11052326E+00 0.17834955E+04</pdfrwt>
<pdfrwt beam="2">  1       -1 0.17029568E+00 0.17834955E+04</pdfrwt>
<totfact> 0.60572679E+00</totfact>
</mgrwt>
</event>
<event>
 6    1  0.1773638E-005  0.1755471E+04  0.7818608E-02  0.8730345E-01
          2   -1    0    0  501    0  0.00000000000E+00  0.00000000000E+00  0.32179787194E+04  0.32179787194E+04  0.00000000000E+00 0. -1.
         -2   -1    0    0    0  501 -0.00000000000E+00 -0.00000000000E+00 -0.23941103415E+03  0.23941103415E+03  0.00000000000E+00 0.  1.
         23    2    1    2    0    0  0.49454211418E+03  0.15014955840E+03  0.28847380346E+04  0.29321081187E+04  0.91802499658E+02 0.  0.
         11    1    3    3    0    0  0.18172545389E+03  0.51260771312E+02  0.81925526041E+03  0.84073241223E+03  0.00000000000E+00 0.  1.
        -11    1    3    3    0    0  0.31281666029E+03  0.98888787084E+02  0.20654827742E+04  0.20913757065E+04  0.00000000000E+00 0. -1.
         22    1    1    2    0    0 -0.49454211418E+03 -0.15014955840E+03  0.93829650678E+02  0.52528163487E+03  0.00000000000E+00 0. -1.
<mgrwt>
<rscale>  0 0.17554710E+04</rscale>
<asrwt>0</asrwt>
<pdfrwt beam="1">  1        2 0.49507362E+00 0.17554710E+04</pdfrwt>
<pdfrwt beam="2">  1       -2 0.36832469E-01 0.17554710E+04</pdfrwt>
<totfact> 0.83544318E+00</totfact>
</mgrwt>
</event>
<event>
 6    1  0.1773638E-005  0.1475173E+04  0.7818608E-02  0.8901132E-01
          2   -1    0    0  501    0  0.00000000000E+00  0.00000000000E+00  0.25943467081E+04  0.25943467081E+04  0.00000000000E+00 0. -1.
         -2   -1    0    0    0  501 -0.00000000000E+00 -0.00000000000E+00 -0.20969982983E+03  0.20969982983E+03  0.00000000000E+00 0.  1.
         23    2    1    2    0    0  0.27651683406E+03  0.28002433974E+03  0.17528922044E+02  0.40443769292E+03  0.91582716579E+02 0.  0.
         13    1    3    3    0    0  0.96193837074E+02  0.11703835757E+03  0.49273156989E+02  0.15930811478E+03  0.00000000000E+00 0. -1.
        -13    1    3    3    0    0  0.18032299699E+03  0.16298598217E+03 -0.31744234944E+02  0.24512957814E+03  0.00000000000E+00 0.  1.
         22    1    1    2    0    0 -0.27651683406E+03 -0.28002433974E+03  0.23671179563E+04  0.23996088450E+04  0.00000000000E+00 0. -1.
<mgrwt>
<rscale>  0 0.14751733E+04</rscale>
<asrwt>0</asrwt>
<pdfrwt beam="1">  1        2 0.39913024E+00 0.14751733E+04</pdfrwt>
<pdfrwt beam="2">  1       -2 0.32261514E-01 0.14751733E+04</pdfrwt>
<totfact> 0.26652850E+01</totfact>
</mgrwt>
</event>
<event>
 6    1  0.2239755E-005  0.3958277E+04  0.7818608E-02  0.8013017E-01
         -2   -1    0    0    0  501 -0.00000000000E+00  0.00000000000E+00  0.19828000813E+04  0.19828000813E+04  0.00000000000E+00 0.  1.
          2   -1    0    0  501    0  0.00000000000E+00 -0.00000000000E+00 -0.19754839964E+04  0.19754839964E+04  0.00000000000E+00 0. -1.
         23    2    1    2    0    0 -0.63208586458E+03 -0.78696207128E+03 -0.16977347663E+04  0.19768602849E+04  0.82652327799E+02 0.  0.
         13    1    3    3    0    0 -0.24932605070E+03 -0.37578435125E+03 -0.76268595958E+03  0.88604019725E+03  0.00000000000E+00 0.  1.
        -13    1    3    3    0    0 -0.38275981388E+03 -0.41117772003E+03 -0.93504880672E+03  0.10908200876E+04  0.00000000000E+00 0. -1.
         22    1    1    2    0    0  0.63208586458E+03  0.78696207128E+03  0.17050508512E+04  0.19814237929E+04  0.00000000000E+00 0.  1.
<mgrwt>
<rscale>  0 0.39582773E+04</rscale>
<asrwt>0</asrwt>
<pdfrwt beam="1">  1        2 0.30392061E+00 0.39582773E+04</pdfrwt>
<pdfrwt beam="2">  1       -2 0.30504617E+00 0.39582773E+04</pdfrwt>
<totfact> 0.16152396E-01</totfact>
</mgrwt>
</event>
<event>
 6    1  0.1773638E-005  0.2156560E+04  0.7818608E-02  0.8536729E-01
          1   -1    0    0  501    0  0.00000000000E+00  0.00000000000E+00  0.13560361992E+04  0.13560361992E+04  0.00000000000E+00 0. -1.
         -1   -1    0    0    0  501 -0.00000000000E+00 -0.00000000000E+00 -0.85741679423E+03  0.85741679423E+03  0.00000000000E+00 0.  1.
         23    2    1    2    0    0  0.47909255292E+03  0.12965503552E+03  0.12301595106E+04  0.13294331811E+04  0.88091196629E+02 0.  0.
         13    1    3    3    0    0  0.37231604651E+03  0.10122586253E+03  0.84857692381E+03  0.93217418402E+03  0.00000000000E+00 0.  1.
        -13    1    3    3    0    0  0.10677650641E+03  0.28429172988E+02  0.38158258680E+03  0.39725899706E+03  0.00000000000E+00 0. -1.
         22    1    1    2    0    0 -0.47909255292E+03 -0.12965503552E+03 -0.73154010562E+03  0.88401981236E+03  0.00000000000E+00 0.  1.
<mgrwt>
<rscale>  0 0.21565604E+04</rscale>
<asrwt>0</asrwt>
<pdfrwt beam="1">  1        1 0.20862095E+00 0.21565604E+04</pdfrwt>
<pdfrwt beam="2">  1       -1 0.13191028E+00 0.21565604E+04</pdfrwt>
<totfact> 0.36909295E+00</totfact>
</mgrwt>
</event>
<event>
 6    1  0.2172808E-005  0.5086755E+04  0.7818608E-02  0.7815262E-01
          2   -1    0    0  501    0  0.00000000000E+00  0.00000000000E+00  0.27367233448E+04  0.27367233448E+04  0.00000000000E+00 0. -1.
         -2   -1    0    0    0  501 -0.00000000000E+00 -0.00000000000E+00 -0.23636916021E+04  0.23636916021E+04  0.00000000000E+00 0.  1.
         23    2    1    2    0    0 -0.31217064093E+03  0.67481183837E+03  0.26245256952E+04  0.27293294267E+04  0.91008068930E+02 0.  0.
         13    1    3    3    0    0 -0.23469135860E+03  0.55332495107E+03  0.19978212006E+04  0.20862737320E+04  0.00000000000E+00 0. -1.
        -13    1    3    3    0    0 -0.77479282334E+02  0.12148688730E+03  0.62670449453E+03  0.64305569467E+03  0.00000000000E+00 0.  1.
         22    1    1    2    0    0  0.31217064093E+03 -0.67481183837E+03 -0.22514939524E+04  0.23710855202E+04  0.00000000000E+00 0.  1.
<mgrwt>
<rscale>  0 0.50867553E+04</rscale>
<asrwt>0</asrwt>
<pdfrwt beam="1">  1        2 0.42103436E+00 0.50867553E+04</pdfrwt>
<pdfrwt beam="2">  1       -2 0.36364486E+00 0.50867553E+04</pdfrwt>
<totfact> 0.23271625E-02</totfact>
</mgrwt>
</event>
<event>
 6    1  0.1773638E-005  0.5451795E+03  0.7818608E-02  0.1002616E+00
         -1   -1    0    0    0  501 -0.00000000000E+00  0.00000000000E+00  0.17288907469E+03  0.17288907469E+03  0.00000000000E+00 0.  1.
          1   -1    0    0  501    0  0.00000000000E+00 -0.00000000000E+00 -0.42978524499E+03  0.42978524499E+03  0.00000000000E+00 0. -1.
         23    2    1    2    0    0 -0.22226026933E+03 -0.89017302434E+02 -0.65649713460E+01  0.25627943428E+03  0.91172046878E+02 0.  0.
         13    1    3    3    0    0 -0.12528016199E+03 -0.31019766250E+02  0.38411655103E+02  0.13465808604E+03  0.00000000000E+00 0.  1.
        -13    1    3    3    0    0 -0.96980107340E+02 -0.57997536184E+02 -0.44976626449E+02  0.12162134825E+03  0.00000000000E+00 0. -1.
         22    1    1    2    0    0  0.22226026933E+03  0.89017302434E+02 -0.25033119896E+03  0.34639488540E+03  0.00000000000E+00 0. -1.
<mgrwt>
<rscale>  0 0.54517951E+03</rscale>
<asrwt>0</asrwt>
<pdfrwt beam="1">  1        1 0.66120806E-01 0.54517951E+03</pdfrwt>
<pdfrwt beam="2">  1       -1 0.26598320E-01 0.54517951E+03</pdfrwt>
<totfact> 0.69107592E+02</totfact>
</mgrwt>
</event>
<event>
 6    1  0.1773638E-005  0.1271889E+04  0.7818608E-02  0.9052159E-01
         -2   -1    0    0    0  501 -0.00000000000E+00  0.00000000000E+00  0.59511107677E+03  0.59511107677E+03  0.00000000000E+00 0.  1.
          2   -1    0    0  501    0  0.00000000000E+00 -0.00000000000E+00 -0.67958000232E+03  0.67958000232E+03  0.00000000000E+00 0. -1.
         23    2    1    2    0    0  0.14666018770E+03 -0.18255007393E+03 -0.63201831823E+03  0.67917107307E+03  0.83620881171E+02 0.  0.
         11    1    3    3    0    0  0.16141999136E+02  0.77085026085E+01 -0.48589733392E+02  0.51777865345E+02  0.00000000000E+00 0.  1.
        -11    1    3    3    0    0  0.13051818857E+03 -0.19025857654E+03 -0.58342858484E+03  0.62739320773E+03  0.00000000000E+00 0. -1.
         22    1    1    2    0    0 -0.14666018770E+03  0.18255007393E+03  0.54754939268E+03  0.59552000602E+03  0.00000000000E+00 0.  1.
<mgrwt>
<rscale>  0 0.12718893E+04</rscale>
<asrwt>0</asrwt>
<pdfrwt beam="1">  1        2 0.10455077E+00 0.12718893E+04</pdfrwt>
<pdfrwt beam="2">  1       -2 0.91555550E-01 0.12718893E+04</pdfrwt>
<totfact> 0.42442988E+01</totfact>
</mgrwt>
</event>
<event>
 6    1  0.1773638E-005  0.2685063E+04  0.7818608E-02  0.8339868E-01
         -1   -1    0    0    0  501 -0.00000000000E+00  0.00000000000E+00  0.11519968406E+04  0.11519968406E+04  0.00000000000E+00 0.  1.
          1   -1    0    0  501    0  0.00000000000E+00 -0.00000000000E+00 -0.15645792125E+04  0.15645792125E+04  0.00000000000E+00 0. -1.
         23    2    1    2    0    0 -0.98092836684E+03  0.60421232306E+03 -0.90095642741E+03  0.14652558662E+04  0.89214780140E+02 0.  0.
         13    1    3    3    0    0 -0.51195088872E+03  0.36740239024E+03 -0.48762824877E+03  0.79678073384E+03  0.00000000000E+00 0. -1.
        -13    1    3    3    0    0 -0.46897747813E+03  0.23680993282E+03 -0.41332817863E+03  0.66847513231E+03  0.00000000000E+00 0.  1.
         22    1    1    2    0    0  0.98092836684E+03 -0.60421232306E+03  0.48837405546E+03  0.12513201869E+04  0.00000000000E+00 0.  1.
<mgrwt>
<rscale>  0 0.26850626E+04</rscale>
<asrwt>0</asrwt>
<pdfrwt beam="1">  1        1 0.24070450E+00 0.26850626E+04</pdfrwt>
<pdfrwt beam="2">  1       -1 0.17723028E+00 0.26850626E+04</pdfrwt>
<totfact> 0.11245284E+00</totfact>
</mgrwt>
</event>
<event>
 6    1  0.1773638E-005  0.3169118E+04  0.7818608E-02  0.8197021E-01
          2   -1    0    0  501    0  0.00000000000E+00  0.00000000000E+00  0.44289859342E+04  0.44289859342E+04  0.00000000000E+00 0. -1.
         -2   -1    0    0    0  501 -0.00000000000E+00 -0.00000000000E+00 -0.56690796656E+03  0.56690796656E+03  0.00000000000E+00 0.  1.
         23    2    1    2    0    0 -0.95993286055E+03  0.67226962125E+03  0.36108378169E+04  0.37973367875E+04  0.90550523750E+02 0.  0.
         11    1    3    3    0    0 -0.25228646595E+03  0.21897627309E+03  0.10982520499E+04  0.11479358145E+04  0.00000000000E+00 0.  1.
        -11    1    3    3    0    0 -0.70764639460E+03  0.45329334817E+03  0.25125857670E+04  0.26494009730E+04  0.00000000000E+00 0. -1.
         22    1    1    2    0    0  0.95993286055E+03 -0.67226962125E+03  0.25124015076E+03  0.11985571133E+04  0.00000000000E+00 0. -1.
<mgrwt>
<rscale>  0 0.31691181E+04</rscale>
<asrwt>0</asrwt>
<pdfrwt beam="1">  1        2 0.68138243E+00 0.31691181E+04</pdfrwt>
<pdfrwt beam="2">  1       -2 0.87216613E-01 0.31691181E+04</pdfrwt>
<totfact> 0.13788585E-01</totfact>
</mgrwt>
</event>
<event>
 6    1  0.1773638E-005  0.3719757E+04  0.7818608E-02  0.8063598E-01
         -1   -1    0    0    0  501 -0.00000000000E+00  0.00000000000E+00  0.11957114051E+04  0.11957114051E+04  0.00000000000E+00 0.  1.
          1   -1    0    0  501    0  0.00000000000E+00 -0.00000000000E+00 -0.28929622559E+04  0.28929622559E+04  0.00000000000E+00 0. -1.
         23    2    1    2    0    0 -0.93860785657E+03 -0.12222128391E+03 -0.26074978188E+04  0.27754820171E+04  0.91284179776E+02 0.  0.
         11    1    3    3    0    0 -0.77536009048E+03 -0.68183060456E+02 -0.21729481208E+04  0.23081455186E+04  0.00000000000E+00 0.  1.
        -11    1    3    3    0    0 -0.16324776609E+03 -0.54038223459E+02 -0.43454969807E+03  0.46733649849E+03  0.00000000000E+00 0. -1.
         22    1    1    2    0    0  0.93860785657E+03  0.12222128391E+03  0.91024696810E+03  0.13131916439E+04  0.00000000000E+00 0.  1.
<mgrwt>
<rscale>  0 0.37197570E+04</rscale>
<asrwt>0</asrwt>
<pdfrwt beam="1">  1        1 0.44507111E+00 0.37197570E+04</pdfrwt>
<pdfrwt beam="2">  1       -1 0.18395560E+00 0.37197570E+04</pdfrwt>
<totfact> 0.11157975E-01</totfact>
</mgrwt>
</event>
<event>
 6    1  0.1773638E-005  0.2008145E+04  0.7818608E-02  0.8602822E-01
         -2   -1    0    0    0  501 -0.00000000000E+00  0.00000000000E+00  0.11429833977E+04  0.11429833977E+04  0.00000000000E+00 0.  1.
          2   -1    0    0  501    0  0.00000000000E+00 -0.00000000000E+00 -0.88204360251E+03  0.88204360251E+03  0.00000000000E+00 0. -1.
         23    2    1    2    0    0  0.62122035056E+01  0.62325746045E+03 -0.66025949244E+03  0.91277856529E+03  0.93454044383E+02 0.  0.
         13    1    3    3    0    0 -0.13203719145E+02  0.94345424273E+02 -0.14935625008E+03  0.17715159248E+03  0.00000000000E+00 0. -1.
        -13    1    3    3    0    0  0.19415922650E+02  0.52891203618E+03 -0.51090324236E+03  0.73562697281E+03  0.00000000000E+00 0.  1.
         22    1    1    2    0    0 -0.62122035056E+01 -0.62325746045E+03  0.92119928766E+03  0.11122484350E+04  0.00000000000E+00 0.  1.
<mgrwt>
<rscale>  0 0.20081446E+04</rscale>
<asrwt>0</asrwt>
<pdfrwt beam="1">  1        2 0.13569902E+00 0.20081446E+04</pdfrwt>
<pdfrwt beam="2">  1       -2 0.17584360E+00 0.20081446E+04</pdfrwt>
<totfact> 0.54251661E+00</totfact>
</mgrwt>
</event>
<event>
 6    1  0.1773638E-005  0.2312971E+04  0.7818608E-02  0.8472824E-01
          2   -1    0    0  501    0  0.00000000000E+00  0.00000000000E+00  0.19196720754E+04  0.19196720754E+04  0.00000000000E+00 0. -1.
         -2   -1    0    0    0  501 -0.00000000000E+00 -0.00000000000E+00 -0.69671219905E+03  0.69671219905E+03  0.00000000000E+00 0.  1.
         23    2    1    2    0    0  0.91229909664E+03  0.52671973558E+03  0.77423170094E+02  0.10601138394E+04  0.90131479852E+02 0.  0.
         11    1    3    3    0    0  0.24859948794E+03  0.16984851198E+03 -0.11647705883E+02  0.30130697217E+03  0.00000000000E+00 0. -1.
        -11    1    3    3    0    0  0.66369960871E+03  0.35687122360E+03  0.89070875977E+02  0.75880686725E+03  0.00000000000E+00 0.  1.
         22    1    1    2    0    0 -0.91229909664E+03 -0.52671973558E+03  0.11455367062E+04  0.15562704350E+04  0.00000000000E+00 0. -1.
<mgrwt>
<rscale>  0 0.23129712E+04</rscale>
<asrwt>0</asrwt>
<pdfrwt beam="1">  1        2 0.29533416E+00 0.23129712E+04</pdfrwt>
<pdfrwt beam="2">  1       -2 0.10718649E+00 0.23129712E+04</pdfrwt>
<totfact> 0.46909263E+00</totfact>
</mgrwt>
</event>
<event>
 6    1  0.1773638E-005  0.8100973E+04  0.7818608E-02  0.7473452E-01
          2   -1    0    0  501    0  0.00000000000E+00  0.00000000000E+00  0.48613328139E+04  0.48613328139E+04  0.00000000000E+00 0. -1.
         -2   -1    0    0    0  501 -0.00000000000E+00 -0.00000000000E+00 -0.33748853418E+04  0.33748853418E+04  0.00000000000E+00 0.  1.
         23    2    1    2    0    0 -0.26035889241E+04 -0.29759390388E+04 -0.14731960863E+03  0.39578909916E+04  0.91156933766E+02 0.  0.
         13    1    3    3    0    0 -0.20246914294E+04 -0.23158474118E+04 -0.76683936696E+02  0.30770773545E+04  0.00000000000E+00 0. -1.
        -13    1    3    3    0    0 -0.57889749472E+03 -0.66009162692E+03 -0.70635671931E+02  0.88081363719E+03  0.00000000000E+00 0.  1.
         22    1    1    2    0    0  0.26035889241E+04  0.29759390388E+04  0.16337670808E+04  0.42783271640E+04  0.00000000000E+00 0. -1.
<mgrwt>
<rscale>  0 0.81009730E+04</rscale>
<asrwt>0</asrwt>
<pdfrwt beam="1">  1        2 0.74789736E+00 0.81009730E+04</pdfrwt>
<pdfrwt beam="2">  1       -2 0.51921313E+00 0.81009730E+04</pdfrwt>
<totfact> 0.36714947E-05</totfact>
</mgrwt>
</event>
<event>
 6    1  0.1773638E-005  0.3344713E+04  0.7818608E-02  0.8151610E-01
          2   -1    0    0  501    0  0.00000000000E+00  0.00000000000E+00  0.11310542456E+04  0.11310542456E+04  0.00000000000E+00 0.  1.
         -2   -1    0    0    0  501 -0.00000000000E+00 -0.00000000000E+00 -0.24727166256E+04  0.24727166256E+04  0.00000000000E+00 0. -1.
         23    2    1    2    0    0 -0.77068687833E+03 -0.48822588650E+03 -0.21798480869E+04  0.23648689138E+04  0.92436555606E+02 0.  0.
         11    1    3    3    0    0 -0.31909701524E+03 -0.24898993427E+03 -0.90374088677E+03  0.99023556941E+03  0.00000000000E+00 0.  1.
        -11    1    3    3    0    0 -0.45158986309E+03 -0.23923595223E+03 -0.12761072001E+04  0.13746333444E+04  0.00000000000E+00 0. -1.
         22    1    1    2    0    0  0.77068687833E+03  0.48822588650E+03  0.83818570698E+03  0.12389019574E+04  0.00000000000E+00 0.  1.
<mgrwt>
<rscale>  0 0.33447132E+04</rscale>
<asrwt>0</asrwt>
<pdfrwt beam="1">  1        2 0.17400834E+00 0.33447132E+04</pdfrwt>
<pdfrwt beam="2">  1       -2 0.38041794E+00 0.33447132E+04</pdfrwt>
<totfact> 0.17251707E-01</totfact>
</mgrwt>
</event>
<event>
 6    1  0.1773638E-005  0.1898650E+04  0.7818608E-02  0.8655529E-01
         -2   -1    0    0    0  501 -0.00000000000E+00  0.00000000000E+00  0.71124374892E+03  0.71124374892E+03  0.00000000000E+00 0.  1.
          2   -1    0    0  501    0  0.00000000000E+00 -0.00000000000E+00 -0.12671016737E+04  0.12671016737E+04  0.00000000000E+00 0. -1.
         23    2    1    2    0    0 -0.35227694538E+03  0.75416788268E+03 -0.74949446900E+03  0.11237324385E+04  0.90357028969E+02 0.  0.
         11    1    3    3    0    0 -0.45546395997E+02  0.16455276140E+03 -0.18482348689E+03  0.25161837528E+03  0.00000000000E+00 0.  1.
        -11    1    3    3    0    0 -0.30673054938E+03  0.58961512129E+03 -0.56467098211E+03  0.87211406319E+03  0.00000000000E+00 0. -1.
         22    1    1    2    0    0  0.35227694538E+03 -0.75416788268E+03  0.19363654417E+03  0.85461298420E+03  0.00000000000E+00 0.  1.
<mgrwt>
<rscale>  0 0.18986502E+04</rscale>
<asrwt>0</asrwt>
<pdfrwt beam="1">  1        2 0.19493872E+00 0.18986502E+04</pdfrwt>
<pdfrwt beam="2">  1       -2 0.10942212E+00 0.18986502E+04</pdfrwt>
<totfact> 0.10773868E+01</totfact>
</mgrwt>
</event>
<event>
 6    1  0.1773638E-005  0.4277402E+04  0.7818608E-02  0.7950810E-01
          2   -1    0    0  501    0  0.00000000000E+00  0.00000000000E+00  0.23861695707E+04  0.23861695707E+04  0.00000000000E+00 0. -1.
         -2   -1    0    0    0  501 -0.00000000000E+00 -0.00000000000E+00 -0.19168971103E+04  0.19168971103E+04  0.00000000000E+00 0.  1.
         23    2    1    2    0    0 -0.16312139357E+04 -0.35745124120E+03  0.15774086601E+04  0.22989219430E+04  0.90519196256E+02 0.  0.
         13    1    3    3    0    0 -0.46819573329E+03 -0.61607758051E+02  0.43516446855E+03  0.64216109755E+03  0.00000000000E+00 0. -1.
        -13    1    3    3    0    0 -0.11630182025E+04 -0.29584348315E+03  0.11422441916E+04  0.16567608454E+04  0.00000000000E+00 0.  1.
         22    1    1    2    0    0  0.16312139357E+04  0.35745124120E+03 -0.11081361996E+04  0.20041447380E+04  0.00000000000E+00 0.  1.
<mgrwt>
<rscale>  0 0.42774018E+04</rscale>
<asrwt>0</asrwt>
<pdfrwt beam="1">  1        2 0.36710301E+00 0.42774018E+04</pdfrwt>
<pdfrwt beam="2">  1       -2 0.29490725E+00 0.42774018E+04</pdfrwt>
<totfact> 0.10665872E-01</totfact>
</mgrwt>
</event>
<event>
 6    1  0.1773638E-005  0.2887665E+04  0.7818608E-02  0.8276557E-01
          1   -1    0    0  501    0  0.00000000000E+00  0.00000000000E+00  0.12783012908E+04  0.12783012908E+04  0.00000000000E+00 0. -1.
         -1   -1    0    0    0  501 -0.00000000000E+00 -0.00000000000E+00 -0.16307985945E+04  0.16307985945E+04  0.00000000000E+00 0.  1.
         23    2    1    2    0    0  0.53991985189E+03  0.11937958923E+04  0.43132242756E+03  0.13823269978E+04  0.90148840657E+02 0.  0.
         11    1    3    3    0    0  0.25487544503E+03  0.51516468898E+03  0.14707556908E+03  0.59328523686E+03  0.00000000000E+00 0.  1.
        -11    1    3    3    0    0  0.28504440685E+03  0.67863120329E+03  0.28424685848E+03  0.78904176095E+03  0.00000000000E+00 0. -1.
         22    1    1    2    0    0 -0.53991985189E+03 -0.11937958923E+04 -0.78381973123E+03  0.15267728875E+04  0.00000000000E+00 0.  1.
<mgrwt>
<rscale>  0 0.28876648E+04</rscale>
<asrwt>0</asrwt>
<pdfrwt beam="1">  1        1 0.19666174E+00 0.28876648E+04</pdfrwt>
<pdfrwt beam="2">  1       -1 0.25089209E+00 0.28876648E+04</pdfrwt>
<totfact> 0.55416460E-01</totfact>
</mgrwt>
</event>
<event>
 6    1  0.1773638E-005  0.8684705E+03  0.7818608E-02  0.9465876E-01
         -1   -1    0    0    0  501 -0.00000000000E+00  0.00000000000E+00  0.41538511995E+03  0.41538511995E+03  0.00000000000E+00 0. -1.
          1   -1    0    0  501    0  0.00000000000E+00 -0.00000000000E+00 -0.45394080185E+03  0.45394080185E+03  0.00000000000E+00 0.  1.
         23    2    1    2    0    0  0.16145617420E+03  0.10102997357E+03  0.36541258962E+03  0.42271029720E+03  0.94246925478E+02 0.  0.
         13    1    3    3    0    0  0.76674418489E+02  0.38176900152E+02  0.25917143657E+03  0.27295837721E+03  0.00000000000E+00 0.  1.
        -13    1    3    3    0    0  0.84781755715E+02  0.62853073417E+02  0.10624115305E+03  0.14975191999E+03  0.00000000000E+00 0. -1.
         22    1    1    2    0    0 -0.16145617420E+03 -0.10102997357E+03 -0.40396827151E+03  0.44661562460E+03  0.00000000000E+00 0.  1.
<mgrwt>
<rscale>  0 0.86847050E+03</rscale>
<asrwt>0</asrwt>
<pdfrwt beam="1">  1        1 0.69837046E-01 0.86847050E+03</pdfrwt>
<pdfrwt beam="2">  1       -1 0.63905403E-01 0.86847050E+03</pdfrwt>
<totfact> 0.12686943E+02</totfact>
</mgrwt>
</event>
<event>
 6    1  0.1773638E-005  0.2112087E+04  0.7818608E-02  0.8555938E-01
         -2   -1    0    0    0  501 -0.00000000000E+00  0.00000000000E+00  0.75596499363E+03  0.75596499363E+03  0.00000000000E+00 0.  1.
          2   -1    0    0  501    0  0.00000000000E+00 -0.00000000000E+00 -0.14752375844E+04  0.14752375844E+04  0.00000000000E+00 0. -1.
         23    2    1    2    0    0 -0.11315712465E+03 -0.66992286609E+02 -0.14651600929E+04  0.14738118816E+04  0.90193477015E+02 0.  0.
         13    1    3    3    0    0 -0.66212841767E+02 -0.61069245773E+02 -0.54150133687E+03  0.54894197419E+03  0.00000000000E+00 0.  1.
        -13    1    3    3    0    0 -0.46944282884E+02 -0.59230408357E+01 -0.92365875601E+03  0.92486990742E+03  0.00000000000E+00 0. -1.
         22    1    1    2    0    0  0.11315712465E+03  0.66992286609E+02  0.74588750207E+03  0.75739069645E+03  0.00000000000E+00 0.  1.
<mgrwt>
<rscale>  0 0.21120871E+04</rscale>
<asrwt>0</asrwt>
<pdfrwt beam="1">  1        2 0.22695962E+00 0.21120871E+04</pdfrwt>
<pdfrwt beam="2">  1       -2 0.11630231E+00 0.21120871E+04</pdfrwt>
<totfact> 0.69246922E+00</totfact>
</mgrwt>
</event>
<event>
 6    1  0.1773638E-005  0.4993900E+04  0.7818608E-02  0.7829449E-01
          1   -1    0    0  501    0  0.00000000000E+00  0.00000000000E+00  0.23946008001E+04  0.23946008001E+04  0.00000000000E+00 0. -1.
         -1   -1    0    0    0  501 -0.00000000000E+00 -0.00000000000E+00 -0.26036739569E+04  0.26036739569E+04  0.00000000000E+00 0.  1.
         23    2    1    2    0    0  0.21569366376E+04 -0.97641173297E+03  0.68643863774E+03  0.24669318516E+04  0.93804189333E+02 0.  0.
         11    1    3    3    0    0  0.34169789708E+03 -0.15005874025E+03  0.14389919587E+03  0.39997757058E+03  0.00000000000E+00 0. -1.
        -11    1    3    3    0    0  0.18152387405E+04 -0.82635299273E+03  0.54253944186E+03  0.20669542810E+04  0.00000000000E+00 0.  1.
         22    1    1    2    0    0 -0.21569366376E+04  0.97641173297E+03 -0.89551179456E+03  0.25313429055E+04  0.00000000000E+00 0. -1.
<mgrwt>
<rscale>  0 0.49939002E+04</rscale>
<asrwt>0</asrwt>
<pdfrwt beam="1">  1        1 0.36840013E+00 0.49939002E+04</pdfrwt>
<pdfrwt beam="2">  1       -1 0.40056522E+00 0.49939002E+04</pdfrwt>
<totfact> 0.82101177E-03</totfact>
</mgrwt>
</event>
<event>
 6    1  0.1773638E-005  0.1023241E+04  0.7818608E-02  0.9283415E-01
         -1   -1    0    0    0  501 -0.00000000000E+00  0.00000000000E+00  0.36476081818E+03  0.36476081818E+03  0.00000000000E+00 0.  1.
          1   -1    0    0  501    0  0.00000000000E+00 -0.00000000000E+00 -0.71760934938E+03  0.71760934938E+03  0.00000000000E+00 0. -1.
         23    2    1    2    0    0  0.10509594726E+02 -0.18183963601E+03  0.32329712995E+03  0.38212088345E+03  0.91209815987E+02 0.  0.
         11    1    3    3    0    0  0.45727397715E+02 -0.12239463093E+03  0.17385265836E+03  0.21747686636E+03  0.00000000000E+00 0. -1.
        -11    1    3    3    0    0 -0.35217802989E+02 -0.59445005074E+02  0.14944447159E+03  0.16464401709E+03  0.00000000000E+00 0.  1.
         22    1    1    2    0    0 -0.10509594726E+02  0.18183963601E+03 -0.67614566115E+03  0.70024928411E+03  0.00000000000E+00 0. -1.
<mgrwt>
<rscale>  0 0.10232415E+04</rscale>
<asrwt>0</asrwt>
<pdfrwt beam="1">  1        1 0.11040144E+00 0.10232415E+04</pdfrwt>
<pdfrwt beam="2">  1       -1 0.56117050E-01 0.10232415E+04</pdfrwt>
<totfact> 0.84366912E+01</totfact>
</mgrwt>
</event>
<event>
 6    1  0.1773638E-005  0.2397109E+04  0.7818608E-02  0.8440587E-01
         -2   -1    0    0    0  501 -0.00000000000E+00  0.00000000000E+00  0.75453521933E+03  0.75453521933E+03  0.00000000000E+00 0.  1.
          2   -1    0    0  501    0  0.00000000000E+00 -0.00000000000E+00 -0.19038640033E+04  0.19038640033E+04  0.00000000000E+00 0. -1.
         23    2    1    2    0    0  0.26978140173E+03  0.51763624508E+03  0.58385127105E+03  0.82956287400E+03  0.81012148946E+02 0.  0.
         13    1    3    3    0    0  0.11931415567E+03  0.31562375539E+03  0.33479629474E+03  0.47533438933E+03  0.00000000000E+00 0. -1.
        -13    1    3    3    0    0  0.15046724606E+03  0.20201248969E+03  0.24905497632E+03  0.35422848468E+03  0.00000000000E+00 0.  1.
         22    1    1    2    0    0 -0.26978140173E+03 -0.51763624508E+03 -0.17331800551E+04  0.18288363487E+04  0.00000000000E+00 0. -1.
<mgrwt>
<rscale>  0 0.23971086E+04</rscale>
<asrwt>0</asrwt>
<pdfrwt beam="1">  1        2 0.29290215E+00 0.23971086E+04</pdfrwt>
<pdfrwt beam="2">  1       -2 0.11608235E+00 0.23971086E+04</pdfrwt>
<totfact> 0.39167146E+00</totfact>
</mgrwt>
</event>
<event>
 6    1  0.1773638E-005  0.7328979E+03  0.7818608E-02  0.9662570E-01
          1   -1    0    0  501    0  0.00000000000E+00  0.00000000000E+00  0.49153231583E+03  0.49153231583E+03  0.00000000000E+00 0. -1.
         -1   -1    0    0    0  501 -0.00000000000E+00 -0.00000000000E+00 -0.27319632182E+03  0.27319632182E+03  0.00000000000E+00 0.  1.
         23    2    1    2    0    0  0.91857028979E+02 -0.97591997664E+02 -0.23855400749E+03  0.28858749760E+03  0.91721412444E+02 0.  0.
         13    1    3    3    0    0  0.39120674993E+02 -0.10188058454E+03 -0.15147975897E+03  0.18669814701E+03  0.00000000000E+00 0.  1.
        -13    1    3    3    0    0  0.52736353985E+02  0.42885868755E+01 -0.87074248517E+02  0.10188935059E+03  0.00000000000E+00 0. -1.
         22    1    1    2    0    0 -0.91857028979E+02  0.97591997664E+02  0.45689000150E+03  0.47614114005E+03  0.00000000000E+00 0. -1.
<mgrwt>
<rscale>  0 0.73289787E+03</rscale>
<asrwt>0</asrwt>
<pdfrwt beam="1">  1        1 0.75620356E-01 0.73289787E+03</pdfrwt>
<pdfrwt beam="2">  1       -1 0.42030203E-01 0.73289787E+03</pdfrwt>
<totfact> 0.25547528E+02</totfact>
</mgrwt>
</event>
<event>
 6    1  0.1773638E-005  0.2953003E+04  0.7818608E-02  0.8257280E-01
          1   -1    0    0  501    0  0.00000000000E+00  0.00000000000E+00  0.41352524650E+04  0.41352524650E+04  0.00000000000E+00 0. -1.
         -1   -1    0    0    0  501 -0.00000000000E+00 -0.00000000000E+00 -0.52718816663E+03  0.52718816663E+03  0.00000000000E+00 0.  1.
         23    2    1    2    0    0 -0.10561471293E+04  0.56186230760E+03  0.31682819431E+04  0.33878644152E+04  0.92080472411E+02 0.  0.
         11    1    3    3    0    0 -0.42340975811E+03  0.20730794747E+03  0.13687479591E+04  0.14476613498E+04  0.00000000000E+00 0. -1.
        -11    1    3    3    0    0 -0.63273737120E+03  0.35455436013E+03  0.17995339840E+04  0.19402030654E+04  0.00000000000E+00 0.  1.
         22    1    1    2    0    0  0.10561471293E+04 -0.56186230760E+03  0.43978235526E+03  0.12745762164E+04  0.00000000000E+00 0.  1.
<mgrwt>
<rscale>  0 0.29530027E+04</rscale>
<asrwt>0</asrwt>
<pdfrwt beam="1">  1        1 0.63619267E+00 0.29530027E+04</pdfrwt>
<pdfrwt beam="2">  1       -1 0.81105874E-01 0.29530027E+04</pdfrwt>
<totfact> 0.93895869E-02</totfact>
</mgrwt>
</event>
<event>
 6    1  0.1773638E-005  0.2543690E+04  0.7818608E-02  0.8387584E-01
         -2   -1    0    0    0  501 -0.00000000000E+00  0.00000000000E+00  0.59751645613E+03  0.59751645613E+03  0.00000000000E+00 0.  1.
          2   -1    0    0  501    0  0.00000000000E+00 -0.00000000000E+00 -0.27071884043E+04  0.27071884043E+04  0.00000000000E+00 0. -1.
         23    2    1    2    0    0 -0.44891676422E+03 -0.10492430910E+03  0.48132337407E+03  0.67301488407E+03  0.93495839013E+02 0.  0.
         11    1    3    3    0    0 -0.15079518147E+03 -0.76710538029E+02  0.20222275424E+03  0.26366216211E+03  0.00000000000E+00 0. -1.
        -11    1    3    3    0    0 -0.29812158276E+03 -0.28213771073E+02  0.27910061983E+03  0.40935272196E+03  0.00000000000E+00 0.  1.
         22    1    1    2    0    0  0.44891676422E+03  0.10492430910E+03 -0.25909953223E+04  0.26316899764E+04  0.00000000000E+00 0. -1.
<mgrwt>
<rscale>  0 0.25436899E+04</rscale>
<asrwt>0</asrwt>
<pdfrwt beam="1">  1        2 0.41649052E+00 0.25436899E+04</pdfrwt>
<pdfrwt beam="2">  1       -2 0.91925610E-01 0.25436899E+04</pdfrwt>
<totfact> 0.23509489E+00</totfact>
</mgrwt>
</event>
<event>
 6    1  0.1773638E-005  0.5350345E+03  0.7818608E-02  0.1005018E+00
          1   -1    0    0  501    0  0.00000000000E+00  0.00000000000E+00  0.87856946266E+03  0.87856946266E+03  0.00000000000E+00 0. -1.
         -1   -1    0    0    0  501 -0.00000000000E+00 -0.00000000000E+00 -0.81456812599E+02  0.81456812599E+02  0.00000000000E+00 0.  1.
         23    2    1    2    0    0 -0.18988362945E+03 -0.16444215154E+03  0.29283690486E+03  0.39665158544E+03  0.92097847129E+02 0.  0.
         11    1    3    3    0    0 -0.10766503425E+03 -0.12133092243E+03  0.12476316739E+03  0.20464310464E+03  0.00000000000E+00 0. -1.
        -11    1    3    3    0    0 -0.82218595192E+02 -0.43111229109E+02  0.16807373747E+03  0.19200848080E+03  0.00000000000E+00 0.  1.
         22    1    1    2    0    0  0.18988362945E+03  0.16444215154E+03  0.50427574520E+03  0.56337468982E+03  0.00000000000E+00 0. -1.
<mgrwt>
<rscale>  0 0.53503446E+03</rscale>
<asrwt>0</asrwt>
<pdfrwt beam="1">  1        1 0.13516453E+00 0.53503446E+03</pdfrwt>
<pdfrwt beam="2">  1       -1 0.12531818E-01 0.53503446E+03</pdfrwt>
<totfact> 0.84409992E+02</totfact>
</mgrwt>
</event>
<event>
 6    1  0.1773638E-005  0.2916523E+04  0.7818608E-02  0.8267978E-01
          2   -1    0    0  501    0  0.00000000000E+00  0.00000000000E+00  0.26699329521E+04  0.26699329521E+04  0.00000000000E+00 0. -1.
         -2   -1    0    0    0  501 -0.00000000000E+00 -0.00000000000E+00 -0.79647210844E+03  0.79647210844E+03  0.00000000000E+00 0.  1.
         23    2    1    2    0    0 -0.12745272366E+04  0.36080632362E+03  0.16582466168E+04  0.21244221830E+04  0.93738410567E+02 0.  0.
         13    1    3    3    0    0 -0.92251777585E+03  0.23556553311E+03  0.12445145088E+04  0.15669545398E+04  0.00000000000E+00 0.  1.
        -13    1    3    3    0    0 -0.35200946078E+03  0.12524079051E+03  0.41373210793E+03  0.55746764320E+03  0.00000000000E+00 0. -1.
         22    1    1    2    0    0  0.12745272366E+04 -0.36080632362E+03  0.21521422687E+03  0.13419828775E+04  0.00000000000E+00 0.  1.
<mgrwt>
<rscale>  0 0.29165234E+04</rscale>
<asrwt>0</asrwt>
<pdfrwt beam="1">  1        2 0.41075891E+00 0.29165234E+04</pdfrwt>
<pdfrwt beam="2">  1       -2 0.12253417E+00 0.29165234E+04</pdfrwt>
<totfact> 0.12017114E+00</totfact>
</mgrwt>
</event>
<event>
 6    1  0.1773638E-005  0.2732909E+04  0.7818608E-02  0.8324405E-01
         -2   -1    0    0    0  501 -0.00000000000E+00  0.00000000000E+00  0.11761540598E+04  0.11761540598E+04  0.00000000000E+00 0.  1.
          2   -1    0    0  501    0  0.00000000000E+00 -0.00000000000E+00 -0.15875453160E+04  0.15875453160E+04  0.00000000000E+00 0. -1.
         23    2    1    2    0    0  0.24111757863E+03 -0.85892622409E+03  0.83883434062E+03  0.12278100607E+04  0.89345111244E+02 0.  0.
         11    1    3    3    0    0  0.74444571829E+02 -0.22769664223E+03  0.17449609398E+03  0.29637247168E+03  0.00000000000E+00 0.  1.
        -11    1    3    3    0    0  0.16667300680E+03 -0.63122958186E+03  0.66433824664E+03  0.93143758898E+03  0.00000000000E+00 0. -1.
         22    1    1    2    0    0 -0.24111757863E+03  0.85892622409E+03 -0.12502255969E+04  0.15358893151E+04  0.00000000000E+00 0. -1.
<mgrwt>
<rscale>  0 0.27329090E+04</rscale>
<asrwt>0</asrwt>
<pdfrwt beam="1">  1        2 0.24423774E+00 0.27329090E+04</pdfrwt>
<pdfrwt beam="2">  1       -2 0.18094678E+00 0.27329090E+04</pdfrwt>
<totfact> 0.17713218E+00</totfact>
</mgrwt>
</event>
<event>
 6    1  0.1773638E-005  0.2258213E+04  0.7818608E-02  0.8494582E-01
          1   -1    0    0  501    0  0.00000000000E+00  0.00000000000E+00  0.75129251490E+03  0.75129251490E+03  0.00000000000E+00 0. -1.
         -1   -1    0    0    0  501 -0.00000000000E+00 -0.00000000000E+00 -0.16969178317E+04  0.16969178317E+04  0.00000000000E+00 0.  1.
         23    2    1    2    0    0 -0.26229209861E+03 -0.59863092737E+03 -0.14692464342E+04  0.16107527615E+04  0.93183915865E+02 0.  0.
         13    1    3    3    0    0 -0.25103684222E+02 -0.10005826925E+03 -0.31059859758E+03  0.32728174563E+03  0.00000000000E+00 0.  1.
        -13    1    3    3    0    0 -0.23718841439E+03 -0.49857265812E+03 -0.11586478366E+04  0.12834710159E+04  0.00000000000E+00 0. -1.
         22    1    1    2    0    0  0.26229209861E+03  0.59863092737E+03  0.52362111740E+03  0.83745758507E+03  0.00000000000E+00 0. -1.
<mgrwt>
<rscale>  0 0.22582132E+04</rscale>
<asrwt>0</asrwt>
<pdfrwt beam="1">  1        1 0.11558347E+00 0.22582132E+04</pdfrwt>
<pdfrwt beam="2">  1       -1 0.26106428E+00 0.22582132E+04</pdfrwt>
<totfact> 0.13085315E+00</totfact>
</mgrwt>
</event>
<event>
 6    1  0.1791868E-005  0.4715968E+04  0.7818608E-02  0.7873881E-01
          2   -1    0    0  501    0  0.00000000000E+00  0.00000000000E+00  0.26574418975E+04  0.26574418975E+04  0.00000000000E+00 0. -1.
         -2   -1    0    0    0  501 -0.00000000000E+00 -0.00000000000E+00 -0.20922707747E+04  0.20922707747E+04  0.00000000000E+00 0.  1.
         23    2    1    2    0    0  0.13595524996E+04  0.18890428506E+04  0.65821199164E+03  0.24204375716E+04  0.91701262351E+02 0.  0.
         11    1    3    3    0    0  0.89688729546E+03  0.12064692839E+04  0.46363015386E+03  0.15731903487E+04  0.00000000000E+00 0. -1.
        -11    1    3    3    0    0  0.46266520417E+03  0.68257356675E+03  0.19458183779E+03  0.84724722293E+03  0.00000000000E+00 0.  1.
         22    1    1    2    0    0 -0.13595524996E+04 -0.18890428506E+04 -0.93040868890E+02  0.23292751005E+04  0.00000000000E+00 0.  1.
<mgrwt>
<rscale>  0 0.47159678E+04</rscale>
<asrwt>0</asrwt>
<pdfrwt beam="1">  1        2 0.40883722E+00 0.47159678E+04</pdfrwt>
<pdfrwt beam="2">  1       -2 0.32188781E+00 0.47159678E+04</pdfrwt>
<totfact> 0.48850583E-02</totfact>
</mgrwt>
</event>
<event>
 6    1  0.1773638E-005  0.4346016E+03  0.7818608E-02  0.1032416E+00
         -2   -1    0    0    0  501 -0.00000000000E+00  0.00000000000E+00  0.12006448460E+04  0.12006448460E+04  0.00000000000E+00 0. -1.
          2   -1    0    0  501    0  0.00000000000E+00 -0.00000000000E+00 -0.39328558756E+02  0.39328558756E+02  0.00000000000E+00 0.  1.
         23    2    1    2    0    0  0.12061155978E+03  0.10504360156E+03  0.22804166556E+03  0.29309282831E+03  0.91209090511E+02 0.  0.
         11    1    3    3    0    0  0.72690938359E+02  0.10451227236E+03  0.20139951099E+03  0.23826151729E+03  0.00000000000E+00 0. -1.
        -11    1    3    3    0    0  0.47920621417E+02  0.53132920269E+00  0.26642154569E+02  0.54831311017E+02  0.00000000000E+00 0.  1.
         22    1    1    2    0    0 -0.12061155978E+03 -0.10504360156E+03  0.93327462165E+03  0.94688057642E+03  0.00000000000E+00 0. -1.
<mgrwt>
<rscale>  0 0.43460157E+03</rscale>
<asrwt>0</asrwt>
<pdfrwt beam="1">  1        2 0.60505484E-02 0.43460157E+03</pdfrwt>
<pdfrwt beam="2">  1       -2 0.18471456E+00 0.43460157E+03</pdfrwt>
<totfact> 0.22078247E+02</totfact>
</mgrwt>
</event>
<event>
 6    1  0.1773638E-005  0.3370922E+04  0.7818608E-02  0.8145080E-01
          2   -1    0    0  501    0  0.00000000000E+00  0.00000000000E+00  0.13393073850E+04  0.13393073850E+04  0.00000000000E+00 0. -1.
         -2   -1    0    0    0  501 -0.00000000000E+00 -0.00000000000E+00 -0.21210804632E+04  0.21210804632E+04  0.00000000000E+00 0.  1.
         23    2    1    2    0    0  0.10554199098E+04 -0.12693906268E+04 -0.73431877754E+03  0.18088686506E+04  0.86706278163E+02 0.  0.
         13    1    3    3    0    0  0.82712740871E+03 -0.98130164175E+03 -0.53195609011E+03  0.13892695722E+04  0.00000000000E+00 0.  1.
        -13    1    3    3    0    0  0.22829250109E+03 -0.28808898506E+03 -0.20236268743E+03  0.41959907844E+03  0.00000000000E+00 0. -1.
         22    1    1    2    0    0 -0.10554199098E+04  0.12693906268E+04 -0.47454300705E+02  0.16515191976E+04  0.00000000000E+00 0. -1.
<mgrwt>
<rscale>  0 0.33709220E+04</rscale>
<asrwt>0</asrwt>
<pdfrwt beam="1">  1        2 0.20604729E+00 0.33709220E+04</pdfrwt>
<pdfrwt beam="2">  1       -2 0.32632007E+00 0.33709220E+04</pdfrwt>
<totfact> 0.28489469E-01</totfact>
</mgrwt>
</event>
<event>
 6    1  0.1773638E-005  0.1376461E+04  0.7818608E-02  0.8971036E-01
          2   -1    0    0  501    0  0.00000000000E+00  0.00000000000E+00  0.10642180898E+04  0.10642180898E+04  0.00000000000E+00 0. -1.
         -2   -1    0    0    0  501 -0.00000000000E+00 -0.00000000000E+00 -0.44507886232E+03  0.44507886232E+03  0.00000000000E+00 0.  1.
         23    2    1    2    0    0 -0.21166367773E+03  0.54728451519E+03  0.69911234119E+03  0.91708284226E+03  0.89224553394E+02 0.  0.
         13    1    3    3    0    0 -0.85149034884E+02  0.11501156524E+03  0.16487505244E+03  0.21831582902E+03  0.00000000000E+00 0. -1.
        -13    1    3    3    0    0 -0.12651464285E+03  0.43227294995E+03  0.53423728875E+03  0.69876701325E+03  0.00000000000E+00 0.  1.
         22    1    1    2    0    0  0.21166367773E+03 -0.54728451519E+03 -0.79973113671E+02  0.59221410989E+03  0.00000000000E+00 0. -1.
<mgrwt>
<rscale>  0 0.13764606E+04</rscale>
<asrwt>0</asrwt>
<pdfrwt beam="1">  1        2 0.16372586E+00 0.13764606E+04</pdfrwt>
<pdfrwt beam="2">  1       -2 0.68473672E-01 0.13764606E+04</pdfrwt>
<totfact> 0.43615922E+01</totfact>
</mgrwt>
</event>
<event>
 6    1  0.1773638E-005  0.2097786E+04  0.7818608E-02  0.8562219E-01
         -2   -1    0    0    0  501 -0.00000000000E+00  0.00000000000E+00  0.48133290117E+03  0.48133290117E+03  0.00000000000E+00 0. -1.
          2   -1    0    0  501    0  0.00000000000E+00 -0.00000000000E+00 -0.22856878834E+04  0.22856878834E+04  0.00000000000E+00 0.  1.
         23    2    1    2    0    0 -0.19534068968E+03  0.10030609904E+04 -0.12041625967E+04  0.15818962194E+04  0.89993077716E+02 0.  0.
         11    1    3    3    0    0 -0.59910274044E+02  0.32603210720E+03 -0.45699075644E+03  0.56455887854E+03  0.00000000000E+00 0.  1.
        -11    1    3    3    0    0 -0.13543041563E+03  0.67702888318E+03 -0.74717184026E+03  0.10173373408E+04  0.00000000000E+00 0. -1.
         22    1    1    2    0    0  0.19534068968E+03 -0.10030609904E+04 -0.60019238555E+03  0.11851245652E+04  0.00000000000E+00 0. -1.
<mgrwt>
<rscale>  0 0.20977862E+04</rscale>
<asrwt>0</asrwt>
<pdfrwt beam="1">  1        2 0.35164429E+00 0.20977862E+04</pdfrwt>
<pdfrwt beam="2">  1       -2 0.74051216E-01 0.20977862E+04</pdfrwt>
<totfact> 0.69931459E+00</totfact>
</mgrwt>
</event>
<event>
 6    1  0.1773638E-005  0.3948284E+04  0.7818608E-02  0.8015061E-01
         -3   -1    0    0    0  501 -0.00000000000E+00  0.00000000000E+00  0.88798779416E+03  0.88798779416E+03  0.00000000000E+00 0.  1.
          3   -1    0    0  501    0  0.00000000000E+00 -0.00000000000E+00 -0.43888401928E+04  0.43888401928E+04  0.00000000000E+00 0. -1.
         23    2    1    2    0    0 -0.13616744640E+04  0.50802673688E+03  0.32378903156E+02  0.14563604837E+04  0.87686679852E+02 0.  0.
         13    1    3    3    0    0 -0.86258297017E+02  0.42383162580E+02 -0.17484402157E+02  0.97685877144E+02  0.00000000000E+00 0.  1.
        -13    1    3    3    0    0 -0.12754161670E+04  0.46564357430E+03  0.49863305313E+02  0.13586746066E+04  0.00000000000E+00 0. -1.
         22    1    1    2    0    0  0.13616744640E+04 -0.50802673688E+03 -0.35332313018E+04  0.38204675032E+04  0.00000000000E+00 0. -1.
<mgrwt>
<rscale>  0 0.39482839E+04</rscale>
<asrwt>0</asrwt>
<pdfrwt beam="1">  1        3 0.67520619E+00 0.39482839E+04</pdfrwt>
<pdfrwt beam="2">  1       -3 0.13661350E+00 0.39482839E+04</pdfrwt>
<totfact> 0.38420505E-04</totfact>
</mgrwt>
</event>
<event>
 6    1  0.2043622E-005  0.3396971E+04  0.7818608E-02  0.8138650E-01
          1   -1    0    0  501    0  0.00000000000E+00  0.00000000000E+00  0.12713329143E+04  0.12713329143E+04  0.00000000000E+00 0. -1.
         -1   -1    0    0    0  501 -0.00000000000E+00 -0.00000000000E+00 -0.22691556260E+04  0.22691556260E+04  0.00000000000E+00 0.  1.
         23    2    1    2    0    0 -0.73668089152E+03 -0.16515947664E+03 -0.20835683359E+04  0.22180589773E+04  0.92478255276E+02 0.  0.
         13    1    3    3    0    0 -0.47186719223E+03 -0.12958300073E+03 -0.12346844193E+04  0.13281174709E+04  0.00000000000E+00 0. -1.
        -13    1    3    3    0    0 -0.26481369930E+03 -0.35576475904E+02 -0.84888391663E+03  0.88994150644E+03  0.00000000000E+00 0.  1.
         22    1    1    2    0    0  0.73668089152E+03  0.16515947664E+03  0.10857456242E+04  0.13224295630E+04  0.00000000000E+00 0. -1.
<mgrwt>
<rscale>  0 0.33969706E+04</rscale>
<asrwt>0</asrwt>
<pdfrwt beam="1">  1        1 0.19558968E+00 0.33969706E+04</pdfrwt>
<pdfrwt beam="2">  1       -1 0.34910086E+00 0.33969706E+04</pdfrwt>
<totfact> 0.12289208E-01</totfact>
</mgrwt>
</event>
<event>
 6    1  0.1773638E-005  0.2456053E+04  0.7818608E-02  0.8418811E-01
         -2   -1    0    0    0  501 -0.00000000000E+00  0.00000000000E+00  0.55801726894E+03  0.55801726894E+03  0.00000000000E+00 0.  1.
          2   -1    0    0  501    0  0.00000000000E+00 -0.00000000000E+00 -0.27025132495E+04  0.27025132495E+04  0.00000000000E+00 0. -1.
         23    2    1    2    0    0 -0.45310193464E+03  0.11090684176E+04 -0.14208373877E+04  0.18608820350E+04  0.93642660037E+02 0.  0.
         13    1    3    3    0    0 -0.15049174977E+03  0.47280374793E+03 -0.55049269050E+03  0.74110279523E+03  0.00000000000E+00 0. -1.
        -13    1    3    3    0    0 -0.30261018487E+03  0.63626466970E+03 -0.87034469720E+03  0.11197792398E+04  0.00000000000E+00 0.  1.
         22    1    1    2    0    0  0.45310193464E+03 -0.11090684176E+04 -0.72365859289E+03  0.13996484835E+04  0.00000000000E+00 0.  1.
<mgrwt>
<rscale>  0 0.24560530E+04</rscale>
<asrwt>0</asrwt>
<pdfrwt beam="1">  1        2 0.41577126E+00 0.24560530E+04</pdfrwt>
<pdfrwt beam="2">  1       -2 0.85848812E-01 0.24560530E+04</pdfrwt>
<totfact> 0.27900133E+00</totfact>
</mgrwt>
</event>
<event>
 6    1  0.1773638E-005  0.2189355E+04  0.7818608E-02  0.8522872E-01
          1   -1    0    0  501    0  0.00000000000E+00  0.00000000000E+00  0.17800272624E+04  0.17800272624E+04  0.00000000000E+00 0. -1.
         -1   -1    0    0    0  501 -0.00000000000E+00 -0.00000000000E+00 -0.67320233991E+03  0.67320233991E+03  0.00000000000E+00 0.  1.
         23    2    1    2    0    0  0.23731326872E+03  0.88860482222E+03  0.12154889960E+04  0.15270849060E+04  0.92944569876E+02 0.  0.
         11    1    3    3    0    0  0.10605712496E+03  0.55715035317E+03  0.77665573464E+03  0.96169577307E+03  0.00000000000E+00 0. -1.
        -11    1    3    3    0    0  0.13125614377E+03  0.33145446905E+03  0.43883326137E+03  0.56538913292E+03  0.00000000000E+00 0.  1.
         22    1    1    2    0    0 -0.23731326872E+03 -0.88860482222E+03 -0.10866407355E+03  0.92614469629E+03  0.00000000000E+00 0.  1.
<mgrwt>
<rscale>  0 0.21893547E+04</rscale>
<asrwt>0</asrwt>
<pdfrwt beam="1">  1        1 0.27385035E+00 0.21893547E+04</pdfrwt>
<pdfrwt beam="2">  1       -1 0.10356959E+00 0.21893547E+04</pdfrwt>
<totfact> 0.33713243E+00</totfact>
</mgrwt>
</event>
<event>
 6    1  0.1773638E-005  0.1957404E+04  0.7818608E-02  0.8626798E-01
          2   -1    0    0  501    0  0.00000000000E+00  0.00000000000E+00  0.28019925059E+04  0.28019925059E+04  0.00000000000E+00 0. -1.
         -2   -1    0    0    0  501 -0.00000000000E+00 -0.00000000000E+00 -0.34184890725E+03  0.34184890725E+03  0.00000000000E+00 0.  1.
         23    2    1    2    0    0 -0.93140507397E+03  0.20401302709E+03  0.15717289315E+04  0.18406079928E+04  0.91483452453E+02 0.  0.
         13    1    3    3    0    0 -0.33057058164E+03  0.11744039851E+03  0.58039435599E+03  0.67817900669E+03  0.00000000000E+00 0. -1.
        -13    1    3    3    0    0 -0.60083449233E+03  0.86572628580E+02  0.99133457549E+03  0.11624289861E+04  0.00000000000E+00 0.  1.
         22    1    1    2    0    0  0.93140507397E+03 -0.20401302709E+03  0.88841466713E+03  0.13032334203E+04  0.00000000000E+00 0.  1.
<mgrwt>
<rscale>  0 0.19574045E+04</rscale>
<asrwt>0</asrwt>
<pdfrwt beam="1">  1        2 0.43107575E+00 0.19574045E+04</pdfrwt>
<pdfrwt beam="2">  1       -2 0.52592141E-01 0.19574045E+04</pdfrwt>
<totfact> 0.73460077E+00</totfact>
</mgrwt>
</event>
<event>
 6    1  0.1773638E-005  0.1277015E+04  0.7818608E-02  0.9047994E-01
         -1   -1    0    0    0  501 -0.00000000000E+00  0.00000000000E+00  0.11141016035E+04  0.11141016035E+04  0.00000000000E+00 0.  1.
          1   -1    0    0  501    0  0.00000000000E+00 -0.00000000000E+00 -0.36593755825E+03  0.36593755825E+03  0.00000000000E+00 0. -1.
         23    2    1    2    0    0  0.96716166072E+02  0.20942106789E+03  0.10620019612E+04  0.10905453390E+04  0.90718081954E+02 0.  0.
         13    1    3    3    0    0 -0.96321777151E+01  0.67565501496E+02  0.36659248188E+03  0.37289130267E+03  0.00000000000E+00 0. -1.
        -13    1    3    3    0    0  0.10634834379E+03  0.14185556639E+03  0.69540947935E+03  0.71765403636E+03  0.00000000000E+00 0.  1.
         22    1    1    2    0    0 -0.96716166072E+02 -0.20942106789E+03 -0.31383791595E+03  0.38949382273E+03  0.00000000000E+00 0. -1.
<mgrwt>
<rscale>  0 0.12770147E+04</rscale>
<asrwt>0</asrwt>
<pdfrwt beam="1">  1        1 0.56298086E-01 0.12770147E+04</pdfrwt>
<pdfrwt beam="2">  1       -1 0.17140024E+00 0.12770147E+04</pdfrwt>
<totfact> 0.15969949E+01</totfact>
</mgrwt>
</event>
<event>
 6    1  0.1773638E-005  0.6628149E+03  0.7818608E-02  0.9783026E-01
         -1   -1    0    0    0  501 -0.00000000000E+00  0.00000000000E+00  0.39757580465E+03  0.39757580465E+03  0.00000000000E+00 0.  1.
          1   -1    0    0  501    0  0.00000000000E+00 -0.00000000000E+00 -0.27625147878E+03  0.27625147878E+03  0.00000000000E+00 0. -1.
         23    2    1    2    0    0 -0.27432540566E+03  0.16481589242E+03  0.11944073537E+03  0.35379251266E+03  0.92110510633E+02 0.  0.
         11    1    3    3    0    0 -0.50000105010E+02  0.70606419649E+02  0.10295128424E+02  0.87127875367E+02  0.00000000000E+00 0. -1.
        -11    1    3    3    0    0 -0.22432530065E+03  0.94209472773E+02  0.10914560694E+03  0.26666463730E+03  0.00000000000E+00 0.  1.
         22    1    1    2    0    0  0.27432540566E+03 -0.16481589242E+03  0.18835905025E+01  0.32003477076E+03  0.00000000000E+00 0.  1.
<mgrwt>
<rscale>  0 0.66281492E+03</rscale>
<asrwt>0</asrwt>
<pdfrwt beam="1">  1        1 0.42500227E-01 0.66281492E+03</pdfrwt>
<pdfrwt beam="2">  1       -1 0.61165508E-01 0.66281492E+03</pdfrwt>
<totfact> 0.26852527E+02</totfact>
</mgrwt>
</event>
<event>
 6    1  0.2066375E-005  0.2306718E+04  0.7818608E-02  0.8475277E-01
          2   -1    0    0  501    0  0.00000000000E+00  0.00000000000E+00  0.12726198440E+04  0.12726198440E+04  0.00000000000E+00 0. -1.
         -2   -1    0    0    0  501 -0.00000000000E+00 -0.00000000000E+00 -0.10452743701E+04  0.10452743701E+04  0.00000000000E+00 0.  1.
         23    2    1    2    0    0 -0.16328622311E+03  0.55002104045E+03  0.11171493133E+04  0.12591513709E+04  0.90851807086E+02 0.  0.
         11    1    3    3    0    0 -0.42933711344E+02  0.29012250765E+03  0.52470326574E+03  0.60110555654E+03  0.00000000000E+00 0. -1.
        -11    1    3    3    0    0 -0.12035251176E+03  0.25989853280E+03  0.59244604760E+03  0.65804581433E+03  0.00000000000E+00 0.  1.
         22    1    1    2    0    0  0.16328622311E+03 -0.55002104045E+03 -0.88980383943E+03  0.10587428433E+04  0.00000000000E+00 0.  1.
<mgrwt>
<rscale>  0 0.23067179E+04</rscale>
<asrwt>0</asrwt>
<pdfrwt beam="1">  1        2 0.19578767E+00 0.23067179E+04</pdfrwt>
<pdfrwt beam="2">  1       -2 0.16081144E+00 0.23067179E+04</pdfrwt>
<totfact> 0.38618178E+00</totfact>
</mgrwt>
</event>
<event>
 6    1  0.1773638E-005  0.1471772E+04  0.7818608E-02  0.8903444E-01
          2   -1    0    0  501    0  0.00000000000E+00  0.00000000000E+00  0.95625280710E+03  0.95625280710E+03  0.00000000000E+00 0. -1.
         -2   -1    0    0    0  501 -0.00000000000E+00 -0.00000000000E+00 -0.56630242677E+03  0.56630242677E+03  0.00000000000E+00 0.  1.
         23    2    1    2    0    0 -0.17595172521E+03  0.34289386447E+02  0.93101841745E+03  0.95256453884E+03  0.91919178594E+02 0.  0.
         11    1    3    3    0    0 -0.88122764978E+01  0.53753310032E+01  0.26779706813E+03  0.26799593299E+03  0.00000000000E+00 0.  1.
        -11    1    3    3    0    0 -0.16713944871E+03  0.28914055443E+02  0.66322134931E+03  0.68456860584E+03  0.00000000000E+00 0. -1.
         22    1    1    2    0    0  0.17595172521E+03 -0.34289386447E+02 -0.54106803712E+03  0.56999069503E+03  0.00000000000E+00 0.  1.
<mgrwt>
<rscale>  0 0.14717721E+04</rscale>
<asrwt>0</asrwt>
<pdfrwt beam="1">  1        2 0.14711582E+00 0.14717721E+04</pdfrwt>
<pdfrwt beam="2">  1       -2 0.87123451E-01 0.14717721E+04</pdfrwt>
<totfact> 0.29662068E+01</totfact>
</mgrwt>
</event>
<event>
 6    1  0.1773638E-005  0.2137720E+04  0.7818608E-02  0.8544807E-01
          2   -1    0    0  501    0  0.00000000000E+00  0.00000000000E+00  0.11348683889E+04  0.11348683889E+04  0.00000000000E+00 0. -1.
         -2   -1    0    0    0  501 -0.00000000000E+00 -0.00000000000E+00 -0.10066905091E+04  0.10066905091E+04  0.00000000000E+00 0.  1.
         23    2    1    2    0    0 -0.55321889213E+03 -0.62558917271E+02  0.97588111590E+03  0.11273766969E+04  0.93110168737E+02 0.  0.
         11    1    3    3    0    0 -0.34082694120E+03 -0.52184902799E+02  0.51451383695E+03  0.61936318613E+03  0.00000000000E+00 0.  1.
        -11    1    3    3    0    0 -0.21239195093E+03 -0.10374014472E+02  0.46136727895E+03  0.50801351073E+03  0.00000000000E+00 0. -1.
         22    1    1    2    0    0  0.55321889213E+03  0.62558917271E+02 -0.84770323611E+03  0.10141822012E+04  0.00000000000E+00 0.  1.
<mgrwt>
<rscale>  0 0.21377196E+04</rscale>
<asrwt>0</asrwt>
<pdfrwt beam="1">  1        2 0.17459514E+00 0.21377196E+04</pdfrwt>
<pdfrwt beam="2">  1       -2 0.15487546E+00 0.21377196E+04</pdfrwt>
<totfact> 0.52416542E+00</totfact>
</mgrwt>
</event>
<event>
 6    1  0.1773638E-005  0.1781980E+04  0.7818608E-02  0.8715941E-01
          1   -1    0    0  501    0  0.00000000000E+00  0.00000000000E+00  0.60439587440E+03  0.60439587440E+03  0.00000000000E+00 0. -1.
         -1   -1    0    0    0  501 -0.00000000000E+00 -0.00000000000E+00 -0.13134825785E+04  0.13134825785E+04  0.00000000000E+00 0.  1.
         23    2    1    2    0    0 -0.49728919037E+03 -0.28249731229E+03  0.37715946131E+03  0.69026613537E+03  0.84361176384E+02 0.  0.
         11    1    3    3    0    0 -0.71708261098E+02 -0.64570841367E+02  0.93272929980E+02  0.13420621346E+03  0.00000000000E+00 0.  1.
        -11    1    3    3    0    0 -0.42558092927E+03 -0.21792647092E+03  0.28388653133E+03  0.55605992191E+03  0.00000000000E+00 0. -1.
         22    1    1    2    0    0  0.49728919037E+03  0.28249731229E+03 -0.10862461654E+04  0.12276123175E+04  0.00000000000E+00 0.  1.
<mgrwt>
<rscale>  0 0.17819803E+04</rscale>
<asrwt>0</asrwt>
<pdfrwt beam="1">  1        1 0.92983980E-01 0.17819803E+04</pdfrwt>
<pdfrwt beam="2">  1       -1 0.20207424E+00 0.17819803E+04</pdfrwt>
<totfact> 0.46631238E+00</totfact>
</mgrwt>
</event>
<event>
 6    1  0.1773638E-005  0.4743102E+03  0.7818608E-02  0.1020711E+00
          1   -1    0    0  501    0  0.00000000000E+00  0.00000000000E+00  0.45625964519E+03  0.45625964519E+03  0.00000000000E+00 0. -1.
         -1   -1    0    0    0  501 -0.00000000000E+00 -0.00000000000E+00 -0.12326870050E+03  0.12326870050E+03  0.00000000000E+00 0.  1.
         23    2    1    2    0    0 -0.92326409453E+02 -0.63802430125E+02  0.41605145526E+03  0.43990755788E+03  0.88458634871E+02 0.  0.
         11    1    3    3    0    0 -0.27826114966E+02 -0.40399592405E+02  0.30820208221E+03  0.31208162909E+03  0.00000000000E+00 0. -1.
        -11    1    3    3    0    0 -0.64500294487E+02 -0.23402837720E+02  0.10784937305E+03  0.12782592879E+03  0.00000000000E+00 0.  1.
         22    1    1    2    0    0  0.92326409453E+02  0.63802430125E+02 -0.83060510568E+02  0.13962078781E+03  0.00000000000E+00 0.  1.
<mgrwt>
<rscale>  0 0.47431017E+03</rscale>
<asrwt>0</asrwt>
<pdfrwt beam="1">  1        1 0.70193791E-01 0.47431017E+03</pdfrwt>
<pdfrwt beam="2">  1       -1 0.18964416E-01 0.47431017E+03</pdfrwt>
<totfact> 0.11251098E+03</totfact>
</mgrwt>
</event>
<event>
 6    1  0.1773638E-005  0.1877787E+04  0.7818608E-02  0.8665993E-01
          1   -1    0    0  501    0  0.00000000000E+00  0.00000000000E+00  0.11332358979E+04  0.11332358979E+04  0.00000000000E+00 0. -1.
         -1   -1    0    0    0  501 -0.00000000000E+00 -0.00000000000E+00 -0.77787940945E+03  0.77787940945E+03  0.00000000000E+00 0.  1.
         23    2    1    2    0    0 -0.44106384435E+03  0.66356623575E+03  0.67870862750E+03  0.10512234131E+04  0.97815127897E+02 0.  0.
         11    1    3    3    0    0 -0.17815314044E+03  0.19226713750E+03  0.19788724190E+03  0.32842739550E+03  0.00000000000E+00 0.  1.
        -11    1    3    3    0    0 -0.26291070391E+03  0.47129909825E+03  0.48082138561E+03  0.72279601763E+03  0.00000000000E+00 0. -1.
         22    1    1    2    0    0  0.44106384435E+03 -0.66356623575E+03 -0.32335213902E+03  0.85989189426E+03  0.00000000000E+00 0. -1.
<mgrwt>
<rscale>  0 0.18777869E+04</rscale>
<asrwt>0</asrwt>
<pdfrwt beam="1">  1        1 0.17434398E+00 0.18777869E+04</pdfrwt>
<pdfrwt beam="2">  1       -1 0.11967376E+00 0.18777869E+04</pdfrwt>
<totfact> 0.69946483E+00</totfact>
</mgrwt>
</event>
<event>
 6    1  0.1773638E-005  0.1207526E+04  0.7818608E-02  0.9106294E-01
          2   -1    0    0  501    0  0.00000000000E+00  0.00000000000E+00  0.23549934576E+03  0.23549934576E+03  0.00000000000E+00 0. -1.
         -2   -1    0    0    0  501 -0.00000000000E+00 -0.00000000000E+00 -0.15479016479E+04  0.15479016479E+04  0.00000000000E+00 0.  1.
         23    2    1    2    0    0 -0.24140349332E+03  0.47813861124E+03 -0.25971667705E+03  0.60228321655E+03  0.91652291046E+02 0.  0.
         13    1    3    3    0    0 -0.70558701952E+02  0.23012342005E+03 -0.92884316325E+02  0.25799770366E+03  0.00000000000E+00 0.  1.
        -13    1    3    3    0    0 -0.17084479136E+03  0.24801519120E+03 -0.16683236073E+03  0.34428551289E+03  0.00000000000E+00 0. -1.
         22    1    1    2    0    0  0.24140349332E+03 -0.47813861124E+03 -0.10526856251E+04  0.11811177771E+04  0.00000000000E+00 0.  1.
<mgrwt>
<rscale>  0 0.12075261E+04</rscale>
<asrwt>0</asrwt>
<pdfrwt beam="1">  1        2 0.36230668E-01 0.12075261E+04</pdfrwt>
<pdfrwt beam="2">  1       -2 0.23813872E+00 0.12075261E+04</pdfrwt>
<totfact> 0.10816401E+01</totfact>
</mgrwt>
</event>
<event>
 6    1  0.1773638E-005  0.3233837E+04  0.7818608E-02  0.8179938E-01
          1   -1    0    0  501    0  0.00000000000E+00  0.00000000000E+00  0.32578970687E+04  0.32578970687E+04  0.00000000000E+00 0. -1.
         -1   -1    0    0    0  501 -0.00000000000E+00 -0.00000000000E+00 -0.80248889687E+03  0.80248889687E+03  0.00000000000E+00 0.  1.
         23    2    1    2    0    0 -0.63050884452E+03  0.42171593108E+03  0.30198009356E+04  0.31149099365E+04  0.89891558784E+02 0.  0.
         13    1    3    3    0    0 -0.29364682329E+03  0.25036430278E+03  0.15373573393E+04  0.15850483682E+04  0.00000000000E+00 0. -1.
        -13    1    3    3    0    0 -0.33686202123E+03  0.17135162830E+03  0.14824435964E+04  0.15298615683E+04  0.00000000000E+00 0.  1.
         22    1    1    2    0    0  0.63050884452E+03 -0.42171593108E+03 -0.56439276384E+03  0.94547602900E+03  0.00000000000E+00 0.  1.
<mgrwt>
<rscale>  0 0.32338375E+04</rscale>
<asrwt>0</asrwt>
<pdfrwt beam="1">  1        1 0.50121493E+00 0.32338375E+04</pdfrwt>
<pdfrwt beam="2">  1       -1 0.12345983E+00 0.32338375E+04</pdfrwt>
<totfact> 0.18489055E-01</totfact>
</mgrwt>
</event>
<event>
 6    1  0.1773638E-005  0.4448576E+04  0.7818608E-02  0.7919702E-01
         -3   -1    0    0    0  501 -0.00000000000E+00  0.00000000000E+00  0.22839595530E+04  0.22839595530E+04  0.00000000000E+00 0.  1.
          3   -1    0    0  501    0  0.00000000000E+00 -0.00000000000E+00 -0.21661754176E+04  0.21661754176E+04  0.00000000000E+00 0. -1.
         23    2    1    2    0    0 -0.44932300457E+03 -0.21371776327E+04  0.47568597679E+03  0.22371024078E+04  0.94502054276E+02 0.  0.
         13    1    3    3    0    0 -0.19451382355E+03 -0.11404159246E+04  0.23514130651E+03  0.11805403604E+04  0.00000000000E+00 0. -1.
        -13    1    3    3    0    0 -0.25480918102E+03 -0.99676170812E+03  0.24054467028E+03  0.10565620474E+04  0.00000000000E+00 0.  1.
         22    1    1    2    0    0  0.44932300457E+03  0.21371776327E+04 -0.35790184136E+03  0.22130325628E+04  0.00000000000E+00 0.  1.
<mgrwt>
<rscale>  0 0.44485760E+04</rscale>
<asrwt>0</asrwt>
<pdfrwt beam="1">  1        3 0.33325776E+00 0.44485760E+04</pdfrwt>
<pdfrwt beam="2">  1       -3 0.35137839E+00 0.44485760E+04</pdfrwt>
<totfact> 0.97582264E-04</totfact>
</mgrwt>
</event>
<event>
 6    1  0.1773638E-005  0.3633296E+04  0.7818608E-02  0.8082907E-01
         -1   -1    0    0    0  501 -0.00000000000E+00  0.00000000000E+00  0.12782862006E+04  0.12782862006E+04  0.00000000000E+00 0.  1.
          1   -1    0    0  501    0  0.00000000000E+00 -0.00000000000E+00 -0.25817456414E+04  0.25817456414E+04  0.00000000000E+00 0. -1.
         23    2    1    2    0    0  0.15983523136E+04  0.80820238855E+03 -0.33672278033E+03  0.18247183552E+04  0.91069346295E+02 0.  0.
         11    1    3    3    0    0  0.15520985464E+03  0.49263008036E+02 -0.31702866501E+02  0.16589760301E+03  0.00000000000E+00 0.  1.
        -11    1    3    3    0    0  0.14431424589E+04  0.75893938051E+03 -0.30501991383E+03  0.16588207522E+04  0.00000000000E+00 0. -1.
         22    1    1    2    0    0 -0.15983523136E+04 -0.80820238855E+03 -0.96673666042E+03  0.20353134869E+04  0.00000000000E+00 0.  1.
<mgrwt>
<rscale>  0 0.36332959E+04</rscale>
<asrwt>0</asrwt>
<pdfrwt beam="1">  1        1 0.39719163E+00 0.36332959E+04</pdfrwt>
<pdfrwt beam="2">  1       -1 0.19665942E+00 0.36332959E+04</pdfrwt>
<totfact> 0.15215816E-01</totfact>
</mgrwt>
</event>
<event>
 6    1  0.1773638E-005  0.2441022E+04  0.7818608E-02  0.8424303E-01
         -2   -1    0    0    0  501 -0.00000000000E+00  0.00000000000E+00  0.17572262807E+04  0.17572262807E+04  0.00000000000E+00 0.  1.
          2   -1    0    0  501    0  0.00000000000E+00 -0.00000000000E+00 -0.84772609171E+03  0.84772609171E+03  0.00000000000E+00 0. -1.
         23    2    1    2    0    0  0.27464101298E+03  0.90527442909E+03 -0.36430034615E+03  0.10182837614E+04  0.96112426153E+02 0.  0.
         13    1    3    3    0    0  0.15502701627E+03  0.54242493953E+03 -0.26641433774E+03  0.62388684082E+03  0.00000000000E+00 0. -1.
        -13    1    3    3    0    0  0.11961399671E+03  0.36284948956E+03 -0.97886008404E+02  0.39439692054E+03  0.00000000000E+00 0.  1.
         22    1    1    2    0    0 -0.27464101298E+03 -0.90527442909E+03  0.12738005352E+04  0.15866686111E+04  0.00000000000E+00 0.  1.
<mgrwt>
<rscale>  0 0.24410216E+04</rscale>
<asrwt>0</asrwt>
<pdfrwt beam="1">  1        2 0.13041940E+00 0.24410216E+04</pdfrwt>
<pdfrwt beam="2">  1       -2 0.27034250E+00 0.24410216E+04</pdfrwt>
<totfact> 0.13769945E+00</totfact>
</mgrwt>
</event>
<event>
 6    1  0.1773638E-005  0.2200124E+04  0.7818608E-02  0.8518376E-01
         -2   -1    0    0    0  501 -0.00000000000E+00  0.00000000000E+00  0.60824385963E+03  0.60824385963E+03  0.00000000000E+00 0.  1.
          2   -1    0    0  501    0  0.00000000000E+00 -0.00000000000E+00 -0.19895583532E+04  0.19895583532E+04  0.00000000000E+00 0. -1.
         23    2    1    2    0    0 -0.22780095069E+02 -0.72655976117E+03 -0.16639492501E+04  0.18178724564E+04  0.86747573425E+02 0.  0.
         11    1    3    3    0    0 -0.54822323210E+02 -0.37658234124E+03 -0.87860484717E+03  0.95747909863E+03  0.00000000000E+00 0. -1.
        -11    1    3    3    0    0  0.32042228140E+02 -0.34997741993E+03 -0.78534440295E+03  0.86039335777E+03  0.00000000000E+00 0.  1.
         22    1    1    2    0    0  0.22780095069E+02  0.72655976117E+03  0.28263475659E+03  0.77992975639E+03  0.00000000000E+00 0.  1.
<mgrwt>
<rscale>  0 0.22001242E+04</rscale>
<asrwt>0</asrwt>
<pdfrwt beam="1">  1        2 0.30608591E+00 0.22001242E+04</pdfrwt>
<pdfrwt beam="2">  1       -2 0.93575977E-01 0.22001242E+04</pdfrwt>
<totfact> 0.59748569E+00</totfact>
</mgrwt>
</event>
<event>
 6    1  0.1773638E-005  0.2306184E+04  0.7818608E-02  0.8475487E-01
         -2   -1    0    0    0  501 -0.00000000000E+00  0.00000000000E+00  0.10055423609E+04  0.10055423609E+04  0.00000000000E+00 0.  1.
          2   -1    0    0  501    0  0.00000000000E+00 -0.00000000000E+00 -0.13222928086E+04  0.13222928086E+04  0.00000000000E+00 0. -1.
         23    2    1    2    0    0 -0.89923487781E+03  0.46556351568E+03 -0.71142356043E+03  0.12410326950E+04  0.93090897129E+02 0.  0.
         11    1    3    3    0    0 -0.67097498562E+03  0.37913044135E+03 -0.57380344261E+03  0.96083178217E+03  0.00000000000E+00 0. -1.
        -11    1    3    3    0    0 -0.22825989220E+03  0.86433074335E+02 -0.13762011782E+03  0.28020091284E+03  0.00000000000E+00 0.  1.
         22    1    1    2    0    0  0.89923487781E+03 -0.46556351568E+03  0.39467311276E+03  0.10868024745E+04  0.00000000000E+00 0.  1.
<mgrwt>
<rscale>  0 0.23061842E+04</rscale>
<asrwt>0</asrwt>
<pdfrwt beam="1">  1        2 0.20342966E+00 0.23061842E+04</pdfrwt>
<pdfrwt beam="2">  1       -2 0.15469882E+00 0.23061842E+04</pdfrwt>
<totfact> 0.40126208E+00</totfact>
</mgrwt>
</event>
<event>
 6    1  0.1773638E-005  0.4712687E+04  0.7818608E-02  0.7874424E-01
          2   -1    0    0  501    0  0.00000000000E+00  0.00000000000E+00  0.27244251684E+04  0.27244251684E+04  0.00000000000E+00 0. -1.
         -2   -1    0    0    0  501 -0.00000000000E+00 -0.00000000000E+00 -0.20379914973E+04  0.20379914973E+04  0.00000000000E+00 0.  1.
         23    2    1    2    0    0 -0.17758512078E+04  0.12453193331E+04  0.12714318960E+04  0.25159325957E+04  0.94392830081E+02 0.  0.
         13    1    3    3    0    0 -0.82147467145E+03  0.60506658560E+03  0.55081988731E+03  0.11594519210E+04  0.00000000000E+00 0.  1.
        -13    1    3    3    0    0 -0.95437653633E+03  0.64025274749E+03  0.72061200867E+03  0.13564806747E+04  0.00000000000E+00 0. -1.
         22    1    1    2    0    0  0.17758512078E+04 -0.12453193331E+04 -0.58499822496E+03  0.22464840700E+04  0.00000000000E+00 0.  1.
<mgrwt>
<rscale>  0 0.47126873E+04</rscale>
<asrwt>0</asrwt>
<pdfrwt beam="1">  1        2 0.41914234E+00 0.47126873E+04</pdfrwt>
<pdfrwt beam="2">  1       -2 0.31353715E+00 0.47126873E+04</pdfrwt>
<totfact> 0.50190096E-02</totfact>
</mgrwt>
</event>
<event>
 6    1  0.1773638E-005  0.2587467E+04  0.7818608E-02  0.8372471E-01
         -1   -1    0    0    0  501 -0.00000000000E+00  0.00000000000E+00  0.81784051865E+03  0.81784051865E+03  0.00000000000E+00 0.  1.
          1   -1    0    0  501    0  0.00000000000E+00 -0.00000000000E+00 -0.20465443403E+04  0.20465443403E+04  0.00000000000E+00 0. -1.
         23    2    1    2    0    0 -0.12845928004E+04  0.11442021856E+03 -0.70337131997E+03  0.14718171275E+04  0.90795339691E+02 0.  0.
         11    1    3    3    0    0 -0.51328677070E+03  0.10940780672E+02 -0.24804512507E+03  0.57018364912E+03  0.00000000000E+00 0.  1.
        -11    1    3    3    0    0 -0.77130602973E+03  0.10347943789E+03 -0.45532619490E+03  0.90163347838E+03  0.00000000000E+00 0. -1.
         22    1    1    2    0    0  0.12845928004E+04 -0.11442021856E+03 -0.52533250167E+03  0.13925677314E+04  0.00000000000E+00 0. -1.
<mgrwt>
<rscale>  0 0.25874674E+04</rscale>
<asrwt>0</asrwt>
<pdfrwt beam="1">  1        1 0.31485297E+00 0.25874674E+04</pdfrwt>
<pdfrwt beam="2">  1       -1 0.12582162E+00 0.25874674E+04</pdfrwt>
<totfact> 0.13447680E+00</totfact>
</mgrwt>
</event>
<event>
 6    1  0.1773638E-005  0.1405811E+04  0.7818608E-02  0.8949623E-01
          1   -1    0    0  501    0  0.00000000000E+00  0.00000000000E+00  0.70621249074E+03  0.70621249074E+03  0.00000000000E+00 0. -1.
         -1   -1    0    0    0  501 -0.00000000000E+00 -0.00000000000E+00 -0.69961423862E+03  0.69961423862E+03  0.00000000000E+00 0.  1.
         23    2    1    2    0    0 -0.60190172378E+03  0.17810500279E+03 -0.30608615455E+03  0.70455744065E+03  0.93302604734E+02 0.  0.
         13    1    3    3    0    0 -0.19651909865E+03  0.73580358600E+02 -0.14923461897E+03  0.25749717825E+03  0.00000000000E+00 0.  1.
        -13    1    3    3    0    0 -0.40538262513E+03  0.10452464419E+03 -0.15685153558E+03  0.44706026240E+03  0.00000000000E+00 0. -1.
         22    1    1    2    0    0  0.60190172378E+03 -0.17810500279E+03  0.31268440667E+03  0.70126928871E+03  0.00000000000E+00 0.  1.
<mgrwt>
<rscale>  0 0.14058112E+04</rscale>
<asrwt>0</asrwt>
<pdfrwt beam="1">  1        1 0.10864808E+00 0.14058112E+04</pdfrwt>
<pdfrwt beam="2">  1       -1 0.10763296E+00 0.14058112E+04</pdfrwt>
<totfact> 0.21055116E+01</totfact>
</mgrwt>
</event>
<event>
 6    1  0.1773638E-005  0.1787296E+04  0.7818608E-02  0.8713084E-01
          2   -1    0    0  501    0  0.00000000000E+00  0.00000000000E+00  0.80753079762E+03  0.80753079762E+03  0.00000000000E+00 0.  1.
         -2   -1    0    0    0  501 -0.00000000000E+00 -0.00000000000E+00 -0.98894923088E+03  0.98894923088E+03  0.00000000000E+00 0. -1.
         23    2    1    2    0    0  0.72222451382E+03 -0.51312646800E+03 -0.18794252153E+03  0.91050622287E+03  0.93766571683E+02 0.  0.
         13    1    3    3    0    0  0.13872588081E+03 -0.81017734646E+02 -0.68606593436E+02  0.17468717181E+03  0.00000000000E+00 0. -1.
        -13    1    3    3    0    0  0.58349863301E+03 -0.43210873336E+03 -0.11933592809E+03  0.73581905106E+03  0.00000000000E+00 0.  1.
         22    1    1    2    0    0 -0.72222451382E+03  0.51312646800E+03  0.65240882758E+01  0.88597380563E+03  0.00000000000E+00 0.  1.
<mgrwt>
<rscale>  0 0.17872962E+04</rscale>
<asrwt>0</asrwt>
<pdfrwt beam="1">  1        2 0.12423551E+00 0.17872962E+04</pdfrwt>
<pdfrwt beam="2">  1       -2 0.15214604E+00 0.17872962E+04</pdfrwt>
<totfact> 0.92712154E+00</totfact>
</mgrwt>
</event>
<event>
 6    1  0.1773638E-005  0.7415351E+04  0.7818608E-02  0.7536054E-01
         -1   -1    0    0    0  501 -0.00000000000E+00  0.00000000000E+00  0.47416473610E+04  0.47416473610E+04  0.00000000000E+00 0.  1.
          1   -1    0    0  501    0  0.00000000000E+00 -0.00000000000E+00 -0.28991736469E+04  0.28991736469E+04  0.00000000000E+00 0. -1.
         23    2    1    2    0    0 -0.54440462774E+02 -0.32821374729E+04 -0.85360637939E+03  0.33929700188E+04  0.90617563973E+02 0.  0.
         11    1    3    3    0    0 -0.70495258079E+02 -0.18895734515E+04 -0.51402559367E+03  0.19595100716E+04  0.00000000000E+00 0. -1.
        -11    1    3    3    0    0  0.16054795305E+02 -0.13925640214E+04 -0.33958078572E+03  0.14334599472E+04  0.00000000000E+00 0.  1.
         22    1    1    2    0    0  0.54440462774E+02  0.32821374729E+04  0.26960800935E+04  0.42478509891E+04  0.00000000000E+00 0.  1.
<mgrwt>
<rscale>  0 0.74153514E+04</rscale>
<asrwt>0</asrwt>
<pdfrwt beam="1">  1        1 0.44602671E+00 0.74153514E+04</pdfrwt>
<pdfrwt beam="2">  1       -1 0.72948421E+00 0.74153514E+04</pdfrwt>
<totfact> 0.67745660E-05</totfact>
</mgrwt>
</event>
<event>
 6    1  0.1773638E-005  0.3000909E+04  0.7818608E-02  0.8243471E-01
         -1   -1    0    0    0  501 -0.00000000000E+00  0.00000000000E+00  0.15658108513E+04  0.15658108513E+04  0.00000000000E+00 0.  1.
          1   -1    0    0  501    0  0.00000000000E+00 -0.00000000000E+00 -0.14378264331E+04  0.14378264331E+04  0.00000000000E+00 0. -1.
         23    2    1    2    0    0 -0.58967668853E+03  0.21039739625E+03  0.14275467251E+04  0.15611228648E+04  0.85025205155E+02 0.  0.
         13    1    3    3    0    0 -0.41479829739E+03  0.18558011454E+03  0.99228501522E+03  0.10913877211E+04  0.00000000000E+00 0.  1.
        -13    1    3    3    0    0 -0.17487839114E+03  0.24817281705E+02  0.43526170983E+03  0.46973514368E+03  0.00000000000E+00 0. -1.
         22    1    1    2    0    0  0.58967668853E+03 -0.21039739625E+03 -0.12995623068E+04  0.14425144196E+04  0.00000000000E+00 0. -1.
<mgrwt>
<rscale>  0 0.30009093E+04</rscale>
<asrwt>0</asrwt>
<pdfrwt beam="1">  1        1 0.22120407E+00 0.30009093E+04</pdfrwt>
<pdfrwt beam="2">  1       -1 0.24089398E+00 0.30009093E+04</pdfrwt>
<totfact> 0.49196026E-01</totfact>
</mgrwt>
</event>
<event>
 6    1  0.1773638E-005  0.1223392E+04  0.7818608E-02  0.9092624E-01
         -1   -1    0    0    0  501 -0.00000000000E+00  0.00000000000E+00  0.12262542444E+03  0.12262542444E+03  0.00000000000E+00 0.  1.
          1   -1    0    0  501    0  0.00000000000E+00 -0.00000000000E+00 -0.30513435579E+04  0.30513435579E+04  0.00000000000E+00 0. -1.
         23    2    1    2    0    0 -0.52850458079E+03  0.12949678157E+03 -0.76660254431E+03  0.94443308238E+03  0.90486892945E+02 0.  0.
         11    1    3    3    0    0 -0.36369777173E+03  0.89477027625E+02 -0.45186934053E+03  0.58691405550E+03  0.00000000000E+00 0.  1.
        -11    1    3    3    0    0 -0.16480680907E+03  0.40019753942E+02 -0.31473320378E+03  0.35751902688E+03  0.00000000000E+00 0. -1.
         22    1    1    2    0    0  0.52850458079E+03 -0.12949678157E+03 -0.21621155891E+04  0.22295358999E+04  0.00000000000E+00 0. -1.
<mgrwt>
<rscale>  0 0.12233925E+04</rscale>
<asrwt>0</asrwt>
<pdfrwt beam="1">  1        1 0.46943747E+00 0.12233925E+04</pdfrwt>
<pdfrwt beam="2">  1       -1 0.18865450E-01 0.12233925E+04</pdfrwt>
<totfact> 0.12375794E+01</totfact>
</mgrwt>
</event>
<event>
 6    1  0.1773638E-005  0.2697111E+04  0.7818608E-02  0.8335943E-01
         -2   -1    0    0    0  501 -0.00000000000E+00  0.00000000000E+00  0.11615845129E+04  0.11615845129E+04  0.00000000000E+00 0.  1.
          2   -1    0    0  501    0  0.00000000000E+00 -0.00000000000E+00 -0.15656218955E+04  0.15656218955E+04  0.00000000000E+00 0. -1.
         23    2    1    2    0    0 -0.10384864135E+04 -0.65792460433E+03  0.35460484528E+03  0.12826106705E+04  0.89591963606E+02 0.  0.
         11    1    3    3    0    0 -0.56976876266E+03 -0.40033569996E+03  0.16987908752E+03  0.71677333931E+03  0.00000000000E+00 0.  1.
        -11    1    3    3    0    0 -0.46871765081E+03 -0.25758890436E+03  0.18472575776E+03  0.56583733123E+03  0.00000000000E+00 0. -1.
         22    1    1    2    0    0  0.10384864135E+04  0.65792460433E+03 -0.75864222789E+03  0.14445957379E+04  0.00000000000E+00 0.  1.
<mgrwt>
<rscale>  0 0.26971112E+04</rscale>
<asrwt>0</asrwt>
<pdfrwt beam="1">  1        2 0.24086491E+00 0.26971112E+04</pdfrwt>
<pdfrwt beam="2">  1       -2 0.17870531E+00 0.26971112E+04</pdfrwt>
<totfact> 0.18939906E+00</totfact>
</mgrwt>
</event>
<event>
 6    1  0.1773638E-005  0.6398824E+03  0.7818608E-02  0.9825952E-01
         -1   -1    0    0    0  501 -0.00000000000E+00  0.00000000000E+00  0.44869518210E+03  0.44869518210E+03  0.00000000000E+00 0.  1.
          1   -1    0    0  501    0  0.00000000000E+00 -0.00000000000E+00 -0.22813344914E+03  0.22813344914E+03  0.00000000000E+00 0. -1.
         23    2    1    2    0    0 -0.20828995960E+02 -0.13048482288E+03  0.41290031080E+03  0.44347425566E+03  0.93394928649E+02 0.  0.
         13    1    3    3    0    0 -0.51593916903E+02 -0.40931893070E+02  0.14275232307E+03  0.15721188846E+03  0.00000000000E+00 0.  1.
        -13    1    3    3    0    0  0.30764920942E+02 -0.89552929811E+02  0.27014798773E+03  0.28626236720E+03  0.00000000000E+00 0. -1.
         22    1    1    2    0    0  0.20828995960E+02  0.13048482288E+03 -0.19233857784E+03  0.23335437558E+03  0.00000000000E+00 0. -1.
<mgrwt>
<rscale>  0 0.63988243E+03</rscale>
<asrwt>0</asrwt>
<pdfrwt beam="1">  1        1 0.35097454E-01 0.63988243E+03</pdfrwt>
<pdfrwt beam="2">  1       -1 0.69030028E-01 0.63988243E+03</pdfrwt>
<totfact> 0.26999231E+02</totfact>
</mgrwt>
</event>
<event>
 6    1  0.1773638E-005  0.7327116E+03  0.7818608E-02  0.9662870E-01
          2   -1    0    0  501    0  0.00000000000E+00  0.00000000000E+00  0.61573495704E+03  0.61573495704E+03  0.00000000000E+00 0. -1.
         -2   -1    0    0    0  501 -0.00000000000E+00 -0.00000000000E+00 -0.21797782072E+03  0.21797782072E+03  0.00000000000E+00 0.  1.
         23    2    1    2    0    0 -0.19801987102E+03  0.28449676887E+03  0.31545136042E+03  0.47744809868E+03  0.91087020610E+02 0.  0.
         13    1    3    3    0    0 -0.17478808832E+03  0.19776768210E+03  0.19979196365E+03  0.33102833813E+03  0.00000000000E+00 0. -1.
        -13    1    3    3    0    0 -0.23231782696E+02  0.86729086773E+02  0.11565939677E+03  0.14641976055E+03  0.00000000000E+00 0.  1.
         22    1    1    2    0    0  0.19801987102E+03 -0.28449676887E+03  0.82305775895E+02  0.35626467908E+03  0.00000000000E+00 0.  1.
<mgrwt>
<rscale>  0 0.73271158E+03</rscale>
<asrwt>0</asrwt>
<pdfrwt beam="1">  1        2 0.94728454E-01 0.73271158E+03</pdfrwt>
<pdfrwt beam="2">  1       -2 0.33535050E-01 0.73271158E+03</pdfrwt>
<totfact> 0.40202173E+02</totfact>
</mgrwt>
</event>
<event>
 6    1  0.1773638E-005  0.1660327E+04  0.7818608E-02  0.8784321E-01
          1   -1    0    0  501    0  0.00000000000E+00  0.00000000000E+00  0.13246133210E+04  0.13246133210E+04  0.00000000000E+00 0. -1.
         -1   -1    0    0    0  501 -0.00000000000E+00 -0.00000000000E+00 -0.52028114707E+03  0.52028114707E+03  0.00000000000E+00 0.  1.
         23    2    1    2    0    0 -0.44906175646E+03  0.53344922853E+03 -0.91893866762E+02  0.70935686123E+03  0.92293733811E+02 0.  0.
         13    1    3    3    0    0 -0.19125072508E+03  0.17849910162E+03 -0.23773356667E+01  0.26161884651E+03  0.00000000000E+00 0.  1.
        -13    1    3    3    0    0 -0.25781103138E+03  0.35495012691E+03 -0.89516531095E+02  0.44773801473E+03  0.00000000000E+00 0. -1.
         22    1    1    2    0    0  0.44906175646E+03 -0.53344922853E+03  0.89622604072E+03  0.11355376069E+04  0.00000000000E+00 0. -1.
<mgrwt>
<rscale>  0 0.16603269E+04</rscale>
<asrwt>0</asrwt>
<pdfrwt beam="1">  1        1 0.20378666E+00 0.16603269E+04</pdfrwt>
<pdfrwt beam="2">  1       -1 0.80043254E-01 0.16603269E+04</pdfrwt>
<totfact> 0.12923172E+01</totfact>
</mgrwt>
</event>
<event>
 6    1  0.1773638E-005  0.3501845E+03  0.7818608E-02  0.1062539E+00
          1   -1    0    0  501    0  0.00000000000E+00  0.00000000000E+00  0.13421975829E+04  0.13421975829E+04  0.00000000000E+00 0. -1.
         -1   -1    0    0    0  501 -0.00000000000E+00 -0.00000000000E+00 -0.22841115287E+02  0.22841115287E+02  0.00000000000E+00 0.  1.
         23    2    1    2    0    0 -0.12351099712E+02  0.37906012158E+01  0.13385990062E+04  0.13418612606E+04  0.92614388800E+02 0.  0.
         11    1    3    3    0    0  0.35579142877E+02 -0.75429955051E+01  0.31772316647E+03  0.31979803424E+03  0.00000000000E+00 0. -1.
        -11    1    3    3    0    0 -0.47930242589E+02  0.11333596721E+02  0.10208758397E+04  0.10220632263E+04  0.00000000000E+00 0.  1.
         22    1    1    2    0    0  0.12351099712E+02 -0.37906012158E+01 -0.19242538581E+02  0.23177437579E+02  0.00000000000E+00 0.  1.
<mgrwt>
<rscale>  0 0.35018446E+03</rscale>
<asrwt>0</asrwt>
<pdfrwt beam="1">  1        1 0.20649187E+00 0.35018446E+03</pdfrwt>
<pdfrwt beam="2">  1       -1 0.35140188E-02 0.35018446E+03</pdfrwt>
<totfact> 0.27275275E+03</totfact>
</mgrwt>
</event>
<event>
 6    1  0.1773638E-005  0.2513168E+04  0.7818608E-02  0.8398309E-01
         -2   -1    0    0    0  501 -0.00000000000E+00  0.00000000000E+00  0.76454861892E+03  0.76454861892E+03  0.00000000000E+00 0.  1.
          2   -1    0    0  501    0  0.00000000000E+00 -0.00000000000E+00 -0.20652748213E+04  0.20652748213E+04  0.00000000000E+00 0. -1.
         23    2    1    2    0    0  0.43108813467E+03  0.91214029143E+03 -0.14913225786E+04  0.18030986135E+04  0.96357073338E+02 0.  0.
         13    1    3    3    0    0  0.17159451594E+03  0.47582676171E+03 -0.74370643908E+03  0.89941928631E+03  0.00000000000E+00 0.  1.
        -13    1    3    3    0    0  0.25949361873E+03  0.43631352972E+03 -0.74761613947E+03  0.90367932718E+03  0.00000000000E+00 0. -1.
         22    1    1    2    0    0 -0.43108813467E+03 -0.91214029143E+03  0.19059637622E+03  0.10267248267E+04  0.00000000000E+00 0.  1.
<mgrwt>
<rscale>  0 0.25131677E+04</rscale>
<asrwt>0</asrwt>
<pdfrwt beam="1">  1        2 0.31773458E+00 0.25131677E+04</pdfrwt>
<pdfrwt beam="2">  1       -2 0.11762287E+00 0.25131677E+04</pdfrwt>
<totfact> 0.30542094E+00</totfact>
</mgrwt>
</event>
<event>
 6    1  0.1773638E-005  0.9767519E+03  0.7818608E-02  0.9334417E-01
          2   -1    0    0  501    0  0.00000000000E+00  0.00000000000E+00  0.99729688934E+03  0.99729688934E+03  0.00000000000E+00 0. -1.
         -2   -1    0    0    0  501 -0.00000000000E+00 -0.00000000000E+00 -0.23915754177E+03  0.23915754177E+03  0.00000000000E+00 0.  1.
         23    2    1    2    0    0 -0.53753602518E+02  0.44292842998E+03  0.61973851189E+03  0.76930366831E+03  0.93151849660E+02 0.  0.
         13    1    3    3    0    0 -0.74013430521E+02  0.28708154468E+03  0.43983380419E+03  0.53042207392E+03  0.00000000000E+00 0.  1.
        -13    1    3    3    0    0  0.20259828003E+02  0.15584688529E+03  0.17990470770E+03  0.23888159439E+03  0.00000000000E+00 0. -1.
         22    1    1    2    0    0  0.53753602518E+02 -0.44292842998E+03  0.13840083568E+03  0.46715076280E+03  0.00000000000E+00 0.  1.
<mgrwt>
<rscale>  0 0.97675191E+03</rscale>
<asrwt>0</asrwt>
<pdfrwt beam="1">  1        2 0.15343029E+00 0.97675191E+03</pdfrwt>
<pdfrwt beam="2">  1       -2 0.36793468E-01 0.97675191E+03</pdfrwt>
<totfact> 0.17569700E+02</totfact>
</mgrwt>
</event>
<event>
 6    1  0.1773638E-005  0.2086021E+04  0.7818608E-02  0.8567426E-01
         -2   -1    0    0    0  501 -0.00000000000E+00  0.00000000000E+00  0.22248753927E+03  0.22248753927E+03  0.00000000000E+00 0.  1.
          2   -1    0    0  501    0  0.00000000000E+00 -0.00000000000E+00 -0.48895815512E+04  0.48895815512E+04  0.00000000000E+00 0. -1.
         23    2    1    2    0    0  0.67460007427E+03  0.49752338981E+03 -0.82541201314E+03  0.11800040651E+04  0.92140212034E+02 0.  0.
         13    1    3    3    0    0  0.35002497027E+03  0.20110718697E+03 -0.39985003793E+03  0.56819154631E+03  0.00000000000E+00 0. -1.
        -13    1    3    3    0    0  0.32457510401E+03  0.29641620284E+03 -0.42556197521E+03  0.61181251883E+03  0.00000000000E+00 0.  1.
         22    1    1    2    0    0 -0.67460007427E+03 -0.49752338981E+03 -0.38416819988E+04  0.39320650253E+04  0.00000000000E+00 0. -1.
<mgrwt>
<rscale>  0 0.20860211E+04</rscale>
<asrwt>0</asrwt>
<pdfrwt beam="1">  1        2 0.75224323E+00 0.20860211E+04</pdfrwt>
<pdfrwt beam="2">  1       -2 0.34228856E-01 0.20860211E+04</pdfrwt>
<totfact> 0.35273433E-01</totfact>
</mgrwt>
</event>
<event>
 6    1  0.1773638E-005  0.5440305E+04  0.7818608E-02  0.7763957E-01
          1   -1    0    0  501    0  0.00000000000E+00  0.00000000000E+00  0.31270850956E+04  0.31270850956E+04  0.00000000000E+00 0. -1.
         -1   -1    0    0    0  501 -0.00000000000E+00 -0.00000000000E+00 -0.23661743404E+04  0.23661743404E+04  0.00000000000E+00 0.  1.
         23    2    1    2    0    0  0.11340815279E+04  0.11157212813E+04 -0.18463930947E+04  0.24389169117E+04  0.90406594114E+02 0.  0.
         13    1    3    3    0    0  0.98172427581E+03  0.92917926218E+03 -0.15371679033E+04  0.20469591637E+04  0.00000000000E+00 0.  1.
        -13    1    3    3    0    0  0.15235725210E+03  0.18654201912E+03 -0.30922519145E+03  0.39195774796E+03  0.00000000000E+00 0. -1.
         22    1    1    2    0    0 -0.11340815279E+04 -0.11157212813E+04  0.26073038499E+04  0.30543425242E+04  0.00000000000E+00 0. -1.
<mgrwt>
<rscale>  0 0.54403046E+04</rscale>
<asrwt>0</asrwt>
<pdfrwt beam="1">  1        1 0.48109001E+00 0.54403046E+04</pdfrwt>
<pdfrwt beam="2">  1       -1 0.36402682E+00 0.54403046E+04</pdfrwt>
<totfact> 0.42103055E-03</totfact>
</mgrwt>
</event>
<event>
 6    1  0.1773638E-005  0.1875361E+04  0.7818608E-02  0.8667219E-01
         -1   -1    0    0    0  501 -0.00000000000E+00  0.00000000000E+00  0.64200358533E+03  0.64200358533E+03  0.00000000000E+00 0.  1.
          1   -1    0    0  501    0  0.00000000000E+00 -0.00000000000E+00 -0.13695328935E+04  0.13695328935E+04  0.00000000000E+00 0. -1.
         23    2    1    2    0    0  0.80738912150E+03  0.35314135193E+03 -0.26928530206E+02  0.88573567140E+03  0.84950137709E+02 0.  0.
         13    1    3    3    0    0  0.35385840581E+03  0.11201163419E+03  0.36121572245E+01  0.37118112187E+03  0.00000000000E+00 0. -1.
        -13    1    3    3    0    0  0.45353071569E+03  0.24112971774E+03 -0.30540687431E+02  0.51455454953E+03  0.00000000000E+00 0.  1.
         22    1    1    2    0    0 -0.80738912150E+03 -0.35314135193E+03 -0.70060077799E+03  0.11258008075E+04  0.00000000000E+00 0.  1.
<mgrwt>
<rscale>  0 0.18753613E+04</rscale>
<asrwt>0</asrwt>
<pdfrwt beam="1">  1        1 0.21069737E+00 0.18753613E+04</pdfrwt>
<pdfrwt beam="2">  1       -1 0.98769782E-01 0.18753613E+04</pdfrwt>
<totfact> 0.74206759E+00</totfact>
</mgrwt>
</event>
<event>
 6    1  0.1773638E-005  0.1967077E+04  0.7818608E-02  0.8622170E-01
         -1   -1    0    0    0  501 -0.00000000000E+00  0.00000000000E+00  0.68929984412E+03  0.68929984412E+03  0.00000000000E+00 0.  1.
          1   -1    0    0  501    0  0.00000000000E+00 -0.00000000000E+00 -0.14033777746E+04  0.14033777746E+04  0.00000000000E+00 0. -1.
         23    2    1    2    0    0 -0.51590686924E+03  0.76853269459E+03 -0.70513080604E+03  0.11669981648E+04  0.88729152747E+02 0.  0.
         13    1    3    3    0    0 -0.37396018929E+02  0.10730104543E+03 -0.89627911704E+02  0.14472435572E+03  0.00000000000E+00 0.  1.
        -13    1    3    3    0    0 -0.47851085031E+03  0.66123164916E+03 -0.61550289434E+03  0.10222738090E+04  0.00000000000E+00 0. -1.
         22    1    1    2    0    0  0.51590686924E+03 -0.76853269459E+03 -0.89471244031E+01  0.92567945392E+03  0.00000000000E+00 0.  1.
<mgrwt>
<rscale>  0 0.19670771E+04</rscale>
<asrwt>0</asrwt>
<pdfrwt beam="1">  1        1 0.21590427E+00 0.19670771E+04</pdfrwt>
<pdfrwt beam="2">  1       -1 0.10604613E+00 0.19670771E+04</pdfrwt>
<totfact> 0.59131056E+00</totfact>
</mgrwt>
</event>
<event>
 6    1  0.1773638E-005  0.2373631E+04  0.7818608E-02  0.8449442E-01
          1   -1    0    0  501    0  0.00000000000E+00  0.00000000000E+00  0.19941519258E+04  0.19941519258E+04  0.00000000000E+00 0.  1.
         -1   -1    0    0    0  501 -0.00000000000E+00 -0.00000000000E+00 -0.70633114919E+03  0.70633114919E+03  0.00000000000E+00 0. -1.
         23    2    1    2    0    0 -0.82764549200E+03 -0.83146540747E+03  0.82230935698E+03  0.14383290963E+04  0.12753872475E+03 0.  0.
         11    1    3    3    0    0 -0.33636364624E+03 -0.32094852172E+03  0.40140054231E+03  0.61422377964E+03  0.00000000000E+00 0. -1.
        -11    1    3    3    0    0 -0.49128184576E+03 -0.51051688575E+03  0.42090881467E+03  0.82410531661E+03  0.00000000000E+00 0.  1.
         22    1    1    2    0    0  0.82764549200E+03  0.83146540747E+03  0.46551141964E+03  0.12621539787E+04  0.00000000000E+00 0. -1.
<mgrwt>
<rscale>  0 0.23736315E+04</rscale>
<asrwt>0</asrwt>
<pdfrwt beam="1">  1        1 0.30679260E+00 0.23736315E+04</pdfrwt>
<pdfrwt beam="2">  1       -1 0.10866633E+00 0.23736315E+04</pdfrwt>
<totfact> 0.21213212E+00</totfact>
</mgrwt>
</event>
<event>
 6    1  0.1773638E-005  0.1637407E+04  0.7818608E-02  0.8797891E-01
         -2   -1    0    0    0  501 -0.00000000000E+00  0.00000000000E+00  0.60404900142E+03  0.60404900142E+03  0.00000000000E+00 0.  1.
          2   -1    0    0  501    0  0.00000000000E+00 -0.00000000000E+00 -0.11096375029E+04  0.11096375029E+04  0.00000000000E+00 0. -1.
         23    2    1    2    0    0  0.31011186568E+03 -0.44985394152E+03 -0.88822046446E+03  0.10466444089E+04  0.89392322213E+02 0.  0.
         13    1    3    3    0    0  0.22578304722E+03 -0.30138543267E+03 -0.53410118088E+03  0.65350993478E+03  0.00000000000E+00 0. -1.
        -13    1    3    3    0    0  0.84328818457E+02 -0.14846850885E+03 -0.35411928359E+03  0.39313447413E+03  0.00000000000E+00 0.  1.
         22    1    1    2    0    0 -0.31011186568E+03  0.44985394152E+03  0.38263196298E+03  0.66704209540E+03  0.00000000000E+00 0.  1.
<mgrwt>
<rscale>  0 0.16374070E+04</rscale>
<asrwt>0</asrwt>
<pdfrwt beam="1">  1        2 0.17071346E+00 0.16374070E+04</pdfrwt>
<pdfrwt beam="2">  1       -2 0.92930616E-01 0.16374070E+04</pdfrwt>
<totfact> 0.20164821E+01</totfact>
</mgrwt>
</event>
<event>
 6    1  0.1773638E-005  0.7281530E+03  0.7818608E-02  0.9670262E-01
          1   -1    0    0  501    0  0.00000000000E+00  0.00000000000E+00  0.32755523342E+03  0.32755523342E+03  0.00000000000E+00 0. -1.
         -1   -1    0    0    0  501 -0.00000000000E+00 -0.00000000000E+00 -0.40466975439E+03  0.40466975439E+03  0.00000000000E+00 0.  1.
         23    2    1    2    0    0 -0.28984017687E+03  0.17654573219E+03 -0.15517826078E+03  0.38398703589E+03  0.90498770316E+02 0.  0.
         11    1    3    3    0    0 -0.14864371861E+03  0.40356448129E+02 -0.82939322136E+02  0.17493578577E+03  0.00000000000E+00 0. -1.
        -11    1    3    3    0    0 -0.14119645826E+03  0.13618928406E+03 -0.72238938645E+02  0.20905125012E+03  0.00000000000E+00 0.  1.
         22    1    1    2    0    0  0.28984017687E+03 -0.17654573219E+03  0.78063739803E+02  0.34823795192E+03  0.00000000000E+00 0. -1.
<mgrwt>
<rscale>  0 0.72815299E+03</rscale>
<asrwt>0</asrwt>
<pdfrwt beam="1">  1        1 0.50393113E-01 0.72815299E+03</pdfrwt>
<pdfrwt beam="2">  1       -1 0.62256885E-01 0.72815299E+03</pdfrwt>
<totfact> 0.20735135E+02</totfact>
</mgrwt>
</event>
<event>
 6    1  0.1773638E-005  0.2882209E+04  0.7818608E-02  0.8278191E-01
          2   -1    0    0  501    0  0.00000000000E+00  0.00000000000E+00  0.41761515559E+04  0.41761515559E+04  0.00000000000E+00 0. -1.
         -2   -1    0    0    0  501 -0.00000000000E+00 -0.00000000000E+00 -0.49729552995E+03  0.49729552995E+03  0.00000000000E+00 0.  1.
         23    2    1    2    0    0 -0.39379285310E+03  0.87825940466E+03  0.10471687867E+03  0.97197669731E+03  0.85794419527E+02 0.  0.
         11    1    3    3    0    0 -0.16919361404E+03  0.31992249193E+03  0.49224708472E+01  0.36194075564E+03  0.00000000000E+00 0. -1.
        -11    1    3    3    0    0 -0.22459923905E+03  0.55833691273E+03  0.99794407821E+02  0.61003594167E+03  0.00000000000E+00 0.  1.
         22    1    1    2    0    0  0.39379285310E+03 -0.87825940466E+03  0.35741391473E+04  0.37014703886E+04  0.00000000000E+00 0. -1.
<mgrwt>
<rscale>  0 0.28822085E+04</rscale>
<asrwt>0</asrwt>
<pdfrwt beam="1">  1        2 0.64248483E+00 0.28822085E+04</pdfrwt>
<pdfrwt beam="2">  1       -2 0.76507007E-01 0.28822085E+04</pdfrwt>
<totfact> 0.32207314E-01</totfact>
</mgrwt>
</event>
<event>
 6    1  0.1773638E-005  0.1020414E+04  0.7818608E-02  0.9286435E-01
          1   -1    0    0  501    0  0.00000000000E+00  0.00000000000E+00  0.66227466564E+03  0.66227466564E+03  0.00000000000E+00 0. -1.
         -1   -1    0    0    0  501 -0.00000000000E+00 -0.00000000000E+00 -0.39305596469E+03  0.39305596469E+03  0.00000000000E+00 0.  1.
         23    2    1    2    0    0 -0.32752400529E+03 -0.32491502436E+03  0.35076476711E+03  0.58683142221E+03  0.92159910752E+02 0.  0.
         13    1    3    3    0    0 -0.26181557764E+03 -0.22536270652E+03  0.21863325531E+03  0.40882300145E+03  0.00000000000E+00 0. -1.
        -13    1    3    3    0    0 -0.65708427651E+02 -0.99552317838E+02  0.13213151180E+03  0.17800842076E+03  0.00000000000E+00 0.  1.
         22    1    1    2    0    0  0.32752400529E+03  0.32491502436E+03 -0.81546066169E+02  0.46849920812E+03  0.00000000000E+00 0.  1.
<mgrwt>
<rscale>  0 0.10204137E+04</rscale>
<asrwt>0</asrwt>
<pdfrwt beam="1">  1        1 0.10188841E+00 0.10204137E+04</pdfrwt>
<pdfrwt beam="2">  1       -1 0.60470149E-01 0.10204137E+04</pdfrwt>
<totfact> 0.82271557E+01</totfact>
</mgrwt>
</event>
<event>
 6    1  0.1773638E-005  0.2794632E+04  0.7818608E-02  0.8304937E-01
         -2   -1    0    0    0  501 -0.00000000000E+00  0.00000000000E+00  0.11317828990E+04  0.11317828990E+04  0.00000000000E+00 0.  1.
          2   -1    0    0  501    0  0.00000000000E+00 -0.00000000000E+00 -0.17251468931E+04  0.17251468931E+04  0.00000000000E+00 0. -1.
         23    2    1    2    0    0 -0.83754603935E+03 -0.49834350247E+03  0.72466108441E+03  0.12177166509E+04  0.88716064652E+02 0.  0.
         13    1    3    3    0    0 -0.81090258083E+03 -0.48833341174E+03  0.71900791714E+03  0.11886988271E+04  0.00000000000E+00 0. -1.
        -13    1    3    3    0    0 -0.26643458522E+02 -0.10010090725E+02  0.56531672771E+01  0.29017823809E+02  0.00000000000E+00 0.  1.
         22    1    1    2    0    0  0.83754603935E+03  0.49834350247E+03 -0.13180250786E+04  0.16392131412E+04  0.00000000000E+00 0. -1.
<mgrwt>
<rscale>  0 0.27946318E+04</rscale>
<asrwt>0</asrwt>
<pdfrwt beam="1">  1        2 0.26540722E+00 0.27946318E+04</pdfrwt>
<pdfrwt beam="2">  1       -2 0.17412044E+00 0.27946318E+04</pdfrwt>
<totfact> 0.16477734E+00</totfact>
</mgrwt>
</event>
<event>
 6    1  0.1773638E-005  0.3178677E+04  0.7818608E-02  0.8194471E-01
         -2   -1    0    0    0  501 -0.00000000000E+00  0.00000000000E+00  0.10160472001E+04  0.10160472001E+04  0.00000000000E+00 0.  1.
          2   -1    0    0  501    0  0.00000000000E+00 -0.00000000000E+00 -0.24861021902E+04  0.24861021902E+04  0.00000000000E+00 0. -1.
         23    2    1    2    0    0  0.14884688600E+04 -0.53705055645E+03 -0.58680433472E+03  0.16899422918E+04  0.87193894091E+02 0.  0.
         11    1    3    3    0    0  0.66222310844E+03 -0.20973946899E+03 -0.29315943393E+03  0.75397118241E+03  0.00000000000E+00 0. -1.
        -11    1    3    3    0    0  0.82624575154E+03 -0.32731108746E+03 -0.29364490078E+03  0.93597110942E+03  0.00000000000E+00 0.  1.
         22    1    1    2    0    0 -0.14884688600E+04  0.53705055645E+03 -0.88325065545E+03  0.18122070984E+04  0.00000000000E+00 0. -1.
<mgrwt>
<rscale>  0 0.31786772E+04</rscale>
<asrwt>0</asrwt>
<pdfrwt beam="1">  1        2 0.38247726E+00 0.31786772E+04</pdfrwt>
<pdfrwt beam="2">  1       -2 0.15631496E+00 0.31786772E+04</pdfrwt>
<totfact> 0.80257219E-01</totfact>
</mgrwt>
</event>
<event>
 6    1  0.1773638E-005  0.4480835E+04  0.7818608E-02  0.7914001E-01
         -1   -1    0    0    0  501 -0.00000000000E+00  0.00000000000E+00  0.12909433854E+04  0.12909433854E+04  0.00000000000E+00 0.  1.
          1   -1    0    0  501    0  0.00000000000E+00 -0.00000000000E+00 -0.38882192663E+04  0.38882192663E+04  0.00000000000E+00 0. -1.
         23    2    1    2    0    0  0.16643375065E+04 -0.14979578482E+04 -0.12532548438E+04  0.25675942343E+04  0.89416988844E+02 0.  0.
         13    1    3    3    0    0  0.36926024975E+03 -0.37676733686E+03 -0.27382044686E+03  0.59437731727E+03  0.00000000000E+00 0. -1.
        -13    1    3    3    0    0  0.12950772568E+04 -0.11211905114E+04 -0.97943439693E+03  0.19732169170E+04  0.00000000000E+00 0.  1.
         22    1    1    2    0    0 -0.16643375065E+04  0.14979578482E+04 -0.13440210371E+04  0.26115684174E+04  0.00000000000E+00 0.  1.
<mgrwt>
<rscale>  0 0.44808352E+04</rscale>
<asrwt>0</asrwt>
<pdfrwt beam="1">  1        1 0.59818759E+00 0.44808352E+04</pdfrwt>
<pdfrwt beam="2">  1       -1 0.19860667E+00 0.44808352E+04</pdfrwt>
<totfact> 0.13855091E-02</totfact>
</mgrwt>
</event>
<event>
 6    1  0.1773638E-005  0.2891662E+04  0.7818608E-02  0.8275363E-01
         -1   -1    0    0    0  501 -0.00000000000E+00  0.00000000000E+00  0.73107785132E+03  0.73107785132E+03  0.00000000000E+00 0.  1.
          1   -1    0    0  501    0  0.00000000000E+00 -0.00000000000E+00 -0.28593774603E+04  0.28593774603E+04  0.00000000000E+00 0. -1.
         23    2    1    2    0    0  0.49020263183E+03  0.75352819014E+03 -0.24688738487E+04  0.26291571444E+04  0.95004502418E+02 0.  0.
         13    1    3    3    0    0  0.27951353723E+03  0.41683335142E+03 -0.12409165545E+04  0.13385633177E+04  0.00000000000E+00 0. -1.
        -13    1    3    3    0    0  0.21068909460E+03  0.33669483872E+03 -0.12279572943E+04  0.12905938267E+04  0.00000000000E+00 0.  1.
         22    1    1    2    0    0 -0.49020263183E+03 -0.75352819014E+03  0.34057423971E+03  0.96129816724E+03  0.00000000000E+00 0.  1.
<mgrwt>
<rscale>  0 0.28916622E+04</rscale>
<asrwt>0</asrwt>
<pdfrwt beam="1">  1        1 0.43990421E+00 0.28916622E+04</pdfrwt>
<pdfrwt beam="2">  1       -1 0.11247352E+00 0.28916622E+04</pdfrwt>
<totfact> 0.46959281E-01</totfact>
</mgrwt>
</event>
<event>
 6    1  0.1773638E-005  0.1466451E+04  0.7818608E-02  0.8907074E-01
          1   -1    0    0  501    0  0.00000000000E+00  0.00000000000E+00  0.11887390281E+04  0.11887390281E+04  0.00000000000E+00 0. -1.
         -1   -1    0    0    0  501 -0.00000000000E+00 -0.00000000000E+00 -0.45226027378E+03  0.45226027378E+03  0.00000000000E+00 0.  1.
         23    2    1    2    0    0 -0.22168370095E+03 -0.17839081732E+03  0.11224128565E+04  0.11615078232E+04  0.91229687757E+02 0.  0.
         11    1    3    3    0    0 -0.11289073521E+03 -0.98293259961E+02  0.41166421725E+03  0.43803345855E+03  0.00000000000E+00 0. -1.
        -11    1    3    3    0    0 -0.10879296573E+03 -0.80097557364E+02  0.71074863925E+03  0.72347436464E+03  0.00000000000E+00 0.  1.
         22    1    1    2    0    0  0.22168370095E+03  0.17839081732E+03 -0.38593410214E+03  0.47949147872E+03  0.00000000000E+00 0.  1.
<mgrwt>
<rscale>  0 0.14664507E+04</rscale>
<asrwt>0</asrwt>
<pdfrwt beam="1">  1        1 0.18288293E+00 0.14664507E+04</pdfrwt>
<pdfrwt beam="2">  1       -1 0.69578504E-01 0.14664507E+04</pdfrwt>
<totfact> 0.22068783E+01</totfact>
</mgrwt>
</event>
<event>
 6    1  0.1773638E-005  0.1334265E+04  0.7818608E-02  0.9002825E-01
          2   -1    0    0  501    0  0.00000000000E+00  0.00000000000E+00  0.23233824161E+04  0.23233824161E+04  0.00000000000E+00 0. -1.
         -2   -1    0    0    0  501 -0.00000000000E+00 -0.00000000000E+00 -0.19155951476E+03  0.19155951476E+03  0.00000000000E+00 0.  1.
         23    2    1    2    0    0  0.39569605788E+03  0.53292985698E+03  0.10319419229E+04  0.12302910953E+04  0.90124603621E+02 0.  0.
         11    1    3    3    0    0  0.17557727885E+03  0.30936188259E+03  0.52699369527E+03  0.63581012110E+03  0.00000000000E+00 0.  1.
        -11    1    3    3    0    0  0.22011877903E+03  0.22356797439E+03  0.50494822764E+03  0.59448097417E+03  0.00000000000E+00 0. -1.
         22    1    1    2    0    0 -0.39569605788E+03 -0.53292985698E+03  0.10998809785E+04  0.12846508356E+04  0.00000000000E+00 0. -1.
<mgrwt>
<rscale>  0 0.13342654E+04</rscale>
<asrwt>0</asrwt>
<pdfrwt beam="1">  1        2 0.35744343E+00 0.13342654E+04</pdfrwt>
<pdfrwt beam="2">  1       -2 0.29470696E-01 0.13342654E+04</pdfrwt>
<totfact> 0.45706658E+01</totfact>
</mgrwt>
</event>
<event>
 6    1  0.1773638E-005  0.2815230E+04  0.7818608E-02  0.8298556E-01
          2   -1    0    0  501    0  0.00000000000E+00  0.00000000000E+00  0.19945950872E+04  0.19945950872E+04  0.00000000000E+00 0. -1.
         -2   -1    0    0    0  501 -0.00000000000E+00 -0.00000000000E+00 -0.99337455253E+03  0.99337455253E+03  0.00000000000E+00 0.  1.
         23    2    1    2    0    0 -0.42543615612E+03 -0.34899977218E+03 -0.87229738096E+03  0.10353134631E+04  0.90412842772E+02 0.  0.
         11    1    3    3    0    0 -0.17759403895E+03 -0.14802523031E+03 -0.45112635152E+03  0.50691823455E+03  0.00000000000E+00 0. -1.
        -11    1    3    3    0    0 -0.24784211718E+03 -0.20097454187E+03 -0.42117102944E+03  0.52839522856E+03  0.00000000000E+00 0.  1.
         22    1    1    2    0    0  0.42543615612E+03  0.34899977218E+03  0.18735179157E+04  0.19526561767E+04  0.00000000000E+00 0. -1.
<mgrwt>
<rscale>  0 0.28152300E+04</rscale>
<asrwt>0</asrwt>
<pdfrwt beam="1">  1        2 0.30686078E+00 0.28152300E+04</pdfrwt>
<pdfrwt beam="2">  1       -2 0.15282685E+00 0.28152300E+04</pdfrwt>
<totfact> 0.16670189E+00</totfact>
</mgrwt>
</event>
<event>
 6    1  0.1773638E-005  0.3062122E+04  0.7818608E-02  0.8226211E-01
         -2   -1    0    0    0  501 -0.00000000000E+00  0.00000000000E+00  0.61345574054E+03  0.61345574054E+03  0.00000000000E+00 0.  1.
          2   -1    0    0  501    0  0.00000000000E+00 -0.00000000000E+00 -0.38212180893E+04  0.38212180893E+04  0.00000000000E+00 0. -1.
         23    2    1    2    0    0  0.65373284802E+03 -0.79428734243E+03 -0.32449564982E+04  0.34052844848E+04  0.89222912352E+02 0.  0.
         13    1    3    3    0    0  0.46044809471E+03 -0.55264752694E+03 -0.21298791859E+04  0.22480696350E+04  0.00000000000E+00 0.  1.
        -13    1    3    3    0    0  0.19328475331E+03 -0.24163981549E+03 -0.11150773123E+04  0.11572148498E+04  0.00000000000E+00 0. -1.
         22    1    1    2    0    0 -0.65373284802E+03  0.79428734243E+03  0.37194149476E+02  0.10293893450E+04  0.00000000000E+00 0.  1.
<mgrwt>
<rscale>  0 0.30621223E+04</rscale>
<asrwt>0</asrwt>
<pdfrwt beam="1">  1        2 0.58787970E+00 0.30621223E+04</pdfrwt>
<pdfrwt beam="2">  1       -2 0.94377808E-01 0.30621223E+04</pdfrwt>
<totfact> 0.38099451E-01</totfact>
</mgrwt>
</event>
<event>
 6    1  0.1773638E-005  0.1996450E+04  0.7818608E-02  0.8608282E-01
          1   -1    0    0  501    0  0.00000000000E+00  0.00000000000E+00  0.14146909769E+04  0.14146909769E+04  0.00000000000E+00 0. -1.
         -1   -1    0    0    0  501 -0.00000000000E+00 -0.00000000000E+00 -0.70436081157E+03  0.70436081157E+03  0.00000000000E+00 0.  1.
         23    2    1    2    0    0 -0.35200967370E+03  0.95584886994E+01 -0.63323272346E+03  0.73010851705E+03  0.89847590526E+02 0.  0.
         13    1    3    3    0    0 -0.17930100524E+03  0.48913824737E+02 -0.30641653348E+03  0.35837481039E+03  0.00000000000E+00 0.  1.
        -13    1    3    3    0    0 -0.17270866847E+03 -0.39355336037E+02 -0.32681618998E+03  0.37173370666E+03  0.00000000000E+00 0. -1.
         22    1    1    2    0    0  0.35200967370E+03 -0.95584886994E+01  0.13435628888E+04  0.13889432714E+04  0.00000000000E+00 0. -1.
<mgrwt>
<rscale>  0 0.19964497E+04</rscale>
<asrwt>0</asrwt>
<pdfrwt beam="1">  1        1 0.21764477E+00 0.19964497E+04</pdfrwt>
<pdfrwt beam="2">  1       -1 0.10836320E+00 0.19964497E+04</pdfrwt>
<totfact> 0.55046555E+00</totfact>
</mgrwt>
</event>
<event>
 6    1  0.1773638E-005  0.1018441E+04  0.7818608E-02  0.9288547E-01
         -1   -1    0    0    0  501 -0.00000000000E+00  0.00000000000E+00  0.15339113813E+03  0.15339113813E+03  0.00000000000E+00 0.  1.
          1   -1    0    0  501    0  0.00000000000E+00 -0.00000000000E+00 -0.16904864478E+04  0.16904864478E+04  0.00000000000E+00 0. -1.
         23    2    1    2    0    0 -0.91022688791E+02  0.48106695805E+03 -0.55000693331E+03  0.74203639468E+03  0.91650621015E+02 0.  0.
         11    1    3    3    0    0 -0.67904411318E+02  0.14090533752E+03 -0.19213704469E+03  0.24775384389E+03  0.00000000000E+00 0.  1.
        -11    1    3    3    0    0 -0.23118277473E+02  0.34016162053E+03 -0.35786988862E+03  0.49428255079E+03  0.00000000000E+00 0. -1.
         22    1    1    2    0    0  0.91022688791E+02 -0.48106695805E+03 -0.98708837637E+03  0.11018411913E+04  0.00000000000E+00 0. -1.
<mgrwt>
<rscale>  0 0.10184412E+04</rscale>
<asrwt>0</asrwt>
<pdfrwt beam="1">  1        1 0.26007483E+00 0.10184412E+04</pdfrwt>
<pdfrwt beam="2">  1       -1 0.23598637E-01 0.10184412E+04</pdfrwt>
<totfact> 0.75005040E+01</totfact>
</mgrwt>
</event>
<event>
 6    1  0.1773638E-005  0.2953098E+04  0.7818608E-02  0.8257252E-01
          2   -1    0    0  501    0  0.00000000000E+00  0.00000000000E+00  0.26945920105E+04  0.26945920105E+04  0.00000000000E+00 0. -1.
         -2   -1    0    0    0  501 -0.00000000000E+00 -0.00000000000E+00 -0.80910070288E+03  0.80910070288E+03  0.00000000000E+00 0.  1.
         23    2    1    2    0    0  0.99418623409E+03  0.79241773956E+03  0.55880795421E+02  0.12757324874E+04  0.89658096031E+02 0.  0.
         11    1    3    3    0    0  0.53332494152E+03  0.44026346515E+03 -0.12711995858E+02  0.69168562717E+03  0.00000000000E+00 0. -1.
        -11    1    3    3    0    0  0.46086129257E+03  0.35215427441E+03  0.68592791279E+02  0.58404686027E+03  0.00000000000E+00 0.  1.
         22    1    1    2    0    0 -0.99418623409E+03 -0.79241773956E+03  0.18296105122E+04  0.22279602260E+04  0.00000000000E+00 0. -1.
<mgrwt>
<rscale>  0 0.29530976E+04</rscale>
<asrwt>0</asrwt>
<pdfrwt beam="1">  1        2 0.41455261E+00 0.29530976E+04</pdfrwt>
<pdfrwt beam="2">  1       -2 0.12447703E+00 0.29530976E+04</pdfrwt>
<totfact> 0.11135523E+00</totfact>
</mgrwt>
</event>
<event>
 6    1  0.1793525E-005  0.5651397E+04  0.7818608E-02  0.7735194E-01
          1   -1    0    0  501    0  0.00000000000E+00  0.00000000000E+00  0.36368985022E+04  0.36368985022E+04  0.00000000000E+00 0. -1.
         -1   -1    0    0    0  501 -0.00000000000E+00 -0.00000000000E+00 -0.21954347517E+04  0.21954347517E+04  0.00000000000E+00 0.  1.
         23    2    1    2    0    0  0.39815202396E+03 -0.15961651866E+03  0.36025246269E+04  0.36291113907E+04  0.90902871405E+02 0.  0.
         11    1    3    3    0    0  0.22926129709E+03 -0.65726613409E+02  0.22998161594E+04  0.23121494538E+04  0.00000000000E+00 0. -1.
        -11    1    3    3    0    0  0.16889072686E+03 -0.93889905253E+02  0.13027084675E+04  0.13169619369E+04  0.00000000000E+00 0.  1.
         22    1    1    2    0    0 -0.39815202396E+03  0.15961651866E+03 -0.21610608763E+04  0.22032218632E+04  0.00000000000E+00 0.  1.
<mgrwt>
<rscale>  0 0.56513975E+04</rscale>
<asrwt>0</asrwt>
<pdfrwt beam="1">  1        1 0.55952285E+00 0.56513975E+04</pdfrwt>
<pdfrwt beam="2">  1       -1 0.33775919E+00 0.56513975E+04</pdfrwt>
<totfact> 0.24903955E-03</totfact>
</mgrwt>
</event>
<event>
 6    1  0.1773638E-005  0.1052321E+04  0.7818608E-02  0.9252951E-01
          2   -1    0    0  501    0  0.00000000000E+00  0.00000000000E+00  0.23927148045E+04  0.23927148045E+04  0.00000000000E+00 0. -1.
         -2   -1    0    0    0  501 -0.00000000000E+00 -0.00000000000E+00 -0.11570316141E+03  0.11570316141E+03  0.00000000000E+00 0.  1.
         23    2    1    2    0    0  0.18708055089E+03 -0.34108075975E+03  0.19773384852E+04  0.20173586836E+04  0.92376166139E+02 0.  0.
         11    1    3    3    0    0  0.82395092344E+02 -0.19413106538E+03  0.85591345957E+03  0.88151215083E+03  0.00000000000E+00 0. -1.
        -11    1    3    3    0    0  0.10468545855E+03 -0.14694969436E+03  0.11214250256E+04  0.11358465328E+04  0.00000000000E+00 0.  1.
         22    1    1    2    0    0 -0.18708055089E+03  0.34108075975E+03  0.29967315793E+03  0.49105928234E+03  0.00000000000E+00 0.  1.
<mgrwt>
<rscale>  0 0.10523206E+04</rscale>
<asrwt>0</asrwt>
<pdfrwt beam="1">  1        2 0.36810993E+00 0.10523206E+04</pdfrwt>
<pdfrwt beam="2">  1       -2 0.17800488E-01 0.10523206E+04</pdfrwt>
<totfact> 0.10555325E+02</totfact>
</mgrwt>
</event>
<event>
 6    1  0.1773638E-005  0.8127511E+03  0.7818608E-02  0.9541742E-01
          2   -1    0    0  501    0  0.00000000000E+00  0.00000000000E+00  0.27642695398E+03  0.27642695398E+03  0.00000000000E+00 0.  1.
         -2   -1    0    0    0  501 -0.00000000000E+00 -0.00000000000E+00 -0.59741314203E+03  0.59741314203E+03  0.00000000000E+00 0. -1.
         23    2    1    2    0    0  0.93638655748E+02  0.15619817229E+03 -0.54697554472E+03  0.58360354386E+03  0.90800787532E+02 0.  0.
         13    1    3    3    0    0  0.32017597863E+02 -0.25643129245E+01 -0.11074660446E+03  0.11531050547E+03  0.00000000000E+00 0.  1.
        -13    1    3    3    0    0  0.61621057886E+02  0.15876248521E+03 -0.43622894026E+03  0.46829303839E+03  0.00000000000E+00 0. -1.
         22    1    1    2    0    0 -0.93638655748E+02 -0.15619817229E+03  0.22598935666E+03  0.29023655215E+03  0.00000000000E+00 0.  1.
<mgrwt>
<rscale>  0 0.81275112E+03</rscale>
<asrwt>0</asrwt>
<pdfrwt beam="1">  1        2 0.42527224E-01 0.81275112E+03</pdfrwt>
<pdfrwt beam="2">  1       -2 0.91909714E-01 0.81275112E+03</pdfrwt>
<totfact> 0.12192850E+02</totfact>
</mgrwt>
</event>
<event>
 6    1  0.1773638E-005  0.9456809E+03  0.7818608E-02  0.9370213E-01
          2   -1    0    0  501    0  0.00000000000E+00  0.00000000000E+00  0.64342841790E+03  0.64342841790E+03  0.00000000000E+00 0. -1.
         -2   -1    0    0    0  501 -0.00000000000E+00 -0.00000000000E+00 -0.34747938228E+03  0.34747938228E+03  0.00000000000E+00 0.  1.
         23    2    1    2    0    0 -0.38659179531E+03  0.21850347954E+03 -0.93433064260E+01  0.45201968480E+03  0.83889876007E+02 0.  0.
         13    1    3    3    0    0 -0.26262342604E+03  0.19013061366E+03 -0.16517222576E+02  0.32464370131E+03  0.00000000000E+00 0. -1.
        -13    1    3    3    0    0 -0.12396836927E+03  0.28372865884E+02  0.71739161497E+01  0.12737598349E+03  0.00000000000E+00 0.  1.
         22    1    1    2    0    0  0.38659179531E+03 -0.21850347954E+03  0.30529234205E+03  0.53888811537E+03  0.00000000000E+00 0. -1.
<mgrwt>
<rscale>  0 0.94568094E+03</rscale>
<asrwt>0</asrwt>
<pdfrwt beam="1">  1        2 0.98988987E-01 0.94568094E+03</pdfrwt>
<pdfrwt beam="2">  1       -2 0.53458367E-01 0.94568094E+03</pdfrwt>
<totfact> 0.15037731E+02</totfact>
</mgrwt>
</event>
<event>
 6    1  0.1773638E-005  0.1958826E+04  0.7818608E-02  0.8626117E-01
         -2   -1    0    0    0  501 -0.00000000000E+00  0.00000000000E+00  0.66534057846E+03  0.66534057846E+03  0.00000000000E+00 0. -1.
          2   -1    0    0  501    0  0.00000000000E+00 -0.00000000000E+00 -0.14417420850E+04  0.14417420850E+04  0.00000000000E+00 0.  1.
         23    2    1    2    0    0 -0.92998094392E+03  0.17640755235E+03 -0.64822239364E+03  0.11518789859E+04  0.10319276114E+03 0.  0.
         11    1    3    3    0    0 -0.98663426518E+02  0.15435752647E+01 -0.10198635897E+03  0.14190867406E+03  0.00000000000E+00 0.  1.
        -11    1    3    3    0    0 -0.83131751740E+03  0.17486397709E+03 -0.54623603466E+03  0.10099703118E+04  0.00000000000E+00 0. -1.
         22    1    1    2    0    0  0.92998094392E+03 -0.17640755235E+03 -0.12817911286E+03  0.95520367752E+03  0.00000000000E+00 0. -1.
<mgrwt>
<rscale>  0 0.19588257E+04</rscale>
<asrwt>0</asrwt>
<pdfrwt beam="1">  1        2 0.22180647E+00 0.19588257E+04</pdfrwt>
<pdfrwt beam="2">  1       -2 0.10236009E+00 0.19588257E+04</pdfrwt>
<totfact> 0.99775982E+00</totfact>
</mgrwt>
</event>
<event>
 6    1  0.1773638E-005  0.1700444E+04  0.7818608E-02  0.8761111E-01
          1   -1    0    0  501    0  0.00000000000E+00  0.00000000000E+00  0.20839831518E+04  0.20839831518E+04  0.00000000000E+00 0. -1.
         -1   -1    0    0    0  501 -0.00000000000E+00 -0.00000000000E+00 -0.34687306400E+03  0.34687306400E+03  0.00000000000E+00 0.  1.
         23    2    1    2    0    0  0.58255870725E+03 -0.72711350736E+02  0.17449424267E+04  0.18437251116E+04  0.99179770685E+02 0.  0.
         11    1    3    3    0    0  0.44473307105E+03 -0.14528534732E+02  0.13467855597E+04  0.14183899064E+04  0.00000000000E+00 0.  1.
        -11    1    3    3    0    0  0.13782563621E+03 -0.58182816004E+02  0.39815686700E+03  0.42533520524E+03  0.00000000000E+00 0. -1.
         22    1    1    2    0    0 -0.58255870725E+03  0.72711350736E+02 -0.78323389053E+01  0.58713110415E+03  0.00000000000E+00 0.  1.
<mgrwt>
<rscale>  0 0.17004442E+04</rscale>
<asrwt>0</asrwt>
<pdfrwt beam="1">  1        1 0.32061279E+00 0.17004442E+04</pdfrwt>
<pdfrwt beam="2">  1       -1 0.53365088E-01 0.17004442E+04</pdfrwt>
<totfact> 0.88118421E+00</totfact>
</mgrwt>
</event>
<event>
 6    1  0.1773638E-005  0.1462387E+04  0.7818608E-02  0.8909858E-01
          2   -1    0    0  501    0  0.00000000000E+00  0.00000000000E+00  0.75867104743E+03  0.75867104743E+03  0.00000000000E+00 0.  1.
         -2   -1    0    0    0  501 -0.00000000000E+00 -0.00000000000E+00 -0.70471092531E+03  0.70471092531E+03  0.00000000000E+00 0. -1.
         23    2    1    2    0    0  0.21941072351E+03  0.31742362319E+03  0.64523619664E+03  0.75733224471E+03  0.91233531534E+02 0.  0.
         13    1    3    3    0    0  0.35317529328E+02  0.77721975109E+02  0.21694024505E+03  0.23313323061E+03  0.00000000000E+00 0.  1.
        -13    1    3    3    0    0  0.18409319418E+03  0.23970164808E+03  0.42829595159E+03  0.52419901410E+03  0.00000000000E+00 0. -1.
         22    1    1    2    0    0 -0.21941072351E+03 -0.31742362319E+03 -0.59127607452E+03  0.70604972803E+03  0.00000000000E+00 0. -1.
<mgrwt>
<rscale>  0 0.14623868E+04</rscale>
<asrwt>0</asrwt>
<pdfrwt beam="1">  1        2 0.11671862E+00 0.14623868E+04</pdfrwt>
<pdfrwt beam="2">  1       -2 0.10841707E+00 0.14623868E+04</pdfrwt>
<totfact> 0.24359403E+01</totfact>
</mgrwt>
</event>
<event>
 6    1  0.1773638E-005  0.6794769E+04  0.7818608E-02  0.7598979E-01
          2   -1    0    0  501    0  0.00000000000E+00  0.00000000000E+00  0.38278148284E+04  0.38278148284E+04  0.00000000000E+00 0. -1.
         -2   -1    0    0    0  501 -0.00000000000E+00 -0.00000000000E+00 -0.30153547822E+04  0.30153547822E+04  0.00000000000E+00 0.  1.
         23    2    1    2    0    0 -0.32841154648E+04  0.42676949485E+03 -0.35425586251E+03  0.33319344150E+04  0.93504769450E+02 0.  0.
         13    1    3    3    0    0 -0.17167844662E+04  0.20900440404E+03 -0.22980920931E+03  0.17446615766E+04  0.00000000000E+00 0.  1.
        -13    1    3    3    0    0 -0.15673309986E+04  0.21776509082E+03 -0.12444665320E+03  0.15872728383E+04  0.00000000000E+00 0. -1.
         22    1    1    2    0    0  0.32841154648E+04 -0.42676949485E+03  0.11667159087E+04  0.35112351956E+04  0.00000000000E+00 0. -1.
<mgrwt>
<rscale>  0 0.67947685E+04</rscale>
<asrwt>0</asrwt>
<pdfrwt beam="1">  1        2 0.58889459E+00 0.67947685E+04</pdfrwt>
<pdfrwt beam="2">  1       -2 0.46390073E+00 0.67947685E+04</pdfrwt>
<totfact> 0.83548744E-04</totfact>
</mgrwt>
</event>
<event>
 6    1  0.1773638E-005  0.4098849E+04  0.7818608E-02  0.7984897E-01
          2   -1    0    0  501    0  0.00000000000E+00  0.00000000000E+00  0.34004236505E+04  0.34004236505E+04  0.00000000000E+00 0. -1.
         -2   -1    0    0    0  501 -0.00000000000E+00 -0.00000000000E+00 -0.12351818649E+04  0.12351818649E+04  0.00000000000E+00 0.  1.
         23    2    1    2    0    0 -0.19513374339E+04 -0.58677231296E+03  0.13211305140E+04  0.24300345311E+04  0.87535475620E+02 0.  0.
         11    1    3    3    0    0 -0.83859486337E+03 -0.25823440212E+03  0.62024072150E+03  0.10745347383E+04  0.00000000000E+00 0.  1.
        -11    1    3    3    0    0 -0.11127425705E+04 -0.32853791084E+03  0.70088979248E+03  0.13554997928E+04  0.00000000000E+00 0. -1.
         22    1    1    2    0    0  0.19513374339E+04  0.58677231296E+03  0.84411127162E+03  0.22055709843E+04  0.00000000000E+00 0.  1.
<mgrwt>
<rscale>  0 0.40988494E+04</rscale>
<asrwt>0</asrwt>
<pdfrwt beam="1">  1        2 0.52314210E+00 0.40988494E+04</pdfrwt>
<pdfrwt beam="2">  1       -2 0.19002798E+00 0.40988494E+04</pdfrwt>
<totfact> 0.11535026E-01</totfact>
</mgrwt>
</event>
<event>
 6    1  0.1773638E-005  0.4813979E+04  0.7818608E-02  0.7857861E-01
         -1   -1    0    0    0  501 -0.00000000000E+00  0.00000000000E+00  0.28736994996E+04  0.28736994996E+04  0.00000000000E+00 0.  1.
          1   -1    0    0  501    0  0.00000000000E+00 -0.00000000000E+00 -0.20160763778E+04  0.20160763778E+04  0.00000000000E+00 0. -1.
         23    2    1    2    0    0 -0.96208916526E+03 -0.54017203687E+03 -0.17429479262E+04  0.20648208039E+04  0.90642634877E+02 0.  0.
         13    1    3    3    0    0 -0.66575742577E+03 -0.40647964497E+03 -0.11732104963E+04  0.14088582329E+04  0.00000000000E+00 0. -1.
        -13    1    3    3    0    0 -0.29633173949E+03 -0.13369239191E+03 -0.56973742995E+03  0.65596257101E+03  0.00000000000E+00 0.  1.
         22    1    1    2    0    0  0.96208916526E+03  0.54017203687E+03  0.26005710480E+04  0.28249550735E+04  0.00000000000E+00 0.  1.
<mgrwt>
<rscale>  0 0.48139787E+04</rscale>
<asrwt>0</asrwt>
<pdfrwt beam="1">  1        1 0.31016560E+00 0.48139787E+04</pdfrwt>
<pdfrwt beam="2">  1       -1 0.44210762E+00 0.48139787E+04</pdfrwt>
<totfact> 0.78211038E-03</totfact>
</mgrwt>
</event>
<event>
 6    1  0.1773638E-005  0.1434771E+04  0.7818608E-02  0.8929027E-01
         -1   -1    0    0    0  501 -0.00000000000E+00  0.00000000000E+00  0.55878638085E+03  0.55878638085E+03  0.00000000000E+00 0.  1.
          1   -1    0    0  501    0  0.00000000000E+00 -0.00000000000E+00 -0.92099960203E+03  0.92099960203E+03  0.00000000000E+00 0. -1.
         23    2    1    2    0    0 -0.17393405162E+03 -0.38205893389E+03  0.41453177114E+03  0.59686193950E+03  0.90473765568E+02 0.  0.
         11    1    3    3    0    0 -0.85870372809E+02 -0.12603429940E+03  0.10254549913E+03  0.18377688903E+03  0.00000000000E+00 0. -1.
        -11    1    3    3    0    0 -0.88063678814E+02 -0.25602463450E+03  0.31198627202E+03  0.41308505047E+03  0.00000000000E+00 0.  1.
         22    1    1    2    0    0  0.17393405162E+03  0.38205893389E+03 -0.77674499232E+03  0.88292404338E+03  0.00000000000E+00 0. -1.
<mgrwt>
<rscale>  0 0.14347711E+04</rscale>
<asrwt>0</asrwt>
<pdfrwt beam="1">  1        1 0.14169224E+00 0.14347711E+04</pdfrwt>
<pdfrwt beam="2">  1       -1 0.85967137E-01 0.14347711E+04</pdfrwt>
<totfact> 0.22728000E+01</totfact>
</mgrwt>
</event>
<event>
 6    1  0.1773638E-005  0.1688562E+04  0.7818608E-02  0.8767915E-01
          2   -1    0    0  501    0  0.00000000000E+00  0.00000000000E+00  0.39935268314E+04  0.39935268314E+04  0.00000000000E+00 0. -1.
         -2   -1    0    0    0  501 -0.00000000000E+00 -0.00000000000E+00 -0.17849148305E+03  0.17849148305E+03  0.00000000000E+00 0.  1.
         23    2    1    2    0    0 -0.54337674230E+03 -0.60097019424E+03  0.24779157181E+04  0.26085886345E+04  0.90801430453E+02 0.  0.
         11    1    3    3    0    0 -0.23356997723E+03 -0.31509271234E+03  0.12734349988E+04  0.13324695298E+04  0.00000000000E+00 0.  1.
        -11    1    3    3    0    0 -0.30980676507E+03 -0.28587748190E+03  0.12044807193E+04  0.12761191047E+04  0.00000000000E+00 0. -1.
         22    1    1    2    0    0  0.54337674230E+03  0.60097019424E+03  0.13371196303E+04  0.15634296800E+04  0.00000000000E+00 0.  1.
<mgrwt>
<rscale>  0 0.16885621E+04</rscale>
<asrwt>0</asrwt>
<pdfrwt beam="1">  1        2 0.61438867E+00 0.16885621E+04</pdfrwt>
<pdfrwt beam="2">  1       -2 0.27460231E-01 0.16885621E+04</pdfrwt>
<totfact> 0.40552746E+00</totfact>
</mgrwt>
</event>
<event>
 6    1  0.1773638E-005  0.2034737E+04  0.7818608E-02  0.8590550E-01
         -1   -1    0    0    0  501 -0.00000000000E+00  0.00000000000E+00  0.52795967968E+03  0.52795967968E+03  0.00000000000E+00 0.  1.
          1   -1    0    0  501    0  0.00000000000E+00 -0.00000000000E+00 -0.19604494458E+04  0.19604494458E+04  0.00000000000E+00 0. -1.
         23    2    1    2    0    0 -0.68949702724E+03 -0.16643178014E+03 -0.16063299913E+04  0.17581173263E+04  0.87033350038E+02 0.  0.
         13    1    3    3    0    0 -0.46578700759E+03 -0.88686901741E+02 -0.98506823845E+03  0.10932439514E+04  0.00000000000E+00 0. -1.
        -13    1    3    3    0    0 -0.22371001966E+03 -0.77744878403E+02 -0.62126175287E+03  0.66487337485E+03  0.00000000000E+00 0.  1.
         22    1    1    2    0    0  0.68949702724E+03  0.16643178014E+03  0.17384022521E+03  0.73029179916E+03  0.00000000000E+00 0.  1.
<mgrwt>
<rscale>  0 0.20347366E+04</rscale>
<asrwt>0</asrwt>
<pdfrwt beam="1">  1        1 0.30160761E+00 0.20347366E+04</pdfrwt>
<pdfrwt beam="2">  1       -1 0.81224566E-01 0.20347366E+04</pdfrwt>
<totfact> 0.44268539E+00</totfact>
</mgrwt>
</event>
<event>
 6    1  0.1773638E-005  0.1251680E+04  0.7818608E-02  0.9068786E-01
          1   -1    0    0  501    0  0.00000000000E+00  0.00000000000E+00  0.10711880652E+04  0.10711880652E+04  0.00000000000E+00 0. -1.
         -1   -1    0    0    0  501 -0.00000000000E+00 -0.00000000000E+00 -0.36564595491E+03  0.36564595491E+03  0.00000000000E+00 0.  1.
         23    2    1    2    0    0  0.14458263043E+03 -0.55754640959E+03  0.83371291689E+02  0.58897868848E+03  0.90459865888E+02 0.  0.
         11    1    3    3    0    0  0.34874263422E+02 -0.28676851253E+03  0.17030782821E+02  0.28938286334E+03  0.00000000000E+00 0.  1.
        -11    1    3    3    0    0  0.10970836700E+03 -0.27077789706E+03  0.66340508869E+02  0.29959582514E+03  0.00000000000E+00 0. -1.
         22    1    1    2    0    0 -0.14458263043E+03  0.55754640959E+03  0.62217081861E+03  0.84785533165E+03  0.00000000000E+00 0. -1.
<mgrwt>
<rscale>  0 0.12516798E+04</rscale>
<asrwt>0</asrwt>
<pdfrwt beam="1">  1        1 0.16479816E+00 0.12516798E+04</pdfrwt>
<pdfrwt beam="2">  1       -1 0.56253224E-01 0.12516798E+04</pdfrwt>
<totfact> 0.42032409E+01</totfact>
</mgrwt>
</event>
<event>
 6    1  0.1773638E-005  0.2193141E+04  0.7818608E-02  0.8521288E-01
         -1   -1    0    0    0  501 -0.00000000000E+00  0.00000000000E+00  0.10944187369E+04  0.10944187369E+04  0.00000000000E+00 0.  1.
          1   -1    0    0  501    0  0.00000000000E+00 -0.00000000000E+00 -0.10987267709E+04  0.10987267709E+04  0.00000000000E+00 0. -1.
         23    2    1    2    0    0 -0.43376856472E+02  0.34937048367E+03 -0.10387946608E+04  0.11003949106E+04  0.88506075985E+02 0.  0.
         13    1    3    3    0    0 -0.19354718035E+02  0.20245390377E+02 -0.14374307904E+03  0.14644641926E+03  0.00000000000E+00 0.  1.
        -13    1    3    3    0    0 -0.24022138437E+02  0.32912509330E+03 -0.89505158177E+03  0.95394849137E+03  0.00000000000E+00 0. -1.
         22    1    1    2    0    0  0.43376856472E+02 -0.34937048367E+03  0.10344866268E+04  0.10927505971E+04  0.00000000000E+00 0.  1.
<mgrwt>
<rscale>  0 0.21931413E+04</rscale>
<asrwt>0</asrwt>
<pdfrwt beam="1">  1        1 0.16903489E+00 0.21931413E+04</pdfrwt>
<pdfrwt beam="2">  1       -1 0.16837211E+00 0.21931413E+04</pdfrwt>
<totfact> 0.29325003E+00</totfact>
</mgrwt>
</event>
<event>
 6    1  0.1773638E-005  0.2983365E+04  0.7818608E-02  0.8248497E-01
         -1   -1    0    0    0  501 -0.00000000000E+00  0.00000000000E+00  0.18979378550E+04  0.18979378550E+04  0.00000000000E+00 0.  1.
          1   -1    0    0  501    0  0.00000000000E+00 -0.00000000000E+00 -0.11723864445E+04  0.11723864445E+04  0.00000000000E+00 0. -1.
         23    2    1    2    0    0  0.20622742691E+03 -0.32249217214E+03  0.18454425185E+04  0.18868180484E+04  0.88844277560E+02 0.  0.
         13    1    3    3    0    0  0.13128691464E+03 -0.24895086679E+03  0.11772027652E+04  0.12103797496E+04  0.00000000000E+00 0. -1.
        -13    1    3    3    0    0  0.74940512267E+02 -0.73541305342E+02  0.66823975338E+03  0.67643829872E+03  0.00000000000E+00 0.  1.
         22    1    1    2    0    0 -0.20622742691E+03  0.32249217214E+03 -0.11198911080E+04  0.11835062511E+04  0.00000000000E+00 0. -1.
<mgrwt>
<rscale>  0 0.29833650E+04</rscale>
<asrwt>0</asrwt>
<pdfrwt beam="1">  1        1 0.18036715E+00 0.29833650E+04</pdfrwt>
<pdfrwt beam="2">  1       -1 0.29199044E+00 0.29833650E+04</pdfrwt>
<totfact> 0.35513186E-01</totfact>
</mgrwt>
</event>
<event>
 6    1  0.1773638E-005  0.1454493E+04  0.7818608E-02  0.8915291E-01
          1   -1    0    0  501    0  0.00000000000E+00  0.00000000000E+00  0.15486312064E+04  0.15486312064E+04  0.00000000000E+00 0. -1.
         -1   -1    0    0    0  501 -0.00000000000E+00 -0.00000000000E+00 -0.34151938486E+03  0.34151938486E+03  0.00000000000E+00 0.  1.
         23    2    1    2    0    0 -0.64442623779E+03  0.19853104450E+03  0.26199631800E+03  0.72914108802E+03  0.91131246088E+02 0.  0.
         13    1    3    3    0    0 -0.18597927240E+03  0.64110819072E+02  0.12128488023E+03  0.23110281058E+03  0.00000000000E+00 0. -1.
        -13    1    3    3    0    0 -0.45844696538E+03  0.13442022543E+03  0.14071143776E+03  0.49803827744E+03  0.00000000000E+00 0.  1.
         22    1    1    2    0    0  0.64442623779E+03 -0.19853104450E+03  0.94511550355E+03  0.11610095032E+04  0.00000000000E+00 0. -1.
<mgrwt>
<rscale>  0 0.14544931E+04</rscale>
<asrwt>0</asrwt>
<pdfrwt beam="1">  1        1 0.23825095E+00 0.14544931E+04</pdfrwt>
<pdfrwt beam="2">  1       -1 0.52541445E-01 0.14544931E+04</pdfrwt>
<totfact> 0.21452818E+01</totfact>
</mgrwt>
</event>
<event>
 6    1  0.1773638E-005  0.2592964E+04  0.7818608E-02  0.8370595E-01
         -2   -1    0    0    0  501 -0.00000000000E+00  0.00000000000E+00  0.14582983990E+04  0.14582983990E+04  0.00000000000E+00 0.  1.
          2   -1    0    0  501    0  0.00000000000E+00 -0.00000000000E+00 -0.11526210296E+04  0.11526210296E+04  0.00000000000E+00 0. -1.
         23    2    1    2    0    0 -0.87161658082E+03  0.19862330701E+03  0.10962077059E+04  0.14175607671E+04  0.92954352826E+02 0.  0.
         13    1    3    3    0    0 -0.40788288807E+03  0.67509724865E+02  0.56824275555E+03  0.70272743120E+03  0.00000000000E+00 0.  1.
        -13    1    3    3    0    0 -0.46373369276E+03  0.13111358215E+03  0.52796495037E+03  0.71483333585E+03  0.00000000000E+00 0. -1.
         22    1    1    2    0    0  0.87161658082E+03 -0.19862330701E+03 -0.79053033659E+03  0.11933586616E+04  0.00000000000E+00 0. -1.
<mgrwt>
<rscale>  0 0.25929639E+04</rscale>
<asrwt>0</asrwt>
<pdfrwt beam="1">  1        2 0.17732631E+00 0.25929639E+04</pdfrwt>
<pdfrwt beam="2">  1       -2 0.22435360E+00 0.25929639E+04</pdfrwt>
<totfact> 0.16607789E+00</totfact>
</mgrwt>
</event>
<event>
 6    1  0.1773638E-005  0.3068777E+04  0.7818608E-02  0.8224359E-01
          1   -1    0    0  501    0  0.00000000000E+00  0.00000000000E+00  0.87837472314E+03  0.87837472314E+03  0.00000000000E+00 0. -1.
         -1   -1    0    0    0  501 -0.00000000000E+00 -0.00000000000E+00 -0.26803457174E+04  0.26803457174E+04  0.00000000000E+00 0.  1.
         23    2    1    2    0    0  0.88815085320E+03 -0.10024749927E+04 -0.36885264819E+02  0.13430273929E+04  0.92703863335E+02 0.  0.
         11    1    3    3    0    0  0.46972692487E+03 -0.55768186745E+03  0.22368641435E+02  0.72948804332E+03  0.00000000000E+00 0. -1.
        -11    1    3    3    0    0  0.41842392833E+03 -0.44479312527E+03 -0.59253906254E+02  0.61353934958E+03  0.00000000000E+00 0.  1.
         22    1    1    2    0    0 -0.88815085320E+03  0.10024749927E+04 -0.17650857294E+04  0.22156930476E+04  0.00000000000E+00 0.  1.
<mgrwt>
<rscale>  0 0.30687769E+04</rscale>
<asrwt>0</asrwt>
<pdfrwt beam="1">  1        1 0.13513457E+00 0.30687769E+04</pdfrwt>
<pdfrwt beam="2">  1       -1 0.41236088E+00 0.30687769E+04</pdfrwt>
<totfact> 0.94334890E-02</totfact>
</mgrwt>
</event>
<event>
 6    1  0.1773638E-005  0.8155236E+03  0.7818608E-02  0.9537815E-01
          2   -1    0    0  501    0  0.00000000000E+00  0.00000000000E+00  0.54533504465E+03  0.54533504465E+03  0.00000000000E+00 0. -1.
         -2   -1    0    0    0  501 -0.00000000000E+00 -0.00000000000E+00 -0.30489453470E+03  0.30489453470E+03  0.00000000000E+00 0.  1.
         23    2    1    2    0    0  0.59712275547E+02  0.23609441297E+03  0.45592430137E+03  0.52505363921E+03  0.92240055182E+02 0.  0.
         11    1    3    3    0    0  0.73977132552E+02  0.17138910393E+03  0.27495478999E+03  0.33233564002E+03  0.00000000000E+00 0.  1.
        -11    1    3    3    0    0 -0.14264857006E+02  0.64705309038E+02  0.18096951138E+03  0.19271799919E+03  0.00000000000E+00 0. -1.
         22    1    1    2    0    0 -0.59712275547E+02 -0.23609441297E+03 -0.21548379141E+03  0.32517594014E+03  0.00000000000E+00 0.  1.
<mgrwt>
<rscale>  0 0.81552357E+03</rscale>
<asrwt>0</asrwt>
<pdfrwt beam="1">  1        2 0.83897699E-01 0.81552357E+03</pdfrwt>
<pdfrwt beam="2">  1       -2 0.46906852E-01 0.81552357E+03</pdfrwt>
<totfact> 0.24109335E+02</totfact>
</mgrwt>
</event>
<event>
 6    1  0.1773638E-005  0.7360818E+03  0.7818608E-02  0.9657442E-01
         -2   -1    0    0    0  501 -0.00000000000E+00  0.00000000000E+00  0.19884894215E+03  0.19884894215E+03  0.00000000000E+00 0.  1.
          2   -1    0    0  501    0  0.00000000000E+00 -0.00000000000E+00 -0.68119102387E+03  0.68119102387E+03  0.00000000000E+00 0. -1.
         23    2    1    2    0    0 -0.36703145421E+02  0.22922828732E+03  0.88852184969E+02  0.26347235505E+03  0.87351259366E+02 0.  0.
         13    1    3    3    0    0 -0.49284905742E+02  0.21133872772E+03  0.56193559399E+02  0.22416684832E+03  0.00000000000E+00 0. -1.
        -13    1    3    3    0    0  0.12581760322E+02  0.17889559599E+02  0.32658625570E+02  0.39305506733E+02  0.00000000000E+00 0.  1.
         22    1    1    2    0    0  0.36703145421E+02 -0.22922828732E+03 -0.57119426669E+03  0.61656761096E+03  0.00000000000E+00 0. -1.
<mgrwt>
<rscale>  0 0.73608183E+03</rscale>
<asrwt>0</asrwt>
<pdfrwt beam="1">  1        2 0.10479862E+00 0.73608183E+03</pdfrwt>
<pdfrwt beam="2">  1       -2 0.30592145E-01 0.73608183E+03</pdfrwt>
<totfact> 0.42164321E+02</totfact>
</mgrwt>
</event>
<event>
 6    1  0.1773638E-005  0.2501930E+04  0.7818608E-02  0.8402298E-01
         -2   -1    0    0    0  501 -0.00000000000E+00  0.00000000000E+00  0.10419855206E+04  0.10419855206E+04  0.00000000000E+00 0.  1.
          2   -1    0    0  501    0  0.00000000000E+00 -0.00000000000E+00 -0.15018568305E+04  0.15018568305E+04  0.00000000000E+00 0. -1.
         23    2    1    2    0    0 -0.13541504715E+03 -0.94287039238E+03  0.59143247263E+03  0.11251875464E+04  0.94407801607E+02 0.  0.
         13    1    3    3    0    0 -0.65240626009E+02 -0.62734869633E+03  0.43424960171E+03  0.76576461308E+03  0.00000000000E+00 0. -1.
        -13    1    3    3    0    0 -0.70174421139E+02 -0.31552169605E+03  0.15718287092E+03  0.35942293329E+03  0.00000000000E+00 0.  1.
         22    1    1    2    0    0  0.13541504715E+03  0.94287039238E+03 -0.10513037825E+04  0.14186548047E+04  0.00000000000E+00 0. -1.
<mgrwt>
<rscale>  0 0.25019297E+04</rscale>
<asrwt>0</asrwt>
<pdfrwt beam="1">  1        2 0.23105490E+00 0.25019297E+04</pdfrwt>
<pdfrwt beam="2">  1       -2 0.16030546E+00 0.25019297E+04</pdfrwt>
<totfact> 0.28301215E+00</totfact>
</mgrwt>
</event>
<event>
 6    1  0.1773638E-005  0.1983656E+04  0.7818608E-02  0.8614300E-01
          2   -1    0    0  501    0  0.00000000000E+00  0.00000000000E+00  0.18499542686E+04  0.18499542686E+04  0.00000000000E+00 0.  1.
         -2   -1    0    0    0  501 -0.00000000000E+00 -0.00000000000E+00 -0.53175527640E+03  0.53175527640E+03  0.00000000000E+00 0. -1.
         23    2    1    2    0    0 -0.75951219541E+02  0.93680195734E+03  0.10322057458E+04  0.13992846716E+04  0.95824815848E+02 0.  0.
         13    1    3    3    0    0 -0.43097892088E+02  0.25919920068E+03  0.23517432220E+03  0.35263099092E+03  0.00000000000E+00 0. -1.
        -13    1    3    3    0    0 -0.32853327453E+02  0.67760275666E+03  0.79703142362E+03  0.10466536806E+04  0.00000000000E+00 0.  1.
         22    1    1    2    0    0  0.75951219541E+02 -0.93680195734E+03  0.28599324640E+03  0.98242487347E+03  0.00000000000E+00 0. -1.
<mgrwt>
<rscale>  0 0.19836562E+04</rscale>
<asrwt>0</asrwt>
<pdfrwt beam="1">  1        2 0.28460835E+00 0.19836562E+04</pdfrwt>
<pdfrwt beam="2">  1       -2 0.81808505E-01 0.19836562E+04</pdfrwt>
<totfact> 0.98968435E+00</totfact>
</mgrwt>
</event>
<event>
 6    1  0.1773638E-005  0.5532439E+04  0.7818608E-02  0.7751241E-01
         -2   -1    0    0    0  501 -0.00000000000E+00  0.00000000000E+00  0.19312156056E+04  0.19312156056E+04  0.00000000000E+00 0.  1.
          2   -1    0    0  501    0  0.00000000000E+00 -0.00000000000E+00 -0.39622551386E+04  0.39622551386E+04  0.00000000000E+00 0. -1.
         23    2    1    2    0    0 -0.98155142189E+03  0.17354555259E+04 -0.30572302295E+04  0.36510799617E+04  0.92082218319E+02 0.  0.
         11    1    3    3    0    0 -0.96654897358E+03  0.17004291236E+04 -0.30180282325E+04  0.35964107851E+04  0.00000000000E+00 0.  1.
        -11    1    3    3    0    0 -0.15002448312E+02  0.35026402309E+02 -0.39201996941E+02  0.54669176674E+02  0.00000000000E+00 0. -1.
         22    1    1    2    0    0  0.98155142189E+03 -0.17354555259E+04  0.10261906965E+04  0.22423907825E+04  0.00000000000E+00 0.  1.
<mgrwt>
<rscale>  0 0.55324385E+04</rscale>
<asrwt>0</asrwt>
<pdfrwt beam="1">  1        2 0.60957771E+00 0.55324385E+04</pdfrwt>
<pdfrwt beam="2">  1       -2 0.29711009E+00 0.55324385E+04</pdfrwt>
<totfact> 0.84380013E-03</totfact>
</mgrwt>
</event>
<event>
 6    1  0.1773638E-005  0.2084213E+04  0.7818608E-02  0.8568230E-01
         -2   -1    0    0    0  501 -0.00000000000E+00  0.00000000000E+00  0.69265344431E+03  0.69265344431E+03  0.00000000000E+00 0.  1.
          2   -1    0    0  501    0  0.00000000000E+00 -0.00000000000E+00 -0.15678631530E+04  0.15678631530E+04  0.00000000000E+00 0. -1.
         23    2    1    2    0    0 -0.31558179305E+03  0.14741644870E+03 -0.15013826998E+04  0.15439860033E+04  0.91756687773E+02 0.  0.
         11    1    3    3    0    0 -0.25982008559E+03  0.11729405169E+03 -0.10434946655E+04  0.10817326326E+04  0.00000000000E+00 0.  1.
        -11    1    3    3    0    0 -0.55761707454E+02  0.30122397014E+02 -0.45788803425E+03  0.46225337070E+03  0.00000000000E+00 0. -1.
         22    1    1    2    0    0  0.31558179305E+03 -0.14741644870E+03  0.62617299106E+03  0.71653059403E+03  0.00000000000E+00 0.  1.
<mgrwt>
<rscale>  0 0.20842129E+04</rscale>
<asrwt>0</asrwt>
<pdfrwt beam="1">  1        2 0.24120971E+00 0.20842129E+04</pdfrwt>
<pdfrwt beam="2">  1       -2 0.10656207E+00 0.20842129E+04</pdfrwt>
<totfact> 0.76102531E+00</totfact>
</mgrwt>
</event>
<event>
 6    1  0.1773638E-005  0.9858095E+03  0.7818608E-02  0.9324247E-01
          1   -1    0    0  501    0  0.00000000000E+00  0.00000000000E+00  0.63443449539E+03  0.63443449539E+03  0.00000000000E+00 0. -1.
         -1   -1    0    0    0  501 -0.00000000000E+00 -0.00000000000E+00 -0.38294750288E+03  0.38294750288E+03  0.00000000000E+00 0.  1.
         23    2    1    2    0    0  0.14115192542E+03  0.53746842893E+02  0.60653769742E+03  0.63154059015E+03  0.90238292528E+02 0.  0.
         13    1    3    3    0    0  0.48521536617E+02  0.44745850625E+02  0.39441756279E+03  0.39990216866E+03  0.00000000000E+00 0. -1.
        -13    1    3    3    0    0  0.92630388801E+02  0.90009922677E+01  0.21212013463E+03  0.23163842148E+03  0.00000000000E+00 0.  1.
         22    1    1    2    0    0 -0.14115192542E+03 -0.53746842893E+02 -0.35505070491E+03  0.38584140813E+03  0.00000000000E+00 0.  1.
<mgrwt>
<rscale>  0 0.98580953E+03</rscale>
<asrwt>0</asrwt>
<pdfrwt beam="1">  1        1 0.97605307E-01 0.98580953E+03</pdfrwt>
<pdfrwt beam="2">  1       -1 0.58915001E-01 0.98580953E+03</pdfrwt>
<totfact> 0.92507155E+01</totfact>
</mgrwt>
</event>
<event>
 6    1  0.1773638E-005  0.3116767E+04  0.7818608E-02  0.8211151E-01
          2   -1    0    0  501    0  0.00000000000E+00  0.00000000000E+00  0.26431825438E+04  0.26431825438E+04  0.00000000000E+00 0. -1.
         -2   -1    0    0    0  501 -0.00000000000E+00 -0.00000000000E+00 -0.91880103388E+03  0.91880103388E+03  0.00000000000E+00 0.  1.
         23    2    1    2    0    0  0.15390536301E+04  0.77571504431E+02  0.60843708952E+03  0.16593445252E+04  0.92331720653E+02 0.  0.
         13    1    3    3    0    0  0.83671261779E+03  0.60410315785E+01  0.36063190438E+03  0.91114206866E+03  0.00000000000E+00 0. -1.
        -13    1    3    3    0    0  0.70234101234E+03  0.71530472852E+02  0.24780518514E+03  0.74820245652E+03  0.00000000000E+00 0.  1.
         22    1    1    2    0    0 -0.15390536301E+04 -0.77571504431E+02  0.11159444204E+04  0.19026390525E+04  0.00000000000E+00 0. -1.
<mgrwt>
<rscale>  0 0.31167668E+04</rscale>
<asrwt>0</asrwt>
<pdfrwt beam="1">  1        2 0.40664347E+00 0.31167668E+04</pdfrwt>
<pdfrwt beam="2">  1       -2 0.14135401E+00 0.31167668E+04</pdfrwt>
<totfact> 0.85203668E-01</totfact>
</mgrwt>
</event>
<event>
 6    1  0.1773638E-005  0.1541844E+04  0.7818608E-02  0.8857094E-01
          2   -1    0    0  501    0  0.00000000000E+00  0.00000000000E+00  0.37792930959E+04  0.37792930959E+04  0.00000000000E+00 0. -1.
         -2   -1    0    0    0  501 -0.00000000000E+00 -0.00000000000E+00 -0.15725714244E+03  0.15725714244E+03  0.00000000000E+00 0.  1.
         23    2    1    2    0    0 -0.56365283209E+03 -0.10339315629E+03  0.31231350642E+04  0.31767497664E+04  0.96808001204E+02 0.  0.
         13    1    3    3    0    0 -0.41130425522E+03 -0.34842161626E+02  0.21226265127E+04  0.21623895299E+04  0.00000000000E+00 0.  1.
        -13    1    3    3    0    0 -0.15234857687E+03 -0.68550994662E+02  0.10005085514E+04  0.10143602364E+04  0.00000000000E+00 0. -1.
         22    1    1    2    0    0  0.56365283209E+03  0.10339315629E+03  0.49890088931E+03  0.75980047200E+03  0.00000000000E+00 0.  1.
<mgrwt>
<rscale>  0 0.15418441E+04</rscale>
<asrwt>0</asrwt>
<pdfrwt beam="1">  1        2 0.58142964E+00 0.15418441E+04</pdfrwt>
<pdfrwt beam="2">  1       -2 0.24193409E-01 0.15418441E+04</pdfrwt>
<totfact> 0.76012563E+00</totfact>
</mgrwt>
</event>
<event>
 6    1  0.1773638E-005  0.2848921E+04  0.7818608E-02  0.8288239E-01
         -2   -1    0    0    0  501 -0.00000000000E+00  0.00000000000E+00  0.85745794090E+03  0.85745794090E+03  0.00000000000E+00 0.  1.
          2   -1    0    0  501    0  0.00000000000E+00 -0.00000000000E+00 -0.23663991204E+04  0.23663991204E+04  0.00000000000E+00 0. -1.
         23    2    1    2    0    0  0.77385939826E+03  0.93502403710E+03  0.85381355537E+02  0.12201124009E+04  0.90862406070E+02 0.  0.
         11    1    3    3    0    0  0.44653601607E+03  0.49117101895E+03  0.79805557131E+02  0.66858979237E+03  0.00000000000E+00 0.  1.
        -11    1    3    3    0    0  0.32732338219E+03  0.44385301814E+03  0.55757984063E+01  0.55152260858E+03  0.00000000000E+00 0. -1.
         22    1    1    2    0    0 -0.77385939826E+03 -0.93502403710E+03 -0.15943225351E+04  0.20037446604E+04  0.00000000000E+00 0. -1.
<mgrwt>
<rscale>  0 0.28489210E+04</rscale>
<asrwt>0</asrwt>
<pdfrwt beam="1">  1        2 0.36406139E+00 0.28489210E+04</pdfrwt>
<pdfrwt beam="2">  1       -2 0.13191661E+00 0.28489210E+04</pdfrwt>
<totfact> 0.15068714E+00</totfact>
</mgrwt>
</event>
<event>
 6    1  0.1773638E-005  0.6222123E+04  0.7818608E-02  0.7663455E-01
         -2   -1    0    0    0  501 -0.00000000000E+00  0.00000000000E+00  0.22903463849E+04  0.22903463849E+04  0.00000000000E+00 0.  1.
          2   -1    0    0  501    0  0.00000000000E+00 -0.00000000000E+00 -0.42258694427E+04  0.42258694427E+04  0.00000000000E+00 0. -1.
         23    2    1    2    0    0 -0.79790793038E+03 -0.35620677917E+03 -0.40941820273E+04  0.41874073594E+04  0.92269091507E+02 0.  0.
         13    1    3    3    0    0 -0.43191095027E+03 -0.17961663559E+03 -0.24010672963E+04  0.24462079564E+04  0.00000000000E+00 0. -1.
        -13    1    3    3    0    0 -0.36599698010E+03 -0.17659014359E+03 -0.16931147311E+04  0.17411994029E+04  0.00000000000E+00 0.  1.
         22    1    1    2    0    0  0.79790793038E+03  0.35620677917E+03  0.21586589695E+04  0.23288084682E+04  0.00000000000E+00 0.  1.
<mgrwt>
<rscale>  0 0.62221234E+04</rscale>
<asrwt>0</asrwt>
<pdfrwt beam="1">  1        2 0.65013376E+00 0.62221234E+04</pdfrwt>
<pdfrwt beam="2">  1       -2 0.35236098E+00 0.62221234E+04</pdfrwt>
<totfact> 0.21787288E-03</totfact>
</mgrwt>
</event>
<event>
 6    1  0.1773638E-005  0.4684960E+04  0.7818608E-02  0.7879032E-01
          2   -1    0    0  501    0  0.00000000000E+00  0.00000000000E+00  0.14125390730E+04  0.14125390730E+04  0.00000000000E+00 0.  1.
         -2   -1    0    0    0  501 -0.00000000000E+00 -0.00000000000E+00 -0.38846445132E+04  0.38846445132E+04  0.00000000000E+00 0. -1.
         23    2    1    2    0    0  0.23305834291E+03 -0.21886702809E+04 -0.21400755076E+04  0.30712371210E+04  0.89333561756E+02 0.  0.
         13    1    3    3    0    0  0.17304639271E+03 -0.17815339360E+04 -0.16964322161E+04  0.24661083681E+04  0.00000000000E+00 0. -1.
        -13    1    3    3    0    0  0.60011950203E+02 -0.40713634489E+03 -0.44364329153E+03  0.60512875293E+03  0.00000000000E+00 0.  1.
         22    1    1    2    0    0 -0.23305834291E+03  0.21886702809E+04 -0.33202993258E+03  0.22259464652E+04  0.00000000000E+00 0.  1.
<mgrwt>
<rscale>  0 0.46849598E+04</rscale>
<asrwt>0</asrwt>
<pdfrwt beam="1">  1        2 0.21731370E+00 0.46849598E+04</pdfrwt>
<pdfrwt beam="2">  1       -2 0.59763762E+00 0.46849598E+04</pdfrwt>
<totfact> 0.55495787E-03</totfact>
</mgrwt>
</event>
<event>
 6    1  0.1773638E-005  0.3103258E+04  0.7818608E-02  0.8214844E-01
         -2   -1    0    0    0  501 -0.00000000000E+00  0.00000000000E+00  0.16126830740E+04  0.16126830740E+04  0.00000000000E+00 0. -1.
          2   -1    0    0  501    0  0.00000000000E+00 -0.00000000000E+00 -0.14928864979E+04  0.14928864979E+04  0.00000000000E+00 0.  1.
         23    2    1    2    0    0  0.74794778278E+03  0.11938122173E+04  0.70751601322E+03  0.15791267683E+04  0.91918145890E+02 0.  0.
         13    1    3    3    0    0  0.16780306878E+03  0.26930295691E+03  0.11720141813E+03  0.33825748314E+03  0.00000000000E+00 0. -1.
        -13    1    3    3    0    0  0.58014471401E+03  0.92450926037E+03  0.59031459509E+03  0.12408692852E+04  0.00000000000E+00 0.  1.
         22    1    1    2    0    0 -0.74794778278E+03 -0.11938122173E+04 -0.58771943708E+03  0.15264428036E+04  0.00000000000E+00 0.  1.
<mgrwt>
<rscale>  0 0.31032582E+04</rscale>
<asrwt>0</asrwt>
<pdfrwt beam="1">  1        2 0.22967485E+00 0.31032582E+04</pdfrwt>
<pdfrwt beam="2">  1       -2 0.24810509E+00 0.31032582E+04</pdfrwt>
<totfact> 0.71787906E-01</totfact>
</mgrwt>
</event>
<event>
 6    1  0.1773638E-005  0.1228654E+04  0.7818608E-02  0.9088139E-01
          2   -1    0    0  501    0  0.00000000000E+00  0.00000000000E+00  0.19915636702E+04  0.19915636702E+04  0.00000000000E+00 0. -1.
         -2   -1    0    0    0  501 -0.00000000000E+00 -0.00000000000E+00 -0.18949821830E+03  0.18949821830E+03  0.00000000000E+00 0.  1.
         23    2    1    2    0    0  0.29634130148E+03  0.51344397571E+03  0.64408731787E+03  0.88015595721E+03  0.91559558858E+02 0.  0.
         13    1    3    3    0    0  0.26429992940E+03  0.39281572703E+03  0.48266691595E+03  0.67611093752E+03  0.00000000000E+00 0. -1.
        -13    1    3    3    0    0  0.32041372081E+02  0.12062824868E+03  0.16142040193E+03  0.20404501970E+03  0.00000000000E+00 0.  1.
         22    1    1    2    0    0 -0.29634130148E+03 -0.51344397571E+03  0.11579781340E+04  0.13009059312E+04  0.00000000000E+00 0. -1.
<mgrwt>
<rscale>  0 0.12286542E+04</rscale>
<asrwt>0</asrwt>
<pdfrwt beam="1">  1        2 0.30639440E+00 0.12286542E+04</pdfrwt>
<pdfrwt beam="2">  1       -2 0.29153573E-01 0.12286542E+04</pdfrwt>
<totfact> 0.72031155E+01</totfact>
</mgrwt>
</event>
<event>
 6    1  0.2394967E-005  0.4322084E+04  0.7818608E-02  0.7942547E-01
          1   -1    0    0  501    0  0.00000000000E+00  0.00000000000E+00  0.30287801677E+04  0.30287801677E+04  0.00000000000E+00 0. -1.
         -1   -1    0    0    0  501 -0.00000000000E+00 -0.00000000000E+00 -0.15419084195E+04  0.15419084195E+04  0.00000000000E+00 0.  1.
         23    2    1    2    0    0 -0.38889308226E+03 -0.69119942155E+03  0.28684761524E+04  0.29776332838E+04  0.95655976762E+02 0.  0.
         13    1    3    3    0    0 -0.12458427877E+03 -0.27953912799E+03  0.12440588784E+04  0.12811502096E+04  0.00000000000E+00 0.  1.
        -13    1    3    3    0    0 -0.26430880349E+03 -0.41166029355E+03  0.16244172741E+04  0.16964830742E+04  0.00000000000E+00 0. -1.
         22    1    1    2    0    0  0.38889308226E+03  0.69119942155E+03 -0.13816044043E+04  0.15930553034E+04  0.00000000000E+00 0.  1.
<mgrwt>
<rscale>  0 0.43220836E+04</rscale>
<asrwt>0</asrwt>
<pdfrwt beam="1">  1        1 0.46596618E+00 0.43220836E+04</pdfrwt>
<pdfrwt beam="2">  1       -1 0.23721668E+00 0.43220836E+04</pdfrwt>
<totfact> 0.36699483E-02</totfact>
</mgrwt>
</event>
<event>
 6    1  0.1773638E-005  0.3565791E+04  0.7818608E-02  0.8098373E-01
         -1   -1    0    0    0  501 -0.00000000000E+00  0.00000000000E+00  0.12317848103E+04  0.12317848103E+04  0.00000000000E+00 0.  1.
          1   -1    0    0  501    0  0.00000000000E+00 -0.00000000000E+00 -0.25805783779E+04  0.25805783779E+04  0.00000000000E+00 0. -1.
         23    2    1    2    0    0  0.97508071895E+03  0.12711928623E+03  0.91211628822E+03  0.13468703171E+04  0.12313328691E+03 0.  0.
         13    1    3    3    0    0  0.57453075117E+03  0.87539261513E+02  0.45714654742E+03  0.73941305923E+03  0.00000000000E+00 0. -1.
        -13    1    3    3    0    0  0.40054996779E+03  0.39580024716E+02  0.45496974080E+03  0.60745725783E+03  0.00000000000E+00 0.  1.
         22    1    1    2    0    0 -0.97508071895E+03 -0.12711928623E+03 -0.22609098558E+04  0.24654928711E+04  0.00000000000E+00 0. -1.
<mgrwt>
<rscale>  0 0.35657915E+04</rscale>
<asrwt>0</asrwt>
<pdfrwt beam="1">  1        1 0.39701206E+00 0.35657915E+04</pdfrwt>
<pdfrwt beam="2">  1       -1 0.18950536E+00 0.35657915E+04</pdfrwt>
<totfact> 0.17201655E-01</totfact>
</mgrwt>
</event>
<event>
 6    1  0.1773638E-005  0.2438569E+04  0.7818608E-02  0.8425203E-01
          2   -1    0    0  501    0  0.00000000000E+00  0.00000000000E+00  0.98648822265E+03  0.98648822265E+03  0.00000000000E+00 0. -1.
         -2   -1    0    0    0  501 -0.00000000000E+00 -0.00000000000E+00 -0.15070177474E+04  0.15070177474E+04  0.00000000000E+00 0.  1.
         23    2    1    2    0    0 -0.35165390351E+03  0.27156647448E+03 -0.14197198152E+04  0.14905343871E+04  0.93164303354E+02 0.  0.
         11    1    3    3    0    0 -0.24700302196E+03  0.13384350307E+03 -0.89062893584E+03  0.93388675841E+03  0.00000000000E+00 0. -1.
        -11    1    3    3    0    0 -0.10465088155E+03  0.13772297141E+03 -0.52909087936E+03  0.55664762866E+03  0.00000000000E+00 0.  1.
         22    1    1    2    0    0  0.35165390351E+03 -0.27156647448E+03  0.89919029043E+03  0.10029715830E+04  0.00000000000E+00 0. -1.
<mgrwt>
<rscale>  0 0.24385695E+04</rscale>
<asrwt>0</asrwt>
<pdfrwt beam="1">  1        2 0.15176742E+00 0.24385695E+04</pdfrwt>
<pdfrwt beam="2">  1       -2 0.23184888E+00 0.24385695E+04</pdfrwt>
<totfact> 0.19175094E+00</totfact>
</mgrwt>
</event>
<event>
 6    1  0.1773638E-005  0.3493067E+04  0.7818608E-02  0.8115435E-01
          1   -1    0    0  501    0  0.00000000000E+00  0.00000000000E+00  0.32548454557E+04  0.32548454557E+04  0.00000000000E+00 0. -1.
         -1   -1    0    0    0  501 -0.00000000000E+00 -0.00000000000E+00 -0.93718093111E+03  0.93718093111E+03  0.00000000000E+00 0.  1.
         23    2    1    2    0    0 -0.11676440744E+04  0.60038756966E+03 -0.22033595940E+03  0.13345267149E+04  0.92497023313E+02 0.  0.
         11    1    3    3    0    0 -0.46757579787E+03  0.20667127097E+03 -0.51641641653E+02  0.51381611511E+03  0.00000000000E+00 0.  1.
        -11    1    3    3    0    0 -0.70006827658E+03  0.39371629869E+03 -0.16869431775E+03  0.82071059976E+03  0.00000000000E+00 0. -1.
         22    1    1    2    0    0  0.11676440744E+04 -0.60038756966E+03  0.25380004840E+04  0.28574996719E+04  0.00000000000E+00 0. -1.
<mgrwt>
<rscale>  0 0.34930669E+04</rscale>
<asrwt>0</asrwt>
<pdfrwt beam="1">  1        1 0.50074545E+00 0.34930669E+04</pdfrwt>
<pdfrwt beam="2">  1       -1 0.14418168E+00 0.34930669E+04</pdfrwt>
<totfact> 0.12222851E-01</totfact>
</mgrwt>
</event>
<event>
 6    1  0.1773638E-005  0.4685776E+04  0.7818608E-02  0.7878896E-01
          2   -1    0    0  501    0  0.00000000000E+00  0.00000000000E+00  0.28791098343E+04  0.28791098343E+04  0.00000000000E+00 0. -1.
         -2   -1    0    0    0  501 -0.00000000000E+00 -0.00000000000E+00 -0.19065352010E+04  0.19065352010E+04  0.00000000000E+00 0.  1.
         23    2    1    2    0    0 -0.21793822912E+04 -0.37276344110E+03 -0.30224427855E+03  0.22334258025E+04  0.90440351118E+02 0.  0.
         13    1    3    3    0    0 -0.16422833427E+04 -0.28229277131E+03 -0.26697911572E+03  0.16876201097E+04  0.00000000000E+00 0. -1.
        -13    1    3    3    0    0 -0.53709894855E+03 -0.90470669798E+02 -0.35265162827E+02  0.54580569284E+03  0.00000000000E+00 0.  1.
         22    1    1    2    0    0  0.21793822912E+04  0.37276344110E+03  0.12748189118E+04  0.25522192328E+04  0.00000000000E+00 0. -1.
<mgrwt>
<rscale>  0 0.46857760E+04</rscale>
<asrwt>0</asrwt>
<pdfrwt beam="1">  1        2 0.44293997E+00 0.46857760E+04</pdfrwt>
<pdfrwt beam="2">  1       -2 0.29331311E+00 0.46857760E+04</pdfrwt>
<totfact> 0.53926758E-02</totfact>
</mgrwt>
</event>
<event>
 6    1  0.1773638E-005  0.3005944E+04  0.7818608E-02  0.8242036E-01
         -1   -1    0    0    0  501 -0.00000000000E+00  0.00000000000E+00  0.17118829740E+04  0.17118829740E+04  0.00000000000E+00 0.  1.
          1   -1    0    0  501    0  0.00000000000E+00 -0.00000000000E+00 -0.13195553820E+04  0.13195553820E+04  0.00000000000E+00 0. -1.
         23    2    1    2    0    0  0.73807481557E+03  0.13063318968E+04  0.13648107791E+03  0.15093625049E+04  0.91052889616E+02 0.  0.
         11    1    3    3    0    0  0.33970457420E+03  0.61687644068E+03  0.10903971398E+03  0.71261869189E+03  0.00000000000E+00 0. -1.
        -11    1    3    3    0    0  0.39837024137E+03  0.68945545607E+03  0.27441363924E+02  0.79674381301E+03  0.00000000000E+00 0.  1.
         22    1    1    2    0    0 -0.73807481557E+03 -0.13063318968E+04  0.25584651414E+03  0.15220758512E+04  0.00000000000E+00 0.  1.
<mgrwt>
<rscale>  0 0.30059437E+04</rscale>
<asrwt>0</asrwt>
<pdfrwt beam="1">  1        1 0.20300852E+00 0.30059437E+04</pdfrwt>
<pdfrwt beam="2">  1       -1 0.26336661E+00 0.30059437E+04</pdfrwt>
<totfact> 0.42508701E-01</totfact>
</mgrwt>
</event>
<event>
 6    1  0.1773638E-005  0.4498814E+03  0.7818608E-02  0.1027757E+00
          2   -1    0    0  501    0  0.00000000000E+00  0.00000000000E+00  0.50807122044E+03  0.50807122044E+03  0.00000000000E+00 0.  1.
         -2   -1    0    0    0  501 -0.00000000000E+00 -0.00000000000E+00 -0.99589021962E+02  0.99589021962E+02  0.00000000000E+00 0. -1.
         23    2    1    2    0    0  0.15678615316E+02  0.18149400892E+03  0.57233596008E+02  0.21198174287E+03  0.92058028152E+02 0.  0.
         11    1    3    3    0    0 -0.39239294589E+00  0.70976045794E+02  0.69859864292E+02  0.99589927641E+02  0.00000000000E+00 0. -1.
        -11    1    3    3    0    0  0.16071008262E+02  0.11051796313E+03 -0.12626268284E+02  0.11239181523E+03  0.00000000000E+00 0.  1.
         22    1    1    2    0    0 -0.15678615316E+02 -0.18149400892E+03  0.35124860247E+03  0.39567849953E+03  0.00000000000E+00 0.  1.
<mgrwt>
<rscale>  0 0.44988139E+03</rscale>
<asrwt>0</asrwt>
<pdfrwt beam="1">  1        2 0.78164802E-01 0.44988139E+03</pdfrwt>
<pdfrwt beam="2">  1       -2 0.15321388E-01 0.44988139E+03</pdfrwt>
<totfact> 0.20321077E+03</totfact>
</mgrwt>
</event>
<event>
 6    1  0.1773638E-005  0.1045079E+04  0.7818608E-02  0.9260439E-01
         -1   -1    0    0    0  501 -0.00000000000E+00  0.00000000000E+00  0.94785615319E+03  0.94785615319E+03  0.00000000000E+00 0.  1.
          1   -1    0    0  501    0  0.00000000000E+00 -0.00000000000E+00 -0.28806865911E+03  0.28806865911E+03  0.00000000000E+00 0. -1.
         23    2    1    2    0    0 -0.17029602389E+03 -0.77345324715E+02 -0.24002271294E+03  0.31688104639E+03  0.88428840457E+02 0.  0.
         11    1    3    3    0    0 -0.10949414309E+03 -0.91063378012E+02 -0.14500312101E+03  0.20324224779E+03  0.00000000000E+00 0. -1.
        -11    1    3    3    0    0 -0.60801880806E+02  0.13718053297E+02 -0.95019591931E+02  0.11363879860E+03  0.00000000000E+00 0.  1.
         22    1    1    2    0    0  0.17029602389E+03  0.77345324715E+02  0.89981020702E+03  0.91904376591E+03  0.00000000000E+00 0.  1.
<mgrwt>
<rscale>  0 0.10450792E+04</rscale>
<asrwt>0</asrwt>
<pdfrwt beam="1">  1        1 0.44318256E-01 0.10450792E+04</pdfrwt>
<pdfrwt beam="2">  1       -1 0.14582402E+00 0.10450792E+04</pdfrwt>
<totfact> 0.34798105E+01</totfact>
</mgrwt>
</event>
<event>
 6    1  0.1773638E-005  0.1317148E+04  0.7818608E-02  0.9016076E-01
         -1   -1    0    0    0  501 -0.00000000000E+00  0.00000000000E+00  0.22805758428E+03  0.22805758428E+03  0.00000000000E+00 0.  1.
          1   -1    0    0  501    0  0.00000000000E+00 -0.00000000000E+00 -0.19017979387E+04  0.19017979387E+04  0.00000000000E+00 0. -1.
         23    2    1    2    0    0  0.60193044944E+03 -0.39725036028E+02 -0.42579552959E+03  0.74375861791E+03  0.89312396936E+02 0.  0.
         11    1    3    3    0    0  0.14817096936E+03 -0.38605583527E+02 -0.76727089622E+02  0.17126608982E+03  0.00000000000E+00 0.  1.
        -11    1    3    3    0    0  0.45375948008E+03 -0.11194525006E+01 -0.34906843997E+03  0.57249252809E+03  0.00000000000E+00 0. -1.
         22    1    1    2    0    0 -0.60193044944E+03  0.39725036028E+02 -0.12479448248E+04  0.13860969051E+04  0.00000000000E+00 0. -1.
<mgrwt>
<rscale>  0 0.13171476E+04</rscale>
<asrwt>0</asrwt>
<pdfrwt beam="1">  1        1 0.29258430E+00 0.13171476E+04</pdfrwt>
<pdfrwt beam="2">  1       -1 0.35085782E-01 0.13171476E+04</pdfrwt>
<totfact> 0.26360241E+01</totfact>
</mgrwt>
</event>
<event>
 6    1  0.1773638E-005  0.3795255E+04  0.7818608E-02  0.8047174E-01
         -2   -1    0    0    0  501 -0.00000000000E+00  0.00000000000E+00  0.18026528937E+04  0.18026528937E+04  0.00000000000E+00 0.  1.
          2   -1    0    0  501    0  0.00000000000E+00 -0.00000000000E+00 -0.19976055673E+04  0.19976055673E+04  0.00000000000E+00 0. -1.
         23    2    1    2    0    0 -0.11684573461E+04 -0.49226686028E+03 -0.15095567807E+04  0.19738403298E+04  0.98309420129E+02 0.  0.
         13    1    3    3    0    0 -0.70427574029E+03 -0.26414494879E+03 -0.83522732126E+03  0.11240024691E+04  0.00000000000E+00 0. -1.
        -13    1    3    3    0    0 -0.46418160583E+03 -0.22812191149E+03 -0.67432945939E+03  0.84983786071E+03  0.00000000000E+00 0.  1.
         22    1    1    2    0    0  0.11684573461E+04  0.49226686028E+03  0.13146041071E+04  0.18264181311E+04  0.00000000000E+00 0.  1.
<mgrwt>
<rscale>  0 0.37952546E+04</rscale>
<asrwt>0</asrwt>
<pdfrwt beam="1">  1        2 0.30732393E+00 0.37952546E+04</pdfrwt>
<pdfrwt beam="2">  1       -2 0.27733121E+00 0.37952546E+04</pdfrwt>
<totfact> 0.23504232E-01</totfact>
</mgrwt>
</event>
<event>
 6    1  0.1773638E-005  0.1728635E+04  0.7818608E-02  0.8745199E-01
          1   -1    0    0  501    0  0.00000000000E+00  0.00000000000E+00  0.21263738631E+04  0.21263738631E+04  0.00000000000E+00 0. -1.
         -1   -1    0    0    0  501 -0.00000000000E+00 -0.00000000000E+00 -0.35132353017E+03  0.35132353017E+03  0.00000000000E+00 0.  1.
         23    2    1    2    0    0 -0.63779927762E+03 -0.15079999637E+03  0.87437217869E+02  0.66729230503E+03  0.90028861140E+02 0.  0.
         11    1    3    3    0    0 -0.42470987106E+03 -0.10817045643E+03  0.10030388822E+03  0.44960003582E+03  0.00000000000E+00 0. -1.
        -11    1    3    3    0    0 -0.21308940656E+03 -0.42629539935E+02 -0.12866670354E+02  0.21769226920E+03  0.00000000000E+00 0.  1.
         22    1    1    2    0    0  0.63779927762E+03  0.15079999637E+03  0.16876131150E+04  0.18104050882E+04  0.00000000000E+00 0. -1.
<mgrwt>
<rscale>  0 0.17286355E+04</rscale>
<asrwt>0</asrwt>
<pdfrwt beam="1">  1        1 0.32713443E+00 0.17286355E+04</pdfrwt>
<pdfrwt beam="2">  1       -1 0.54049775E-01 0.17286355E+04</pdfrwt>
<totfact> 0.80261297E+00</totfact>
</mgrwt>
</event>
<event>
 6    1  0.1773638E-005  0.2540831E+04  0.7818608E-02  0.8388582E-01
         -2   -1    0    0    0  501 -0.00000000000E+00  0.00000000000E+00  0.90890711741E+03  0.90890711741E+03  0.00000000000E+00 0.  1.
          2   -1    0    0  501    0  0.00000000000E+00 -0.00000000000E+00 -0.17757098026E+04  0.17757098026E+04  0.00000000000E+00 0. -1.
         23    2    1    2    0    0 -0.11921645179E+04 -0.13463237524E+03 -0.87017982268E+03  0.14848696469E+04  0.90790033518E+02 0.  0.
         11    1    3    3    0    0 -0.56109688182E+03 -0.19621604848E+02 -0.42187318333E+03  0.70227608601E+03  0.00000000000E+00 0.  1.
        -11    1    3    3    0    0 -0.63106763609E+03 -0.11501077039E+03 -0.44830663935E+03  0.78259356086E+03  0.00000000000E+00 0. -1.
         22    1    1    2    0    0  0.11921645179E+04  0.13463237524E+03  0.33771375402E+01  0.11997472731E+04  0.00000000000E+00 0.  1.
<mgrwt>
<rscale>  0 0.25408308E+04</rscale>
<asrwt>0</asrwt>
<pdfrwt beam="1">  1        2 0.27318612E+00 0.25408308E+04</pdfrwt>
<pdfrwt beam="2">  1       -2 0.13983186E+00 0.25408308E+04</pdfrwt>
<totfact> 0.28509474E+00</totfact>
</mgrwt>
</event>
<event>
 6    1  0.1773638E-005  0.2874446E+04  0.7818608E-02  0.8280521E-01
          2   -1    0    0  501    0  0.00000000000E+00  0.00000000000E+00  0.19826155651E+04  0.19826155651E+04  0.00000000000E+00 0. -1.
         -2   -1    0    0    0  501 -0.00000000000E+00 -0.00000000000E+00 -0.10418611660E+04  0.10418611660E+04  0.00000000000E+00 0.  1.
         23    2    1    2    0    0  0.43116624378E+03 -0.13415789175E+04  0.18139083234E+03  0.14237358564E+04  0.91557811837E+02 0.  0.
         11    1    3    3    0    0  0.28566628008E+03 -0.85022456751E+03  0.15812330230E+03  0.91076342565E+03  0.00000000000E+00 0.  1.
        -11    1    3    3    0    0  0.14549996370E+03 -0.49135435002E+03  0.23267530043E+02  0.51297243071E+03  0.00000000000E+00 0. -1.
         22    1    1    2    0    0 -0.43116624378E+03  0.13415789175E+04  0.75936356676E+03  0.16007408748E+04  0.00000000000E+00 0. -1.
<mgrwt>
<rscale>  0 0.28744461E+04</rscale>
<asrwt>0</asrwt>
<pdfrwt beam="1">  1        2 0.30501778E+00 0.28744461E+04</pdfrwt>
<pdfrwt beam="2">  1       -2 0.16028633E+00 0.28744461E+04</pdfrwt>
<totfact> 0.14812045E+00</totfact>
</mgrwt>
</event>
<event>
 6    1  0.1773638E-005  0.1257422E+04  0.7818608E-02  0.9064028E-01
          1   -1    0    0  501    0  0.00000000000E+00  0.00000000000E+00  0.75886126585E+03  0.75886126585E+03  0.00000000000E+00 0. -1.
         -1   -1    0    0    0  501 -0.00000000000E+00 -0.00000000000E+00 -0.52088278157E+03  0.52088278157E+03  0.00000000000E+00 0.  1.
         23    2    1    2    0    0 -0.37939336455E+03  0.35394969635E+03  0.47548697904E+03  0.70910405786E+03  0.86723612867E+02 0.  0.
         11    1    3    3    0    0 -0.22527069234E+03  0.15173709966E+03  0.23576676806E+03  0.35966234326E+03  0.00000000000E+00 0. -1.
        -11    1    3    3    0    0 -0.15412267221E+03  0.20221259669E+03  0.23972021098E+03  0.34944171460E+03  0.00000000000E+00 0.  1.
         22    1    1    2    0    0  0.37939336455E+03 -0.35394969635E+03 -0.23750849476E+03  0.57063998957E+03  0.00000000000E+00 0.  1.
<mgrwt>
<rscale>  0 0.12574224E+04</rscale>
<asrwt>0</asrwt>
<pdfrwt beam="1">  1        1 0.11674789E+00 0.12574224E+04</pdfrwt>
<pdfrwt beam="2">  1       -1 0.80135813E-01 0.12574224E+04</pdfrwt>
<totfact> 0.36852270E+01</totfact>
</mgrwt>
</event>
<event>
 6    1  0.1773638E-005  0.1008518E+04  0.7818608E-02  0.9299251E-01
         -2   -1    0    0    0  501 -0.00000000000E+00  0.00000000000E+00  0.32693521593E+03  0.32693521593E+03  0.00000000000E+00 0. -1.
          2   -1    0    0  501    0  0.00000000000E+00 -0.00000000000E+00 -0.77776011740E+03  0.77776011740E+03  0.00000000000E+00 0.  1.
         23    2    1    2    0    0  0.17151057541E+03 -0.45918721910E+03 -0.11881867036E+03  0.51266753233E+03  0.91876779480E+02 0.  0.
         11    1    3    3    0    0  0.27086576468E+02 -0.86324579672E+02 -0.59869602604E+02  0.10848956169E+03  0.00000000000E+00 0.  1.
        -11    1    3    3    0    0  0.14442399894E+03 -0.37286263943E+03 -0.58949067756E+02  0.40417797063E+03  0.00000000000E+00 0. -1.
         22    1    1    2    0    0 -0.17151057541E+03  0.45918721910E+03 -0.33200623111E+03  0.59202780101E+03  0.00000000000E+00 0.  1.
<mgrwt>
<rscale>  0 0.10085181E+04</rscale>
<asrwt>0</asrwt>
<pdfrwt beam="1">  1        2 0.11965540E+00 0.10085181E+04</pdfrwt>
<pdfrwt beam="2">  1       -2 0.50297726E-01 0.10085181E+04</pdfrwt>
<totfact> 0.13341405E+02</totfact>
</mgrwt>
</event>
<event>
 6    1  0.1773638E-005  0.1689111E+04  0.7818608E-02  0.8767599E-01
         -1   -1    0    0    0  501 -0.00000000000E+00  0.00000000000E+00  0.83283036910E+03  0.83283036910E+03  0.00000000000E+00 0. -1.
          1   -1    0    0  501    0  0.00000000000E+00 -0.00000000000E+00 -0.85644588163E+03  0.85644588163E+03  0.00000000000E+00 0.  1.
         23    2    1    2    0    0  0.71001502965E+03  0.44959863640E+03 -0.69502027004E+02  0.84763152259E+03  0.85955745270E+02 0.  0.
         11    1    3    3    0    0  0.65781381818E+03  0.39410385826E+03 -0.78819506231E+02  0.77087572607E+03  0.00000000000E+00 0. -1.
        -11    1    3    3    0    0  0.52201211479E+02  0.55494778145E+02  0.93174792273E+01  0.76755796526E+02  0.00000000000E+00 0.  1.
         22    1    1    2    0    0 -0.71001502965E+03 -0.44959863640E+03  0.45886514469E+02  0.84164472814E+03  0.00000000000E+00 0. -1.
<mgrwt>
<rscale>  0 0.16891112E+04</rscale>
<asrwt>0</asrwt>
<pdfrwt beam="1">  1        1 0.13176090E+00 0.16891112E+04</pdfrwt>
<pdfrwt beam="2">  1       -1 0.12812775E+00 0.16891112E+04</pdfrwt>
<totfact> 0.99120351E+00</totfact>
</mgrwt>
</event>
<event>
 6    1  0.1773638E-005  0.1207805E+04  0.7818608E-02  0.9106052E-01
          1   -1    0    0  501    0  0.00000000000E+00  0.00000000000E+00  0.10256559331E+04  0.10256559331E+04  0.00000000000E+00 0. -1.
         -1   -1    0    0    0  501 -0.00000000000E+00 -0.00000000000E+00 -0.35557554949E+03  0.35557554949E+03  0.00000000000E+00 0.  1.
         23    2    1    2    0    0 -0.48580782568E+03 -0.23958557423E+03  0.40972251288E+02  0.55105828801E+03  0.92606806069E+02 0.  0.
         11    1    3    3    0    0 -0.33014084289E+03 -0.18691394021E+03  0.65208723238E+02  0.38494411903E+03  0.00000000000E+00 0.  1.
        -11    1    3    3    0    0 -0.15566698279E+03 -0.52671634018E+02 -0.24236471950E+02  0.16611416897E+03  0.00000000000E+00 0. -1.
         22    1    1    2    0    0  0.48580782568E+03  0.23958557423E+03  0.62910813233E+03  0.83017319461E+03  0.00000000000E+00 0. -1.
<mgrwt>
<rscale>  0 0.12078049E+04</rscale>
<asrwt>0</asrwt>
<pdfrwt beam="1">  1        1 0.15779322E+00 0.12078049E+04</pdfrwt>
<pdfrwt beam="2">  1       -1 0.54703931E-01 0.12078049E+04</pdfrwt>
<totfact> 0.48254201E+01</totfact>
</mgrwt>
</event>
<event>
 6    1  0.1773638E-005  0.2093195E+04  0.7818608E-02  0.8564247E-01
          4   -1    0    0  501    0  0.00000000000E+00  0.00000000000E+00  0.88410807978E+03  0.88410807978E+03  0.00000000000E+00 0. -1.
         -4   -1    0    0    0  501 -0.00000000000E+00 -0.00000000000E+00 -0.12389502984E+04  0.12389502984E+04  0.00000000000E+00 0.  1.
         23    2    1    2    0    0  0.16329826654E+03 -0.39901646575E+03  0.78734710382E+03  0.90220748144E+03  0.90456696206E+02 0.  0.
         11    1    3    3    0    0  0.11319410996E+03 -0.15883941129E+03  0.33775328166E+03  0.39002582527E+03  0.00000000000E+00 0. -1.
        -11    1    3    3    0    0  0.50104156584E+02 -0.24017705445E+03  0.44959382216E+03  0.51218165617E+03  0.00000000000E+00 0.  1.
         22    1    1    2    0    0 -0.16329826654E+03  0.39901646575E+03 -0.11421893224E+04  0.12208508967E+04  0.00000000000E+00 0.  1.
<mgrwt>
<rscale>  0 0.20931947E+04</rscale>
<asrwt>0</asrwt>
<pdfrwt beam="1">  1        4 0.13601663E+00 0.20931947E+04</pdfrwt>
<pdfrwt beam="2">  1       -4 0.19060774E+00 0.20931947E+04</pdfrwt>
<totfact> 0.10800955E-01</totfact>
</mgrwt>
</event>
<event>
 6    1  0.1773638E-005  0.9121220E+03  0.7818608E-02  0.9410554E-01
         -1   -1    0    0    0  501 -0.00000000000E+00  0.00000000000E+00  0.12910622023E+03  0.12910622023E+03  0.00000000000E+00 0.  1.
          1   -1    0    0  501    0  0.00000000000E+00 -0.00000000000E+00 -0.16110115679E+04  0.16110115679E+04  0.00000000000E+00 0. -1.
         23    2    1    2    0    0 -0.38658224315E+03  0.93905090675E+02 -0.11555962071E+04  0.12255872720E+04  0.91638260539E+02 0.  0.
         11    1    3    3    0    0 -0.22856660098E+03  0.94398295999E+02 -0.63169910309E+03  0.67837857146E+03  0.00000000000E+00 0.  1.
        -11    1    3    3    0    0 -0.15801564218E+03 -0.49320532366E+00 -0.52389710398E+03  0.54720870057E+03  0.00000000000E+00 0. -1.
         22    1    1    2    0    0  0.38658224315E+03 -0.93905090675E+02 -0.32630914066E+03  0.51453051615E+03  0.00000000000E+00 0.  1.
<mgrwt>
<rscale>  0 0.91212195E+03</rscale>
<asrwt>0</asrwt>
<pdfrwt beam="1">  1        1 0.24784793E+00 0.91212195E+03</pdfrwt>
<pdfrwt beam="2">  1       -1 0.19862496E-01 0.91212195E+03</pdfrwt>
<totfact> 0.11451584E+02</totfact>
</mgrwt>
</event>
<event>
 6    1  0.1773638E-005  0.2670648E+04  0.7818608E-02  0.8344592E-01
          1   -1    0    0  501    0  0.00000000000E+00  0.00000000000E+00  0.92542078439E+03  0.92542078439E+03  0.00000000000E+00 0. -1.
         -1   -1    0    0    0  501 -0.00000000000E+00 -0.00000000000E+00 -0.19267885803E+04  0.19267885803E+04  0.00000000000E+00 0.  1.
         23    2    1    2    0    0 -0.65802488169E+02  0.67275835335E+03  0.72662558284E+03  0.99670542063E+03  0.92212734639E+02 0.  0.
         13    1    3    3    0    0 -0.69431102562E+02  0.28593459105E+03  0.34267855366E+03  0.45167229215E+03  0.00000000000E+00 0. -1.
        -13    1    3    3    0    0  0.36286143938E+01  0.38682376230E+03  0.38394702918E+03  0.54503312848E+03  0.00000000000E+00 0.  1.
         22    1    1    2    0    0  0.65802488169E+02 -0.67275835335E+03 -0.17279933788E+04  0.18555039441E+04  0.00000000000E+00 0.  1.
<mgrwt>
<rscale>  0 0.26706480E+04</rscale>
<asrwt>0</asrwt>
<pdfrwt beam="1">  1        1 0.14237243E+00 0.26706480E+04</pdfrwt>
<pdfrwt beam="2">  1       -1 0.29642901E+00 0.26706480E+04</pdfrwt>
<totfact> 0.52895620E-01</totfact>
</mgrwt>
</event>
<event>
 6    1  0.1773638E-005  0.1837574E+04  0.7818608E-02  0.8686570E-01
          2   -1    0    0  501    0  0.00000000000E+00  0.00000000000E+00  0.42975728817E+03  0.42975728817E+03  0.00000000000E+00 0. -1.
         -2   -1    0    0    0  501 -0.00000000000E+00 -0.00000000000E+00 -0.19642929695E+04  0.19642929695E+04  0.00000000000E+00 0.  1.
         23    2    1    2    0    0  0.18502068703E+03  0.87740136742E+03 -0.52098957703E+03  0.10407795827E+04  0.87898726989E+02 0.  0.
         11    1    3    3    0    0  0.65273125507E+02  0.28103356171E+03 -0.21545265209E+03  0.36008372500E+03  0.00000000000E+00 0.  1.
        -11    1    3    3    0    0  0.11974756152E+03  0.59636780571E+03 -0.30553692495E+03  0.68069585770E+03  0.00000000000E+00 0. -1.
         22    1    1    2    0    0 -0.18502068703E+03 -0.87740136742E+03 -0.10135461043E+04  0.13532706749E+04  0.00000000000E+00 0.  1.
<mgrwt>
<rscale>  0 0.18375736E+04</rscale>
<asrwt>0</asrwt>
<pdfrwt beam="1">  1        2 0.66116506E-01 0.18375736E+04</pdfrwt>
<pdfrwt beam="2">  1       -2 0.30219892E+00 0.18375736E+04</pdfrwt>
<totfact> 0.21294320E+00</totfact>
</mgrwt>
</event>
<event>
 6    1  0.1773638E-005  0.1925398E+04  0.7818608E-02  0.8642316E-01
          2   -1    0    0  501    0  0.00000000000E+00  0.00000000000E+00  0.20118410658E+04  0.20118410658E+04  0.00000000000E+00 0. -1.
         -2   -1    0    0    0  501 -0.00000000000E+00 -0.00000000000E+00 -0.46066725954E+03  0.46066725954E+03  0.00000000000E+00 0.  1.
         23    2    1    2    0    0  0.85509993493E+03  0.35126473036E+02  0.21823527835E+03  0.88847711130E+03  0.96618697791E+02 0.  0.
         11    1    3    3    0    0  0.41840722061E+03  0.64835966723E+02  0.98886897886E+02  0.43479526609E+03  0.00000000000E+00 0.  1.
        -11    1    3    3    0    0  0.43669271432E+03 -0.29709493687E+02  0.11934838047E+03  0.45368184522E+03  0.00000000000E+00 0. -1.
         22    1    1    2    0    0 -0.85509993493E+03 -0.35126473036E+02  0.13329385279E+04  0.15840312140E+04  0.00000000000E+00 0. -1.
<mgrwt>
<rscale>  0 0.19253979E+04</rscale>
<asrwt>0</asrwt>
<pdfrwt beam="1">  1        2 0.30951400E+00 0.19253979E+04</pdfrwt>
<pdfrwt beam="2">  1       -2 0.70871887E-01 0.19253979E+04</pdfrwt>
<totfact> 0.11127036E+01</totfact>
</mgrwt>
</event>
<event>
 6    1  0.1773638E-005  0.7090903E+04  0.7818608E-02  0.7568133E-01
         -1   -1    0    0    0  501 -0.00000000000E+00  0.00000000000E+00  0.23969632643E+04  0.23969632643E+04  0.00000000000E+00 0. -1.
          1   -1    0    0  501    0  0.00000000000E+00 -0.00000000000E+00 -0.52442297218E+04  0.52442297218E+04  0.00000000000E+00 0.  1.
         23    2    1    2    0    0  0.25478015178E+04  0.17466717019E+04 -0.32977549013E+04  0.45194796030E+04  0.91399584880E+02 0.  0.
         11    1    3    3    0    0  0.13359576605E+04  0.96182605347E+03 -0.17939368388E+04  0.24347693134E+04  0.00000000000E+00 0. -1.
        -11    1    3    3    0    0  0.12118438573E+04  0.78484564847E+03 -0.15038180625E+04  0.20847102896E+04  0.00000000000E+00 0.  1.
         22    1    1    2    0    0 -0.25478015178E+04 -0.17466717019E+04  0.45048844391E+03  0.31217133831E+04  0.00000000000E+00 0. -1.
<mgrwt>
<rscale>  0 0.70909029E+04</rscale>
<asrwt>0</asrwt>
<pdfrwt beam="1">  1        1 0.80680457E+00 0.70909029E+04</pdfrwt>
<pdfrwt beam="2">  1       -1 0.36876358E+00 0.70909029E+04</pdfrwt>
<totfact> 0.27793273E-05</totfact>
</mgrwt>
</event>
<event>
 6    1  0.1773638E-005  0.1229719E+04  0.7818608E-02  0.9087234E-01
         -2   -1    0    0    0  501 -0.00000000000E+00  0.00000000000E+00  0.24894677297E+03  0.24894677297E+03  0.00000000000E+00 0.  1.
          2   -1    0    0  501    0  0.00000000000E+00 -0.00000000000E+00 -0.15186072268E+04  0.15186072268E+04  0.00000000000E+00 0. -1.
         23    2    1    2    0    0 -0.13444244001E+03  0.56220713441E+03 -0.35124511186E+03  0.68236352246E+03  0.89973421227E+02 0.  0.
         11    1    3    3    0    0 -0.14157366989E+03  0.43609716272E+03 -0.28275428426E+03  0.53867784864E+03  0.00000000000E+00 0. -1.
        -11    1    3    3    0    0  0.71312298849E+01  0.12610997169E+03 -0.68490827601E+02  0.14368567383E+03  0.00000000000E+00 0.  1.
         22    1    1    2    0    0  0.13444244001E+03 -0.56220713441E+03 -0.91841534197E+03  0.10851904773E+04  0.00000000000E+00 0.  1.
<mgrwt>
<rscale>  0 0.12297193E+04</rscale>
<asrwt>0</asrwt>
<pdfrwt beam="1">  1        2 0.23363188E+00 0.12297193E+04</pdfrwt>
<pdfrwt beam="2">  1       -2 0.38299503E-01 0.12297193E+04</pdfrwt>
<totfact> 0.78519435E+01</totfact>
</mgrwt>
</event>
<event>
 6    1  0.1773638E-005  0.1574689E+04  0.7818608E-02  0.8836250E-01
          2   -1    0    0  501    0  0.00000000000E+00  0.00000000000E+00  0.25815205969E+04  0.25815205969E+04  0.00000000000E+00 0. -1.
         -2   -1    0    0    0  501 -0.00000000000E+00 -0.00000000000E+00 -0.24013408949E+03  0.24013408949E+03  0.00000000000E+00 0.  1.
         23    2    1    2    0    0 -0.59528711949E+02 -0.76389552927E+03  0.14783069910E+04  0.16675375784E+04  0.90608878273E+02 0.  0.
         11    1    3    3    0    0 -0.54412078562E+02 -0.42276193591E+03  0.90584269569E+03  0.10011190329E+04  0.00000000000E+00 0. -1.
        -11    1    3    3    0    0 -0.51166333866E+01 -0.34113359336E+03  0.57246429526E+03  0.66641854551E+03  0.00000000000E+00 0.  1.
         22    1    1    2    0    0  0.59528711949E+02  0.76389552927E+03  0.86307951648E+03  0.11541171080E+04  0.00000000000E+00 0. -1.
<mgrwt>
<rscale>  0 0.15746887E+04</rscale>
<asrwt>0</asrwt>
<pdfrwt beam="1">  1        2 0.39715700E+00 0.15746887E+04</pdfrwt>
<pdfrwt beam="2">  1       -2 0.36943708E-01 0.15746887E+04</pdfrwt>
<totfact> 0.20755325E+01</totfact>
</mgrwt>
</event>
<event>
 6    1  0.1773638E-005  0.1786611E+04  0.7818608E-02  0.8713452E-01
         -1   -1    0    0    0  501 -0.00000000000E+00  0.00000000000E+00  0.64873874749E+03  0.64873874749E+03  0.00000000000E+00 0.  1.
          1   -1    0    0  501    0  0.00000000000E+00 -0.00000000000E+00 -0.12300710312E+04  0.12300710312E+04  0.00000000000E+00 0. -1.
         23    2    1    2    0    0 -0.78897666052E+03 -0.11725656255E+03 -0.70878432548E+03  0.10710491116E+04  0.92399714342E+02 0.  0.
         11    1    3    3    0    0 -0.26813436933E+03 -0.84057184433E+02 -0.25510408695E+03  0.37952568483E+03  0.00000000000E+00 0. -1.
        -11    1    3    3    0    0 -0.52084229119E+03 -0.33199378121E+02 -0.45368023853E+03  0.69152342681E+03  0.00000000000E+00 0.  1.
         22    1    1    2    0    0  0.78897666052E+03  0.11725656255E+03  0.12745204175E+03  0.80776066706E+03  0.00000000000E+00 0.  1.
<mgrwt>
<rscale>  0 0.17866110E+04</rscale>
<asrwt>0</asrwt>
<pdfrwt beam="1">  1        1 0.18924169E+00 0.17866110E+04</pdfrwt>
<pdfrwt beam="2">  1       -1 0.99805963E-01 0.17866110E+04</pdfrwt>
<totfact> 0.91890862E+00</totfact>
</mgrwt>
</event>
<event>
 6    1  0.1773638E-005  0.2108128E+04  0.7818608E-02  0.8557671E-01
          1   -1    0    0  501    0  0.00000000000E+00  0.00000000000E+00  0.10965634405E+04  0.10965634405E+04  0.00000000000E+00 0. -1.
         -1   -1    0    0    0  501 -0.00000000000E+00 -0.00000000000E+00 -0.10132116817E+04  0.10132116817E+04  0.00000000000E+00 0.  1.
         23    2    1    2    0    0 -0.34592786167E+03  0.98597977531E+03  0.16512315670E+03  0.10616774339E+04  0.89839378152E+02 0.  0.
         13    1    3    3    0    0 -0.29631868175E+03  0.78314941921E+03  0.10192643009E+03  0.84351453521E+03  0.00000000000E+00 0.  1.
        -13    1    3    3    0    0 -0.49609179922E+02  0.20283035611E+03  0.63196726606E+02  0.21816289864E+03  0.00000000000E+00 0. -1.
         22    1    1    2    0    0  0.34592786167E+03 -0.98597977531E+03 -0.81771397893E+02  0.10480976883E+04  0.00000000000E+00 0.  1.
<mgrwt>
<rscale>  0 0.21081280E+04</rscale>
<asrwt>0</asrwt>
<pdfrwt beam="1">  1        1 0.16870207E+00 0.21081280E+04</pdfrwt>
<pdfrwt beam="2">  1       -1 0.15587872E+00 0.21081280E+04</pdfrwt>
<totfact> 0.36832733E+00</totfact>
</mgrwt>
</event>
<event>
 6    1  0.1773638E-005  0.1206786E+04  0.7818608E-02  0.9106937E-01
         -1   -1    0    0    0  501 -0.00000000000E+00  0.00000000000E+00  0.15915995673E+03  0.15915995673E+03  0.00000000000E+00 0.  1.
          1   -1    0    0  501    0  0.00000000000E+00 -0.00000000000E+00 -0.22875302101E+04  0.22875302101E+04  0.00000000000E+00 0. -1.
         23    2    1    2    0    0  0.25793292367E+03  0.53977617846E+03 -0.97734248313E+03  0.11494806064E+04  0.90662115108E+02 0.  0.
         13    1    3    3    0    0  0.17773270823E+03  0.37277443808E+03 -0.59072169812E+03  0.72076474795E+03  0.00000000000E+00 0. -1.
        -13    1    3    3    0    0  0.80200215432E+02  0.16700174038E+03 -0.38662078501E+03  0.42871585841E+03  0.00000000000E+00 0.  1.
         22    1    1    2    0    0 -0.25793292367E+03 -0.53977617846E+03 -0.11510277702E+04  0.12972095605E+04  0.00000000000E+00 0.  1.
<mgrwt>
<rscale>  0 0.12067862E+04</rscale>
<asrwt>0</asrwt>
<pdfrwt beam="1">  1        1 0.35192770E+00 0.12067862E+04</pdfrwt>
<pdfrwt beam="2">  1       -1 0.24486149E-01 0.12067862E+04</pdfrwt>
<totfact> 0.27367311E+01</totfact>
</mgrwt>
</event>
<event>
 6    1  0.1773638E-005  0.3194473E+04  0.7818608E-02  0.8190278E-01
         -2   -1    0    0    0  501 -0.00000000000E+00  0.00000000000E+00  0.10095740305E+04  0.10095740305E+04  0.00000000000E+00 0. -1.
          2   -1    0    0  501    0  0.00000000000E+00 -0.00000000000E+00 -0.25269712694E+04  0.25269712694E+04  0.00000000000E+00 0.  1.
         23    2    1    2    0    0 -0.88336546614E+03 -0.13014589309E+04 -0.10584684333E+04  0.18980259854E+04  0.89539495983E+02 0.  0.
         11    1    3    3    0    0 -0.58579491743E+03 -0.93225953428E+03 -0.72381236882E+03  0.13176372300E+04  0.00000000000E+00 0. -1.
        -11    1    3    3    0    0 -0.29757054871E+03 -0.36919939657E+03 -0.33465606453E+03  0.58038875541E+03  0.00000000000E+00 0.  1.
         22    1    1    2    0    0  0.88336546614E+03  0.13014589309E+04 -0.45892880557E+03  0.16385193145E+04  0.00000000000E+00 0. -1.
<mgrwt>
<rscale>  0 0.31944731E+04</rscale>
<asrwt>0</asrwt>
<pdfrwt beam="1">  1        2 0.38876481E+00 0.31944731E+04</pdfrwt>
<pdfrwt beam="2">  1       -2 0.15531908E+00 0.31944731E+04</pdfrwt>
<totfact> 0.77209626E-01</totfact>
</mgrwt>
</event>
<event>
 6    1  0.1773638E-005  0.1878758E+04  0.7818608E-02  0.8665503E-01
         -1   -1    0    0    0  501 -0.00000000000E+00  0.00000000000E+00  0.42262311828E+03  0.42262311828E+03  0.00000000000E+00 0.  1.
          1   -1    0    0  501    0  0.00000000000E+00 -0.00000000000E+00 -0.20879894768E+04  0.20879894768E+04  0.00000000000E+00 0. -1.
         23    2    1    2    0    0  0.25586040871E+03  0.22457053964E+03 -0.20015322547E+04  0.20321734812E+04  0.87756566829E+02 0.  0.
         13    1    3    3    0    0  0.20699823127E+03  0.16171996781E+03 -0.13102321141E+04  0.13363045343E+04  0.00000000000E+00 0.  1.
        -13    1    3    3    0    0  0.48862177441E+02  0.62850571827E+02 -0.69130014061E+03  0.69586894684E+03  0.00000000000E+00 0. -1.
         22    1    1    2    0    0 -0.25586040871E+03 -0.22457053964E+03  0.33616589614E+03  0.47843911394E+03  0.00000000000E+00 0.  1.
<mgrwt>
<rscale>  0 0.18787577E+04</rscale>
<asrwt>0</asrwt>
<pdfrwt beam="1">  1        1 0.32122916E+00 0.18787577E+04</pdfrwt>
<pdfrwt beam="2">  1       -1 0.65018940E-01 0.18787577E+04</pdfrwt>
<totfact> 0.58380670E+00</totfact>
</mgrwt>
</event>
<event>
 6    1  0.1773638E-005  0.3210508E+04  0.7818608E-02  0.8186048E-01
         -1   -1    0    0    0  501 -0.00000000000E+00  0.00000000000E+00  0.13216217462E+04  0.13216217462E+04  0.00000000000E+00 0.  1.
          1   -1    0    0  501    0  0.00000000000E+00 -0.00000000000E+00 -0.19497559302E+04  0.19497559302E+04  0.00000000000E+00 0. -1.
         23    2    1    2    0    0 -0.98726467886E+03 -0.47284492960E+03  0.88020239416E+03  0.14076842718E+04  0.92438524008E+02 0.  0.
         11    1    3    3    0    0 -0.64534412052E+03 -0.34688172278E+03  0.62213090060E+03  0.96116742609E+03  0.00000000000E+00 0.  1.
        -11    1    3    3    0    0 -0.34192055834E+03 -0.12596320681E+03  0.25807149357E+03  0.44651684568E+03  0.00000000000E+00 0. -1.
         22    1    1    2    0    0  0.98726467886E+03  0.47284492960E+03 -0.15083365782E+04  0.18636934047E+04  0.00000000000E+00 0. -1.
<mgrwt>
<rscale>  0 0.32105076E+04</rscale>
<asrwt>0</asrwt>
<pdfrwt beam="1">  1        1 0.29996245E+00 0.32105076E+04</pdfrwt>
<pdfrwt beam="2">  1       -1 0.20332642E+00 0.32105076E+04</pdfrwt>
<totfact> 0.38472337E-01</totfact>
</mgrwt>
</event>
<event>
 6    1  0.1773638E-005  0.2446162E+04  0.7818608E-02  0.8422421E-01
         -1   -1    0    0    0  501 -0.00000000000E+00  0.00000000000E+00  0.12966606063E+04  0.12966606063E+04  0.00000000000E+00 0.  1.
          1   -1    0    0  501    0  0.00000000000E+00 -0.00000000000E+00 -0.11536762374E+04  0.11536762374E+04  0.00000000000E+00 0. -1.
         23    2    1    2    0    0 -0.66652378515E+02  0.48826540217E+03 -0.10478978373E+04  0.11615210805E+04  0.90530108984E+02 0.  0.
         13    1    3    3    0    0  0.19644943730E+02  0.17520666277E+03 -0.36801425620E+03  0.40806591534E+03  0.00000000000E+00 0. -1.
        -13    1    3    3    0    0 -0.86297322245E+02  0.31305873940E+03 -0.67988358108E+03  0.75345516520E+03  0.00000000000E+00 0.  1.
         22    1    1    2    0    0  0.66652378515E+02 -0.48826540217E+03  0.11908822061E+04  0.12888157632E+04  0.00000000000E+00 0.  1.
<mgrwt>
<rscale>  0 0.24461615E+04</rscale>
<asrwt>0</asrwt>
<pdfrwt beam="1">  1        1 0.17748865E+00 0.24461615E+04</pdfrwt>
<pdfrwt beam="2">  1       -1 0.19948625E+00 0.24461615E+04</pdfrwt>
<totfact> 0.15655816E+00</totfact>
</mgrwt>
</event>
<event>
 6    1  0.1773638E-005  0.2988091E+04  0.7818608E-02  0.8247140E-01
         -2   -1    0    0    0  501 -0.00000000000E+00  0.00000000000E+00  0.17046871029E+04  0.17046871029E+04  0.00000000000E+00 0.  1.
          2   -1    0    0  501    0  0.00000000000E+00 -0.00000000000E+00 -0.13094319113E+04  0.13094319113E+04  0.00000000000E+00 0. -1.
         23    2    1    2    0    0 -0.88721309264E+03  0.11950468513E+04  0.31134714805E+03  0.15233726882E+04  0.91887169364E+02 0.  0.
         11    1    3    3    0    0 -0.71132756065E+02  0.13387447739E+03  0.15512698954E+02  0.15239057881E+03  0.00000000000E+00 0. -1.
        -11    1    3    3    0    0 -0.81608033658E+03  0.10611723739E+04  0.29583444909E+03  0.13709821094E+04  0.00000000000E+00 0.  1.
         22    1    1    2    0    0  0.88721309264E+03 -0.11950468513E+04  0.83908043582E+02  0.14907463260E+04  0.00000000000E+00 0. -1.
<mgrwt>
<rscale>  0 0.29880908E+04</rscale>
<asrwt>0</asrwt>
<pdfrwt beam="1">  1        2 0.20145106E+00 0.29880908E+04</pdfrwt>
<pdfrwt beam="2">  1       -2 0.26225955E+00 0.29880908E+04</pdfrwt>
<totfact> 0.75590269E-01</totfact>
</mgrwt>
</event>
<event>
 6    1  0.1773638E-005  0.2825684E+04  0.7818608E-02  0.8295339E-01
          2   -1    0    0  501    0  0.00000000000E+00  0.00000000000E+00  0.16625052241E+04  0.16625052241E+04  0.00000000000E+00 0. -1.
         -2   -1    0    0    0  501 -0.00000000000E+00 -0.00000000000E+00 -0.12006713315E+04  0.12006713315E+04  0.00000000000E+00 0.  1.
         23    2    1    2    0    0  0.12416735342E+04  0.54041077476E+03  0.63402208466E+03  0.14980956992E+04  0.92248302226E+02 0.  0.
         11    1    3    3    0    0  0.18833624620E+03  0.80999650681E+02  0.60447159456E+02  0.21374130188E+03  0.00000000000E+00 0. -1.
        -11    1    3    3    0    0  0.10533372880E+04  0.45941112408E+03  0.57357492520E+03  0.12843543974E+04  0.00000000000E+00 0.  1.
         22    1    1    2    0    0 -0.12416735342E+04 -0.54041077476E+03 -0.17218819210E+03  0.13650808564E+04  0.00000000000E+00 0. -1.
<mgrwt>
<rscale>  0 0.28256839E+04</rscale>
<asrwt>0</asrwt>
<pdfrwt beam="1">  1        2 0.25577003E+00 0.28256839E+04</pdfrwt>
<pdfrwt beam="2">  1       -2 0.18471867E+00 0.28256839E+04</pdfrwt>
<totfact> 0.15039641E+00</totfact>
</mgrwt>
</event>
<event>
 6    1  0.1773638E-005  0.6944247E+03  0.7818608E-02  0.9726814E-01
         -1   -1    0    0    0  501 -0.00000000000E+00  0.00000000000E+00  0.51527141398E+03  0.51527141398E+03  0.00000000000E+00 0.  1.
          1   -1    0    0  501    0  0.00000000000E+00 -0.00000000000E+00 -0.23396683376E+03  0.23396683376E+03  0.00000000000E+00 0. -1.
         23    2    1    2    0    0  0.18017823867E+03 -0.12286927389E+03  0.42562664943E+03  0.48772359076E+03  0.95682809937E+02 0.  0.
         13    1    3    3    0    0  0.16343445008E+03 -0.94254802021E+02  0.27503146020E+03  0.33352225005E+03  0.00000000000E+00 0.  1.
        -13    1    3    3    0    0  0.16743788590E+02 -0.28614471874E+02  0.15059518924E+03  0.15420134071E+03  0.00000000000E+00 0. -1.
         22    1    1    2    0    0 -0.18017823867E+03  0.12286927389E+03 -0.14432206922E+03  0.26151465699E+03  0.00000000000E+00 0. -1.
<mgrwt>
<rscale>  0 0.69442472E+03</rscale>
<asrwt>0</asrwt>
<pdfrwt beam="1">  1        1 0.35994897E-01 0.69442472E+03</pdfrwt>
<pdfrwt beam="2">  1       -1 0.79272525E-01 0.69442472E+03</pdfrwt>
<totfact> 0.19573622E+02</totfact>
</mgrwt>
</event>
<event>
 6    1  0.1773638E-005  0.9094864E+03  0.7818608E-02  0.9413800E-01
         -1   -1    0    0    0  501 -0.00000000000E+00  0.00000000000E+00  0.21610266899E+03  0.21610266899E+03  0.00000000000E+00 0. -1.
          1   -1    0    0  501    0  0.00000000000E+00 -0.00000000000E+00 -0.95691264564E+03  0.95691264564E+03  0.00000000000E+00 0.  1.
         23    2    1    2    0    0  0.33161121588E+03  0.30178145474E+03 -0.42952598050E+03  0.62718038429E+03  0.88456891144E+02 0.  0.
         11    1    3    3    0    0  0.95868070109E+02  0.58865661848E+02 -0.15403491395E+03  0.19074225469E+03  0.00000000000E+00 0. -1.
        -11    1    3    3    0    0  0.23574314577E+03  0.24291579289E+03 -0.27549106656E+03  0.43643812960E+03  0.00000000000E+00 0.  1.
         22    1    1    2    0    0 -0.33161121588E+03 -0.30178145474E+03 -0.31128399614E+03  0.54583493034E+03  0.00000000000E+00 0.  1.
<mgrwt>
<rscale>  0 0.90948640E+03</rscale>
<asrwt>0</asrwt>
<pdfrwt beam="1">  1        1 0.14721733E+00 0.90948640E+03</pdfrwt>
<pdfrwt beam="2">  1       -1 0.33246564E-01 0.90948640E+03</pdfrwt>
<totfact> 0.14003704E+02</totfact>
</mgrwt>
</event>
<event>
 6    1  0.1773638E-005  0.2861478E+04  0.7818608E-02  0.8284432E-01
          1   -1    0    0  501    0  0.00000000000E+00  0.00000000000E+00  0.16244275210E+04  0.16244275210E+04  0.00000000000E+00 0. -1.
         -1   -1    0    0    0  501 -0.00000000000E+00 -0.00000000000E+00 -0.12601451582E+04  0.12601451582E+04  0.00000000000E+00 0.  1.
         23    2    1    2    0    0 -0.85651573628E+03  0.91477749684E+02  0.13320051807E+04  0.15890130173E+04  0.93472896229E+02 0.  0.
         13    1    3    3    0    0 -0.40819845021E+03  0.65971991651E+00  0.59367625405E+03  0.72047061328E+03  0.00000000000E+00 0.  1.
        -13    1    3    3    0    0 -0.44831728606E+03  0.90818029768E+02  0.73832892668E+03  0.86854240397E+03  0.00000000000E+00 0. -1.
         22    1    1    2    0    0  0.85651573628E+03 -0.91477749684E+02 -0.96772281799E+03  0.12955596619E+04  0.00000000000E+00 0.  1.
<mgrwt>
<rscale>  0 0.28614783E+04</rscale>
<asrwt>0</asrwt>
<pdfrwt beam="1">  1        1 0.24991193E+00 0.28614783E+04</pdfrwt>
<pdfrwt beam="2">  1       -1 0.19386848E+00 0.28614783E+04</pdfrwt>
<totfact> 0.76757978E-01</totfact>
</mgrwt>
</event>
<event>
 6    1  0.1773638E-005  0.2666727E+04  0.7818608E-02  0.8345882E-01
         -1   -1    0    0    0  501 -0.00000000000E+00  0.00000000000E+00  0.19811178245E+04  0.19811178245E+04  0.00000000000E+00 0.  1.
          1   -1    0    0  501    0  0.00000000000E+00 -0.00000000000E+00 -0.89740166125E+03  0.89740166125E+03  0.00000000000E+00 0. -1.
         23    2    1    2    0    0  0.43752161928E+03 -0.10011177583E+04  0.13640591061E+04  0.17505770675E+04  0.10099946094E+03 0.  0.
         13    1    3    3    0    0  0.18980380210E+03 -0.48872110589E+03  0.72685428252E+03  0.89620921143E+03  0.00000000000E+00 0.  1.
        -13    1    3    3    0    0  0.24771781718E+03 -0.51239665238E+03  0.63720482361E+03  0.85436785611E+03  0.00000000000E+00 0. -1.
         22    1    1    2    0    0 -0.43752161928E+03  0.10011177583E+04 -0.28034294286E+03  0.11279424182E+04  0.00000000000E+00 0. -1.
<mgrwt>
<rscale>  0 0.26667272E+04</rscale>
<asrwt>0</asrwt>
<pdfrwt beam="1">  1        1 0.13806179E+00 0.26667272E+04</pdfrwt>
<pdfrwt beam="2">  1       -1 0.30478736E+00 0.26667272E+04</pdfrwt>
<totfact> 0.49229534E-01</totfact>
</mgrwt>
</event>
<event>
 6    1  0.1773638E-005  0.3482235E+04  0.7818608E-02  0.8118013E-01
          1   -1    0    0  501    0  0.00000000000E+00  0.00000000000E+00  0.12692831062E+04  0.12692831062E+04  0.00000000000E+00 0. -1.
         -1   -1    0    0    0  501 -0.00000000000E+00 -0.00000000000E+00 -0.23883481341E+04  0.23883481341E+04  0.00000000000E+00 0.  1.
         23    2    1    2    0    0  0.92554608488E+03  0.14382120905E+04 -0.89541120264E+03  0.19327803464E+04  0.93750057311E+02 0.  0.
         13    1    3    3    0    0  0.58348407202E+03  0.95346018163E+03 -0.54320865619E+03  0.12428256613E+04  0.00000000000E+00 0.  1.
        -13    1    3    3    0    0  0.34206201286E+03  0.48475190888E+03 -0.35220254645E+03  0.68995468513E+03  0.00000000000E+00 0. -1.
         22    1    1    2    0    0 -0.92554608488E+03 -0.14382120905E+04 -0.22365382521E+03  0.17248508939E+04  0.00000000000E+00 0. -1.
<mgrwt>
<rscale>  0 0.34822349E+04</rscale>
<asrwt>0</asrwt>
<pdfrwt beam="1">  1        1 0.19527433E+00 0.34822349E+04</pdfrwt>
<pdfrwt beam="2">  1       -1 0.36743817E+00 0.34822349E+04</pdfrwt>
<totfact> 0.92378952E-02</totfact>
</mgrwt>
</event>
<event>
 6    1  0.1773638E-005  0.3350525E+04  0.7818608E-02  0.8150157E-01
          1   -1    0    0  501    0  0.00000000000E+00  0.00000000000E+00  0.18415877452E+04  0.18415877452E+04  0.00000000000E+00 0. -1.
         -1   -1    0    0    0  501 -0.00000000000E+00 -0.00000000000E+00 -0.15239588504E+04  0.15239588504E+04  0.00000000000E+00 0.  1.
         23    2    1    2    0    0 -0.34537777591E+03 -0.14449038471E+02  0.18042154812E+04  0.18392981683E+04  0.91267007635E+02 0.  0.
         13    1    3    3    0    0 -0.23478761100E+03 -0.37739055293E+02  0.10449002525E+04  0.10716184005E+04  0.00000000000E+00 0. -1.
        -13    1    3    3    0    0 -0.11059016492E+03  0.23290016822E+02  0.75931522872E+03  0.76767976788E+03  0.00000000000E+00 0.  1.
         22    1    1    2    0    0  0.34537777591E+03  0.14449038471E+02 -0.14865865864E+04  0.15262484273E+04  0.00000000000E+00 0.  1.
<mgrwt>
<rscale>  0 0.33505247E+04</rscale>
<asrwt>0</asrwt>
<pdfrwt beam="1">  1        1 0.28332119E+00 0.33505247E+04</pdfrwt>
<pdfrwt beam="2">  1       -1 0.23445521E+00 0.33505247E+04</pdfrwt>
<totfact> 0.27813456E-01</totfact>
</mgrwt>
</event>
<event>
 6    1  0.1773638E-005  0.1804557E+04  0.7818608E-02  0.8703880E-01
          1   -1    0    0  501    0  0.00000000000E+00  0.00000000000E+00  0.15824777331E+04  0.15824777331E+04  0.00000000000E+00 0. -1.
         -1   -1    0    0    0  501 -0.00000000000E+00 -0.00000000000E+00 -0.51445064619E+03  0.51445064619E+03  0.00000000000E+00 0.  1.
         23    2    1    2    0    0  0.12919528629E+03  0.88922191411E+03  0.47626451119E+03  0.10210148230E+04  0.90754336990E+02 0.  0.
         11    1    3    3    0    0  0.17510638897E+02  0.32765655014E+03  0.20997029746E+03  0.38955482687E+03  0.00000000000E+00 0. -1.
        -11    1    3    3    0    0  0.11168464740E+03  0.56156536397E+03  0.26629421374E+03  0.63145999616E+03  0.00000000000E+00 0.  1.
         22    1    1    2    0    0 -0.12919528629E+03 -0.88922191411E+03  0.59176257574E+03  0.10759135563E+04  0.00000000000E+00 0. -1.
<mgrwt>
<rscale>  0 0.18045572E+04</rscale>
<asrwt>0</asrwt>
<pdfrwt beam="1">  1        1 0.24345811E+00 0.18045572E+04</pdfrwt>
<pdfrwt beam="2">  1       -1 0.79146254E-01 0.18045572E+04</pdfrwt>
<totfact> 0.86359592E+00</totfact>
</mgrwt>
</event>
<event>
 6    1  0.1947613E-005  0.3873104E+04  0.7818608E-02  0.8030646E-01
         -2   -1    0    0    0  501 -0.00000000000E+00  0.00000000000E+00  0.17375088820E+04  0.17375088820E+04  0.00000000000E+00 0.  1.
          2   -1    0    0  501    0  0.00000000000E+00 -0.00000000000E+00 -0.21583966402E+04  0.21583966402E+04  0.00000000000E+00 0. -1.
         23    2    1    2    0    0 -0.37431656927E+03 -0.17760171956E+04  0.46504299184E+03  0.18761968137E+04  0.97465514880E+02 0.  0.
         13    1    3    3    0    0 -0.19011244438E+03 -0.91731150639E+03  0.29017346345E+03  0.98071595284E+03  0.00000000000E+00 0.  1.
        -13    1    3    3    0    0 -0.18420412489E+03 -0.85870568919E+03  0.17486952839E+03  0.89548086090E+03  0.00000000000E+00 0. -1.
         22    1    1    2    0    0  0.37431656927E+03  0.17760171956E+04 -0.88593075009E+03  0.20197087085E+04  0.00000000000E+00 0. -1.
<mgrwt>
<rscale>  0 0.38731038E+04</rscale>
<asrwt>0</asrwt>
<pdfrwt beam="1">  1        2 0.33206102E+00 0.38731038E+04</pdfrwt>
<pdfrwt beam="2">  1       -2 0.26730906E+00 0.38731038E+04</pdfrwt>
<totfact> 0.21865128E-01</totfact>
</mgrwt>
</event>
<event>
 6    1  0.1773638E-005  0.3521022E+04  0.7818608E-02  0.8108826E-01
          2   -1    0    0  501    0  0.00000000000E+00  0.00000000000E+00  0.46534382899E+04  0.46534382899E+04  0.00000000000E+00 0. -1.
         -2   -1    0    0    0  501 -0.00000000000E+00 -0.00000000000E+00 -0.66604504493E+03  0.66604504493E+03  0.00000000000E+00 0.  1.
         23    2    1    2    0    0 -0.47933223624E+03 -0.71210201841E+03  0.43151044894E+04  0.44006561818E+04  0.93805113111E+02 0.  0.
         13    1    3    3    0    0 -0.38328218885E+03 -0.51338489125E+03  0.33388635163E+04  0.33997762961E+04  0.00000000000E+00 0.  1.
        -13    1    3    3    0    0 -0.96050047391E+02 -0.19871712716E+03  0.97624097304E+03  0.10008798857E+04  0.00000000000E+00 0. -1.
         22    1    1    2    0    0  0.47933223624E+03  0.71210201841E+03 -0.32771124442E+03  0.91882715297E+03  0.00000000000E+00 0.  1.
<mgrwt>
<rscale>  0 0.35210223E+04</rscale>
<asrwt>0</asrwt>
<pdfrwt beam="1">  1        2 0.71591356E+00 0.35210223E+04</pdfrwt>
<pdfrwt beam="2">  1       -2 0.10246847E+00 0.35210223E+04</pdfrwt>
<totfact> 0.54672180E-02</totfact>
</mgrwt>
</event>
<event>
 6    1  0.1773638E-005  0.4148636E+04  0.7818608E-02  0.7975215E-01
         -2   -1    0    0    0  501 -0.00000000000E+00  0.00000000000E+00  0.12606557466E+04  0.12606557466E+04  0.00000000000E+00 0. -1.
          2   -1    0    0  501    0  0.00000000000E+00 -0.00000000000E+00 -0.34131412245E+04  0.34131412245E+04  0.00000000000E+00 0.  1.
         23    2    1    2    0    0 -0.17924266020E+04  0.62105232967E+03 -0.13400207640E+03  0.19038196496E+04  0.89853113319E+02 0.  0.
         11    1    3    3    0    0 -0.41725370583E+03  0.17152982570E+03 -0.60502673049E+02  0.45517437272E+03  0.00000000000E+00 0. -1.
        -11    1    3    3    0    0 -0.13751728961E+04  0.44952250397E+03 -0.73499403348E+02  0.14486452768E+04  0.00000000000E+00 0.  1.
         22    1    1    2    0    0  0.17924266020E+04 -0.62105232967E+03 -0.20184834015E+04  0.27699773215E+04  0.00000000000E+00 0.  1.
<mgrwt>
<rscale>  0 0.41486365E+04</rscale>
<asrwt>0</asrwt>
<pdfrwt beam="1">  1        2 0.52509864E+00 0.41486365E+04</pdfrwt>
<pdfrwt beam="2">  1       -2 0.19394704E+00 0.41486365E+04</pdfrwt>
<totfact> 0.10600450E-01</totfact>
</mgrwt>
</event>
<event>
 6    1  0.1773638E-005  0.1862342E+04  0.7818608E-02  0.8673832E-01
          2   -1    0    0  501    0  0.00000000000E+00  0.00000000000E+00  0.30612054448E+04  0.30612054448E+04  0.00000000000E+00 0. -1.
         -2   -1    0    0    0  501 -0.00000000000E+00 -0.00000000000E+00 -0.28324762436E+03  0.28324762436E+03  0.00000000000E+00 0.  1.
         23    2    1    2    0    0  0.13747510403E+03 -0.40425892754E+03  0.28737807742E+04  0.29068382578E+04  0.93637781054E+02 0.  0.
         11    1    3    3    0    0  0.14179994949E+03 -0.35042619071E+03  0.23408282376E+04  0.23711563801E+04  0.00000000000E+00 0. -1.
        -11    1    3    3    0    0 -0.43248454600E+01 -0.53832736831E+02  0.53295253655E+03  0.53568187766E+03  0.00000000000E+00 0.  1.
         22    1    1    2    0    0 -0.13747510403E+03  0.40425892754E+03 -0.95822953710E+02  0.43761481142E+03  0.00000000000E+00 0.  1.
<mgrwt>
<rscale>  0 0.18623417E+04</rscale>
<asrwt>0</asrwt>
<pdfrwt beam="1">  1        2 0.47095466E+00 0.18623417E+04</pdfrwt>
<pdfrwt beam="2">  1       -2 0.43576560E-01 0.18623417E+04</pdfrwt>
<totfact> 0.75005888E+00</totfact>
</mgrwt>
</event>
<event>
 6    1  0.1773638E-005  0.2604798E+04  0.7818608E-02  0.8366573E-01
          2   -1    0    0  501    0  0.00000000000E+00  0.00000000000E+00  0.21110152494E+04  0.21110152494E+04  0.00000000000E+00 0. -1.
         -2   -1    0    0    0  501 -0.00000000000E+00 -0.00000000000E+00 -0.80352000992E+03  0.80352000992E+03  0.00000000000E+00 0.  1.
         23    2    1    2    0    0 -0.80205643392E+03 -0.84859732888E+03  0.12957846129E+04  0.17468242127E+04  0.94472837771E+02 0.  0.
         13    1    3    3    0    0 -0.57278729877E+03 -0.66411098549E+03  0.95647165849E+03  0.12976774346E+04  0.00000000000E+00 0. -1.
        -13    1    3    3    0    0 -0.22926913515E+03 -0.18448634340E+03  0.33931295443E+03  0.44914677810E+03  0.00000000000E+00 0.  1.
         22    1    1    2    0    0  0.80205643392E+03  0.84859732888E+03  0.11710626596E+02  0.11677110467E+04  0.00000000000E+00 0.  1.
<mgrwt>
<rscale>  0 0.26047979E+04</rscale>
<asrwt>0</asrwt>
<pdfrwt beam="1">  1        2 0.32477157E+00 0.26047979E+04</pdfrwt>
<pdfrwt beam="2">  1       -2 0.12361846E+00 0.26047979E+04</pdfrwt>
<totfact> 0.25253975E+00</totfact>
</mgrwt>
</event>
<event>
 6    1  0.1773638E-005  0.4683834E+03  0.7818608E-02  0.1022377E+00
         -1   -1    0    0    0  501 -0.00000000000E+00  0.00000000000E+00  0.60471587109E+02  0.60471587109E+02  0.00000000000E+00 0.  1.
          1   -1    0    0  501    0  0.00000000000E+00 -0.00000000000E+00 -0.90696724000E+03  0.90696724000E+03  0.00000000000E+00 0. -1.
         23    2    1    2    0    0 -0.15834933078E+03  0.78327441914E+02 -0.72794502607E+03  0.75468556665E+03  0.91851210249E+02 0.  0.
         13    1    3    3    0    0 -0.15129174983E+03  0.96213823996E+02 -0.63840850391E+03  0.66310761673E+03  0.00000000000E+00 0. -1.
        -13    1    3    3    0    0 -0.70575809404E+01 -0.17886382082E+02 -0.89536522154E+02  0.91577949923E+02  0.00000000000E+00 0.  1.
         22    1    1    2    0    0  0.15834933078E+03 -0.78327441914E+02 -0.11855062682E+03  0.21275326045E+03  0.00000000000E+00 0.  1.
<mgrwt>
<rscale>  0 0.46838338E+03</rscale>
<asrwt>0</asrwt>
<pdfrwt beam="1">  1        1 0.13953341E+00 0.46838338E+03</pdfrwt>
<pdfrwt beam="2">  1       -1 0.93033216E-02 0.46838338E+03</pdfrwt>
<totfact> 0.12836663E+03</totfact>
</mgrwt>
</event>
<event>
 6    1  0.1773638E-005  0.8534958E+03  0.7818608E-02  0.9485657E-01
         -1   -1    0    0    0  501 -0.00000000000E+00  0.00000000000E+00  0.22047470247E+03  0.22047470247E+03  0.00000000000E+00 0.  1.
          1   -1    0    0  501    0  0.00000000000E+00 -0.00000000000E+00 -0.82600757276E+03  0.82600757276E+03  0.00000000000E+00 0. -1.
         23    2    1    2    0    0  0.30621201367E+03 -0.13156903960E+03 -0.62391524270E+03  0.71269473635E+03  0.87105382475E+02 0.  0.
         11    1    3    3    0    0  0.30128275726E+03 -0.12897633852E+03 -0.62611947677E+03  0.70670488530E+03  0.00000000000E+00 0. -1.
        -11    1    3    3    0    0  0.49292564132E+01 -0.25927010894E+01  0.22042340760E+01  0.59898510489E+01  0.00000000000E+00 0.  1.
         22    1    1    2    0    0 -0.30621201367E+03  0.13156903960E+03  0.18382372404E+02  0.33378753888E+03  0.00000000000E+00 0.  1.
<mgrwt>
<rscale>  0 0.85349581E+03</rscale>
<asrwt>0</asrwt>
<pdfrwt beam="1">  1        1 0.12707809E+00 0.85349581E+03</pdfrwt>
<pdfrwt beam="2">  1       -1 0.33919185E-01 0.85349581E+03</pdfrwt>
<totfact> 0.17372509E+02</totfact>
</mgrwt>
</event>
<event>
 6    1  0.1773638E-005  0.4610288E+04  0.7818608E-02  0.7891608E-01
         -2   -1    0    0    0  501 -0.00000000000E+00  0.00000000000E+00  0.12233255985E+04  0.12233255985E+04  0.00000000000E+00 0.  1.
          2   -1    0    0  501    0  0.00000000000E+00 -0.00000000000E+00 -0.43436431550E+04  0.43436431550E+04  0.00000000000E+00 0. -1.
         23    2    1    2    0    0 -0.29598146953E+03 -0.22642722203E+04 -0.11886314026E+04  0.25759914691E+04  0.91398686397E+02 0.  0.
         11    1    3    3    0    0 -0.21037073316E+03 -0.18751667989E+04 -0.98561554583E+03  0.21288363895E+04  0.00000000000E+00 0.  1.
        -11    1    3    3    0    0 -0.85610736363E+02 -0.38910542139E+03 -0.20301585675E+03  0.44715507962E+03  0.00000000000E+00 0. -1.
         22    1    1    2    0    0  0.29598146953E+03  0.22642722203E+04 -0.19316861540E+04  0.29909772843E+04  0.00000000000E+00 0. -1.
<mgrwt>
<rscale>  0 0.46102884E+04</rscale>
<asrwt>0</asrwt>
<pdfrwt beam="1">  1        2 0.66825280E+00 0.46102884E+04</pdfrwt>
<pdfrwt beam="2">  1       -2 0.18820394E+00 0.46102884E+04</pdfrwt>
<totfact> 0.20571462E-02</totfact>
</mgrwt>
</event>
<event>
 6    1  0.1773638E-005  0.1578338E+04  0.7818608E-02  0.8833968E-01
         -1   -1    0    0    0  501 -0.00000000000E+00  0.00000000000E+00  0.30141886569E+03  0.30141886569E+03  0.00000000000E+00 0.  1.
          1   -1    0    0  501    0  0.00000000000E+00 -0.00000000000E+00 -0.20661856642E+04  0.20661856642E+04  0.00000000000E+00 0. -1.
         23    2    1    2    0    0 -0.25326558678E+03  0.36644093790E+03 -0.18577460691E+04  0.19125577596E+04  0.90743090083E+02 0.  0.
         11    1    3    3    0    0 -0.26624196108E+00 -0.45609330045E+01 -0.35691100344E+02  0.35982323972E+02  0.00000000000E+00 0.  1.
        -11    1    3    3    0    0 -0.25299934482E+03  0.37100187091E+03 -0.18220549687E+04  0.18765754357E+04  0.00000000000E+00 0. -1.
         22    1    1    2    0    0  0.25326558678E+03 -0.36644093790E+03  0.92979270502E+02  0.45504677030E+03  0.00000000000E+00 0.  1.
<mgrwt>
<rscale>  0 0.15783375E+04</rscale>
<asrwt>0</asrwt>
<pdfrwt beam="1">  1        1 0.31787471E+00 0.15783375E+04</pdfrwt>
<pdfrwt beam="2">  1       -1 0.46372134E-01 0.15783375E+04</pdfrwt>
<totfact> 0.11963710E+01</totfact>
</mgrwt>
</event>
<event>
 6    1  0.1773638E-005  0.1559490E+04  0.7818608E-02  0.8845829E-01
          2   -1    0    0  501    0  0.00000000000E+00  0.00000000000E+00  0.80608458429E+03  0.80608458429E+03  0.00000000000E+00 0. -1.
         -2   -1    0    0    0  501 -0.00000000000E+00 -0.00000000000E+00 -0.75426595493E+03  0.75426595493E+03  0.00000000000E+00 0.  1.
         23    2    1    2    0    0 -0.42778105223E+02 -0.48022298620E+03  0.63562423027E+03  0.80320256001E+03  0.93124151268E+02 0.  0.
         13    1    3    3    0    0 -0.27030355815E+02 -0.19715753099E+03  0.33749277328E+03  0.39179472198E+03  0.00000000000E+00 0.  1.
        -13    1    3    3    0    0 -0.15747749408E+02 -0.28306545521E+03  0.29813145699E+03  0.41140783803E+03  0.00000000000E+00 0. -1.
         22    1    1    2    0    0  0.42778105223E+02  0.48022298620E+03 -0.58380560091E+03  0.75714797920E+03  0.00000000000E+00 0.  1.
<mgrwt>
<rscale>  0 0.15594899E+04</rscale>
<asrwt>0</asrwt>
<pdfrwt beam="1">  1        2 0.12401301E+00 0.15594899E+04</pdfrwt>
<pdfrwt beam="2">  1       -2 0.11604092E+00 0.15594899E+04</pdfrwt>
<totfact> 0.18918770E+01</totfact>
</mgrwt>
</event>
<event>
 6    1  0.1773638E-005  0.2307645E+04  0.7818608E-02  0.8474913E-01
          2   -1    0    0  501    0  0.00000000000E+00  0.00000000000E+00  0.12870698716E+04  0.12870698716E+04  0.00000000000E+00 0. -1.
         -2   -1    0    0    0  501 -0.00000000000E+00 -0.00000000000E+00 -0.10343702130E+04  0.10343702130E+04  0.00000000000E+00 0.  1.
         23    2    1    2    0    0 -0.85315289620E+03 -0.18555928489E+02  0.90511279089E+03  0.12472626868E+04  0.90668951998E+02 0.  0.
         13    1    3    3    0    0 -0.68532716744E+03 -0.69165852049E+01  0.67254269308E+03  0.96022645225E+03  0.00000000000E+00 0. -1.
        -13    1    3    3    0    0 -0.16782572876E+03 -0.11639343284E+02  0.23257009781E+03  0.28703623454E+03  0.00000000000E+00 0.  1.
         22    1    1    2    0    0  0.85315289620E+03  0.18555928489E+02 -0.65241313227E+03  0.10741773978E+04  0.00000000000E+00 0.  1.
<mgrwt>
<rscale>  0 0.23076453E+04</rscale>
<asrwt>0</asrwt>
<pdfrwt beam="1">  1        2 0.19801075E+00 0.23076453E+04</pdfrwt>
<pdfrwt beam="2">  1       -2 0.15913388E+00 0.23076453E+04</pdfrwt>
<totfact> 0.38967402E+00</totfact>
</mgrwt>
</event>
<event>
 6    1  0.1773638E-005  0.1792620E+04  0.7818608E-02  0.8710234E-01
          2   -1    0    0  501    0  0.00000000000E+00  0.00000000000E+00  0.17158599245E+04  0.17158599245E+04  0.00000000000E+00 0. -1.
         -2   -1    0    0    0  501 -0.00000000000E+00 -0.00000000000E+00 -0.46820348578E+03  0.46820348578E+03  0.00000000000E+00 0.  1.
         23    2    1    2    0    0  0.40842869078E+03  0.17186410602E+03 -0.32059205413E+03  0.55441479733E+03  0.90803281513E+02 0.  0.
         11    1    3    3    0    0  0.25373293700E+03  0.14026690872E+03 -0.16926833819E+03  0.33571860138E+03  0.00000000000E+00 0. -1.
        -11    1    3    3    0    0  0.15469575377E+03  0.31597197304E+02 -0.15132371594E+03  0.21869619594E+03  0.00000000000E+00 0.  1.
         22    1    1    2    0    0 -0.40842869078E+03 -0.17186410602E+03  0.15682484929E+04  0.16296486130E+04  0.00000000000E+00 0. -1.
<mgrwt>
<rscale>  0 0.17926200E+04</rscale>
<asrwt>0</asrwt>
<pdfrwt beam="1">  1        2 0.26397845E+00 0.17926200E+04</pdfrwt>
<pdfrwt beam="2">  1       -2 0.72031306E-01 0.17926200E+04</pdfrwt>
<totfact> 0.15846458E+01</totfact>
</mgrwt>
</event>
<event>
 6    1  0.1773638E-005  0.7592369E+03  0.7818608E-02  0.9620969E-01
          1   -1    0    0  501    0  0.00000000000E+00  0.00000000000E+00  0.80011685185E+03  0.80011685185E+03  0.00000000000E+00 0. -1.
         -1   -1    0    0    0  501 -0.00000000000E+00 -0.00000000000E+00 -0.18011142314E+03  0.18011142314E+03  0.00000000000E+00 0.  1.
         23    2    1    2    0    0  0.17212456804E+03  0.27852598186E+03  0.80697771819E+02  0.34931121366E+03  0.91118626630E+02 0.  0.
         13    1    3    3    0    0  0.72976311219E+02  0.94121329296E+02 -0.13244342307E+02  0.11983229628E+03  0.00000000000E+00 0. -1.
        -13    1    3    3    0    0  0.99148256817E+02  0.18440465256E+03  0.93942114126E+02  0.22947891738E+03  0.00000000000E+00 0.  1.
         22    1    1    2    0    0 -0.17212456804E+03 -0.27852598186E+03  0.53930765689E+03  0.63091706132E+03  0.00000000000E+00 0. -1.
<mgrwt>
<rscale>  0 0.75923695E+03</rscale>
<asrwt>0</asrwt>
<pdfrwt beam="1">  1        1 0.12309490E+00 0.75923695E+03</pdfrwt>
<pdfrwt beam="2">  1       -1 0.27709450E-01 0.75923695E+03</pdfrwt>
<totfact> 0.26187918E+02</totfact>
</mgrwt>
</event>
<event>
 6    1  0.1773638E-005  0.5012368E+04  0.7818608E-02  0.7826602E-01
         -1   -1    0    0    0  501 -0.00000000000E+00  0.00000000000E+00  0.26968656290E+04  0.26968656290E+04  0.00000000000E+00 0.  1.
          1   -1    0    0  501    0  0.00000000000E+00 -0.00000000000E+00 -0.23289842670E+04  0.23289842670E+04  0.00000000000E+00 0. -1.
         23    2    1    2    0    0 -0.13882226418E+04 -0.15056980307E+04 -0.12629942211E+04  0.24078270104E+04  0.90486720813E+02 0.  0.
         13    1    3    3    0    0 -0.30896146747E+03 -0.31223169727E+03 -0.31107493735E+03  0.53825034864E+03  0.00000000000E+00 0.  1.
        -13    1    3    3    0    0 -0.10792611743E+04 -0.11934663334E+04 -0.95191928370E+03  0.18695766617E+04  0.00000000000E+00 0. -1.
         22    1    1    2    0    0  0.13882226418E+04  0.15056980307E+04  0.16308755831E+04  0.26180228857E+04  0.00000000000E+00 0. -1.
<mgrwt>
<rscale>  0 0.50123678E+04</rscale>
<asrwt>0</asrwt>
<pdfrwt beam="1">  1        1 0.35830527E+00 0.50123678E+04</pdfrwt>
<pdfrwt beam="2">  1       -1 0.41490240E+00 0.50123678E+04</pdfrwt>
<totfact> 0.72545873E-03</totfact>
</mgrwt>
</event>
<event>
 6    1  0.1773638E-005  0.5602373E+03  0.7818608E-02  0.9991518E-01
         -1   -1    0    0    0  501 -0.00000000000E+00  0.00000000000E+00  0.24380601818E+03  0.24380601818E+03  0.00000000000E+00 0.  1.
          1   -1    0    0  501    0  0.00000000000E+00 -0.00000000000E+00 -0.32183969887E+03  0.32183969887E+03  0.00000000000E+00 0. -1.
         23    2    1    2    0    0  0.11066662118E+03  0.20459987619E+03  0.10481978661E+03  0.26976803812E+03  0.87632165017E+02 0.  0.
         11    1    3    3    0    0  0.42211382470E+02  0.15864420286E+03  0.53549704423E+02  0.17267702440E+03  0.00000000000E+00 0.  1.
        -11    1    3    3    0    0  0.68455238709E+02  0.45955673331E+02  0.51270082189E+02  0.97091013722E+02  0.00000000000E+00 0. -1.
         22    1    1    2    0    0 -0.11066662118E+03 -0.20459987619E+03 -0.18285346730E+03  0.29587767892E+03  0.00000000000E+00 0. -1.
<mgrwt>
<rscale>  0 0.56023729E+03</rscale>
<asrwt>0</asrwt>
<pdfrwt beam="1">  1        1 0.49513800E-01 0.56023729E+03</pdfrwt>
<pdfrwt beam="2">  1       -1 0.37508618E-01 0.56023729E+03</pdfrwt>
<totfact> 0.55323620E+02</totfact>
</mgrwt>
</event>
<event>
 6    1  0.1773638E-005  0.2715096E+04  0.7818608E-02  0.8330123E-01
         -2   -1    0    0    0  501 -0.00000000000E+00  0.00000000000E+00  0.13224350507E+04  0.13224350507E+04  0.00000000000E+00 0.  1.
          2   -1    0    0  501    0  0.00000000000E+00 -0.00000000000E+00 -0.13935937456E+04  0.13935937456E+04  0.00000000000E+00 0. -1.
         23    2    1    2    0    0  0.94469311415E+02 -0.13520775368E+04  0.59459724403E+01  0.13584636060E+04  0.91377776559E+02 0.  0.
         11    1    3    3    0    0  0.55890029962E+02 -0.11996067272E+04  0.13872146457E+02  0.12009881065E+04  0.00000000000E+00 0.  1.
        -11    1    3    3    0    0  0.38579281453E+02 -0.15247080952E+03 -0.79261740165E+01  0.15747549952E+03  0.00000000000E+00 0. -1.
         22    1    1    2    0    0 -0.94469311415E+02  0.13520775368E+04 -0.77104667409E+02  0.13575651903E+04  0.00000000000E+00 0.  1.
<mgrwt>
<rscale>  0 0.27150965E+04</rscale>
<asrwt>0</asrwt>
<pdfrwt beam="1">  1        2 0.21439904E+00 0.27150965E+04</pdfrwt>
<pdfrwt beam="2">  1       -2 0.20345155E+00 0.27150965E+04</pdfrwt>
<totfact> 0.16145842E+00</totfact>
</mgrwt>
</event>
<event>
 6    1  0.1773638E-005  0.1790387E+04  0.7818608E-02  0.8711428E-01
         -2   -1    0    0    0  501 -0.00000000000E+00  0.00000000000E+00  0.36951462777E+03  0.36951462777E+03  0.00000000000E+00 0. -1.
          2   -1    0    0  501    0  0.00000000000E+00 -0.00000000000E+00 -0.21687127884E+04  0.21687127884E+04  0.00000000000E+00 0.  1.
         23    2    1    2    0    0 -0.44557456043E+02  0.57102547693E+03 -0.18729725196E+04  0.19607344567E+04  0.91641085467E+02 0.  0.
         11    1    3    3    0    0 -0.38922241484E+02  0.87670946341E+02 -0.34846355143E+03  0.36142493327E+03  0.00000000000E+00 0.  1.
        -11    1    3    3    0    0 -0.56352145595E+01  0.48335453059E+03 -0.15245089682E+04  0.15993095235E+04  0.00000000000E+00 0. -1.
         22    1    1    2    0    0  0.44557456043E+02 -0.57102547693E+03  0.73774358928E+02  0.57749295946E+03  0.00000000000E+00 0. -1.
<mgrwt>
<rscale>  0 0.17903867E+04</rscale>
<asrwt>0</asrwt>
<pdfrwt beam="1">  1        2 0.33364812E+00 0.17903867E+04</pdfrwt>
<pdfrwt beam="2">  1       -2 0.56848404E-01 0.17903867E+04</pdfrwt>
<totfact> 0.14744999E+01</totfact>
</mgrwt>
</event>
<event>
 6    1  0.1773638E-005  0.1756079E+04  0.7818608E-02  0.8730011E-01
         -2   -1    0    0    0  501 -0.00000000000E+00  0.00000000000E+00  0.14263075070E+04  0.14263075070E+04  0.00000000000E+00 0.  1.
          2   -1    0    0  501    0  0.00000000000E+00 -0.00000000000E+00 -0.54052424916E+03  0.54052424916E+03  0.00000000000E+00 0. -1.
         23    2    1    2    0    0 -0.81787349469E+03  0.20344594252E+03  0.70820975619E+03  0.11055306164E+04  0.10163454260E+03 0.  0.
         13    1    3    3    0    0 -0.14883382857E+03 -0.25073290382E+01  0.12751671596E+03  0.19600588785E+03  0.00000000000E+00 0. -1.
        -13    1    3    3    0    0 -0.66903966613E+03  0.20595327156E+03  0.58069304024E+03  0.90952472858E+03  0.00000000000E+00 0.  1.
         22    1    1    2    0    0  0.81787349469E+03 -0.20344594252E+03  0.17757350166E+03  0.86130113976E+03  0.00000000000E+00 0. -1.
<mgrwt>
<rscale>  0 0.17560795E+04</rscale>
<asrwt>0</asrwt>
<pdfrwt beam="1">  1        2 0.83157578E-01 0.17560795E+04</pdfrwt>
<pdfrwt beam="2">  1       -2 0.21943192E+00 0.17560795E+04</pdfrwt>
<totfact> 0.53020346E+00</totfact>
</mgrwt>
</event>
<event>
 6    1  0.1773638E-005  0.1653329E+04  0.7818608E-02  0.8788440E-01
          1   -1    0    0  501    0  0.00000000000E+00  0.00000000000E+00  0.11942974563E+04  0.11942974563E+04  0.00000000000E+00 0. -1.
         -1   -1    0    0    0  501 -0.00000000000E+00 -0.00000000000E+00 -0.57219755063E+03  0.57219755063E+03  0.00000000000E+00 0.  1.
         23    2    1    2    0    0 -0.72129296052E+02 -0.44224761928E+03 -0.42708743663E+03  0.62562706043E+03  0.90663929459E+02 0.  0.
         11    1    3    3    0    0 -0.28386242738E+02 -0.19541442477E+03 -0.12774464556E+03  0.23518348295E+03  0.00000000000E+00 0. -1.
        -11    1    3    3    0    0 -0.43743053315E+02 -0.24683319452E+03 -0.29934279108E+03  0.39044357748E+03  0.00000000000E+00 0.  1.
         22    1    1    2    0    0  0.72129296052E+02  0.44224761928E+03  0.10491873423E+04  0.11408679465E+04  0.00000000000E+00 0. -1.
<mgrwt>
<rscale>  0 0.16533289E+04</rscale>
<asrwt>0</asrwt>
<pdfrwt beam="1">  1        1 0.18373807E+00 0.16533289E+04</pdfrwt>
<pdfrwt beam="2">  1       -1 0.88030393E-01 0.16533289E+04</pdfrwt>
<totfact> 0.13073490E+01</totfact>
</mgrwt>
</event>
<event>
 6    1  0.1773638E-005  0.3728250E+04  0.7818608E-02  0.8061730E-01
         -2   -1    0    0    0  501 -0.00000000000E+00  0.00000000000E+00  0.16988112911E+04  0.16988112911E+04  0.00000000000E+00 0. -1.
          2   -1    0    0  501    0  0.00000000000E+00 -0.00000000000E+00 -0.20455250902E+04  0.20455250902E+04  0.00000000000E+00 0.  1.
         23    2    1    2    0    0 -0.18086026972E+04  0.23277470689E+03  0.20993496405E+03  0.18377463293E+04  0.89504755183E+02 0.  0.
         11    1    3    3    0    0 -0.14485225005E+04  0.18899549143E+03  0.13212657372E+03  0.14667631580E+04  0.00000000000E+00 0.  1.
        -11    1    3    3    0    0 -0.36008019676E+03  0.43779215457E+02  0.77808390329E+02  0.37098317133E+03  0.00000000000E+00 0. -1.
         22    1    1    2    0    0  0.18086026972E+04 -0.23277470689E+03 -0.55664876320E+03  0.19065900520E+04  0.00000000000E+00 0. -1.
<mgrwt>
<rscale>  0 0.37282495E+04</rscale>
<asrwt>0</asrwt>
<pdfrwt beam="1">  1        2 0.31469617E+00 0.37282495E+04</pdfrwt>
<pdfrwt beam="2">  1       -2 0.26135558E+00 0.37282495E+04</pdfrwt>
<totfact> 0.27824557E-01</totfact>
</mgrwt>
</event>
<event>
 6    1  0.1773638E-005  0.1624869E+04  0.7818608E-02  0.8805414E-01
         -1   -1    0    0    0  501 -0.00000000000E+00  0.00000000000E+00  0.33904826258E+03  0.33904826258E+03  0.00000000000E+00 0.  1.
          1   -1    0    0  501    0  0.00000000000E+00 -0.00000000000E+00 -0.19467713925E+04  0.19467713925E+04  0.00000000000E+00 0. -1.
         23    2    1    2    0    0  0.25554809085E+03 -0.62848209983E+03 -0.18363014483E+03  0.70837380601E+03  0.88197746043E+02 0.  0.
         13    1    3    3    0    0  0.10739713616E+03 -0.16678475698E+03 -0.69931420669E+02  0.21033711896E+03  0.00000000000E+00 0. -1.
        -13    1    3    3    0    0  0.14815095469E+03 -0.46169734286E+03 -0.11369872416E+03  0.49803668705E+03  0.00000000000E+00 0.  1.
         22    1    1    2    0    0 -0.25554809085E+03  0.62848209983E+03 -0.14240929851E+04  0.15774458490E+04  0.00000000000E+00 0. -1.
<mgrwt>
<rscale>  0 0.16248686E+04</rscale>
<asrwt>0</asrwt>
<pdfrwt beam="1">  1        1 0.29950330E+00 0.16248686E+04</pdfrwt>
<pdfrwt beam="2">  1       -1 0.52161270E-01 0.16248686E+04</pdfrwt>
<totfact> 0.11482044E+01</totfact>
</mgrwt>
</event>
<event>
 6    1  0.1773638E-005  0.3890311E+04  0.7818608E-02  0.8027047E-01
          2   -1    0    0  501    0  0.00000000000E+00  0.00000000000E+00  0.25292968370E+04  0.25292968370E+04  0.00000000000E+00 0. -1.
         -2   -1    0    0    0  501 -0.00000000000E+00 -0.00000000000E+00 -0.14959217555E+04  0.14959217555E+04  0.00000000000E+00 0.  1.
         23    2    1    2    0    0  0.17060256010E+04  0.33228427636E+03 -0.38172416596E+03  0.17839149381E+04  0.12531151479E+03 0.  0.
         11    1    3    3    0    0  0.44182612309E+03  0.36240052156E+02 -0.12202914918E+03  0.45979862731E+03  0.00000000000E+00 0. -1.
        -11    1    3    3    0    0  0.12641994779E+04  0.29604422420E+03 -0.25969501678E+03  0.13241163107E+04  0.00000000000E+00 0.  1.
         22    1    1    2    0    0 -0.17060256010E+04 -0.33228427636E+03  0.14150992475E+04  0.22413036545E+04  0.00000000000E+00 0. -1.
<mgrwt>
<rscale>  0 0.38903111E+04</rscale>
<asrwt>0</asrwt>
<pdfrwt beam="1">  1        2 0.38912259E+00 0.38903111E+04</pdfrwt>
<pdfrwt beam="2">  1       -2 0.23014181E+00 0.38903111E+04</pdfrwt>
<totfact> 0.22730658E-01</totfact>
</mgrwt>
</event>
<event>
 6    1  0.1773638E-005  0.3101684E+04  0.7818608E-02  0.8215276E-01
         -2   -1    0    0    0  501 -0.00000000000E+00  0.00000000000E+00  0.19896876513E+04  0.19896876513E+04  0.00000000000E+00 0. -1.
          2   -1    0    0  501    0  0.00000000000E+00 -0.00000000000E+00 -0.12087883358E+04  0.12087883358E+04  0.00000000000E+00 0.  1.
         23    2    1    2    0    0  0.13049702419E+04  0.16374591608E+03 -0.45413015481E+03  0.13942980997E+04  0.89849518535E+02 0.  0.
         13    1    3    3    0    0  0.80647085618E+03  0.10573397767E+03 -0.32652107767E+03  0.87646501931E+03  0.00000000000E+00 0.  1.
        -13    1    3    3    0    0  0.49849938570E+03  0.58011938412E+02 -0.12760907714E+03  0.51783308035E+03  0.00000000000E+00 0. -1.
         22    1    1    2    0    0 -0.13049702419E+04 -0.16374591608E+03  0.12350294702E+04  0.18041778875E+04  0.00000000000E+00 0. -1.
<mgrwt>
<rscale>  0 0.31016842E+04</rscale>
<asrwt>0</asrwt>
<pdfrwt beam="1">  1        2 0.18596744E+00 0.31016842E+04</pdfrwt>
<pdfrwt beam="2">  1       -2 0.30610579E+00 0.31016842E+04</pdfrwt>
<totfact> 0.46314317E-01</totfact>
</mgrwt>
</event>
<event>
 6    1  0.1773638E-005  0.3241733E+04  0.7818608E-02  0.8177882E-01
         -2   -1    0    0    0  501 -0.00000000000E+00  0.00000000000E+00  0.89645532757E+03  0.89645532757E+03  0.00000000000E+00 0.  1.
          2   -1    0    0  501    0  0.00000000000E+00 -0.00000000000E+00 -0.29306620811E+04  0.29306620811E+04  0.00000000000E+00 0. -1.
         23    2    1    2    0    0 -0.14958241099E+04  0.25475885440E+03 -0.16855892077E+04  0.22702211260E+04  0.10149454232E+03 0.  0.
         13    1    3    3    0    0 -0.38916397481E+03  0.36825678903E+02 -0.48496317218E+03  0.62289165051E+03  0.00000000000E+00 0. -1.
        -13    1    3    3    0    0 -0.11066601351E+04  0.21793317550E+03 -0.12006260355E+04  0.16473294755E+04  0.00000000000E+00 0.  1.
         22    1    1    2    0    0  0.14958241099E+04 -0.25475885440E+03 -0.34861754587E+03  0.15568962827E+04  0.00000000000E+00 0.  1.
<mgrwt>
<rscale>  0 0.32417326E+04</rscale>
<asrwt>0</asrwt>
<pdfrwt beam="1">  1        2 0.45087110E+00 0.32417326E+04</pdfrwt>
<pdfrwt beam="2">  1       -2 0.13791620E+00 0.32417326E+04</pdfrwt>
<totfact> 0.60231306E-01</totfact>
</mgrwt>
</event>
<event>
 6    1  0.1773638E-005  0.3679100E+04  0.7818608E-02  0.8072609E-01
         -2   -1    0    0    0  501 -0.00000000000E+00  0.00000000000E+00  0.92093887329E+03  0.92093887329E+03  0.00000000000E+00 0.  1.
          2   -1    0    0  501    0  0.00000000000E+00 -0.00000000000E+00 -0.36744505596E+04  0.36744505596E+04  0.00000000000E+00 0. -1.
         23    2    1    2    0    0  0.62343227809E+03 -0.88645616590E+03  0.47723905979E+03  0.11877182746E+04  0.91897988373E+02 0.  0.
         13    1    3    3    0    0  0.29571069879E+03 -0.40965114033E+03  0.17298544141E+03  0.53402512777E+03  0.00000000000E+00 0.  1.
        -13    1    3    3    0    0  0.32772157930E+03 -0.47680502557E+03  0.30425361838E+03  0.65369314686E+03  0.00000000000E+00 0. -1.
         22    1    1    2    0    0 -0.62343227809E+03  0.88645616590E+03 -0.32307507461E+04  0.34076711582E+04  0.00000000000E+00 0. -1.
<mgrwt>
<rscale>  0 0.36791001E+04</rscale>
<asrwt>0</asrwt>
<pdfrwt beam="1">  1        2 0.56530009E+00 0.36791001E+04</pdfrwt>
<pdfrwt beam="2">  1       -2 0.14168290E+00 0.36791001E+04</pdfrwt>
<totfact> 0.17147695E-01</totfact>
</mgrwt>
</event>
<event>
 6    1  0.1773638E-005  0.1112862E+04  0.7818608E-02  0.9192746E-01
         -2   -1    0    0    0  501 -0.00000000000E+00  0.00000000000E+00  0.10344291471E+03  0.10344291471E+03  0.00000000000E+00 0. -1.
          2   -1    0    0  501    0  0.00000000000E+00 -0.00000000000E+00 -0.29931050061E+04  0.29931050061E+04  0.00000000000E+00 0.  1.
         23    2    1    2    0    0 -0.47941696779E+03 -0.18775956149E+03 -0.20145817539E+04  0.20812352207E+04  0.88916358671E+02 0.  0.
         11    1    3    3    0    0 -0.80846496571E+02 -0.20906016444E+02 -0.46974274041E+03  0.47710738801E+03  0.00000000000E+00 0. -1.
        -11    1    3    3    0    0 -0.39857047122E+03 -0.16685354504E+03 -0.15448390135E+04  0.16041278327E+04  0.00000000000E+00 0.  1.
         22    1    1    2    0    0  0.47941696779E+03  0.18775956149E+03 -0.87508033749E+03  0.10153127001E+04  0.00000000000E+00 0. -1.
<mgrwt>
<rscale>  0 0.11128621E+04</rscale>
<asrwt>0</asrwt>
<pdfrwt beam="1">  1        2 0.46047768E+00 0.11128621E+04</pdfrwt>
<pdfrwt beam="2">  1       -2 0.15914295E-01 0.11128621E+04</pdfrwt>
<totfact> 0.56406934E+01</totfact>
</mgrwt>
</event>
<event>
 6    1  0.1773638E-005  0.1410242E+04  0.7818608E-02  0.8946438E-01
          2   -1    0    0  501    0  0.00000000000E+00  0.00000000000E+00  0.65913900445E+03  0.65913900445E+03  0.00000000000E+00 0. -1.
         -2   -1    0    0    0  501 -0.00000000000E+00 -0.00000000000E+00 -0.75431086091E+03  0.75431086091E+03  0.00000000000E+00 0.  1.
         23    2    1    2    0    0 -0.22158794460E+03  0.16004388702E+03 -0.69576202824E+03  0.75358335052E+03  0.95329970474E+02 0.  0.
         13    1    3    3    0    0 -0.93384445267E+02  0.95682608277E+02 -0.22790695938E+03  0.26422982095E+03  0.00000000000E+00 0. -1.
        -13    1    3    3    0    0 -0.12820349934E+03  0.64361278740E+02 -0.46785506886E+03  0.48935352957E+03  0.00000000000E+00 0.  1.
         22    1    1    2    0    0  0.22158794460E+03 -0.16004388702E+03  0.60059017178E+03  0.65986651484E+03  0.00000000000E+00 0. -1.
<mgrwt>
<rscale>  0 0.14102421E+04</rscale>
<asrwt>0</asrwt>
<pdfrwt beam="1">  1        2 0.10140600E+00 0.14102421E+04</pdfrwt>
<pdfrwt beam="2">  1       -2 0.11604782E+00 0.14102421E+04</pdfrwt>
<totfact> 0.24783941E+01</totfact>
</mgrwt>
</event>
<event>
 6    1  0.1773638E-005  0.2288401E+04  0.7818608E-02  0.8482509E-01
         -2   -1    0    0    0  501 -0.00000000000E+00  0.00000000000E+00  0.52885952623E+03  0.52885952623E+03  0.00000000000E+00 0. -1.
          2   -1    0    0  501    0  0.00000000000E+00 -0.00000000000E+00 -0.24755057018E+04  0.24755057018E+04  0.00000000000E+00 0.  1.
         23    2    1    2    0    0  0.90706987942E+03 -0.68962262690E+03 -0.10826249424E+04  0.15743694851E+04  0.90594568304E+02 0.  0.
         11    1    3    3    0    0  0.58133019370E+03 -0.42569687537E+03 -0.74106004335E+03  0.10336017665E+04  0.00000000000E+00 0. -1.
        -11    1    3    3    0    0  0.32573968572E+03 -0.26392575153E+03 -0.34156489909E+03  0.54076771858E+03  0.00000000000E+00 0.  1.
         22    1    1    2    0    0 -0.90706987942E+03  0.68962262690E+03 -0.86402123316E+03  0.14299957430E+04  0.00000000000E+00 0.  1.
<mgrwt>
<rscale>  0 0.22884010E+04</rscale>
<asrwt>0</asrwt>
<pdfrwt beam="1">  1        2 0.38084703E+00 0.22884010E+04</pdfrwt>
<pdfrwt beam="2">  1       -2 0.81363005E-01 0.22884010E+04</pdfrwt>
<totfact> 0.43429031E+00</totfact>
</mgrwt>
</event>
<event>
 6    1  0.1773638E-005  0.1873109E+04  0.7818608E-02  0.8668359E-01
          1   -1    0    0  501    0  0.00000000000E+00  0.00000000000E+00  0.17608777099E+04  0.17608777099E+04  0.00000000000E+00 0. -1.
         -1   -1    0    0    0  501 -0.00000000000E+00 -0.00000000000E+00 -0.49812356914E+03  0.49812356914E+03  0.00000000000E+00 0.  1.
         23    2    1    2    0    0  0.85509345328E+03 -0.17826426363E+03  0.10325995904E+04  0.13557105847E+04  0.93414740468E+02 0.  0.
         13    1    3    3    0    0  0.15312100028E+03 -0.13288088197E+02  0.13699563742E+03  0.20588933602E+03  0.00000000000E+00 0.  1.
        -13    1    3    3    0    0  0.70197245300E+03 -0.16497617543E+03  0.89560395298E+03  0.11498212486E+04  0.00000000000E+00 0. -1.
         22    1    1    2    0    0 -0.85509345328E+03  0.17826426363E+03  0.23015455038E+03  0.90329069440E+03  0.00000000000E+00 0.  1.
<mgrwt>
<rscale>  0 0.18731094E+04</rscale>
<asrwt>0</asrwt>
<pdfrwt beam="1">  1        1 0.27090426E+00 0.18731094E+04</pdfrwt>
<pdfrwt beam="2">  1       -1 0.76634396E-01 0.18731094E+04</pdfrwt>
<totfact> 0.69401763E+00</totfact>
</mgrwt>
</event>
<event>
 6    1  0.1773638E-005  0.1489991E+04  0.7818608E-02  0.8891136E-01
         -2   -1    0    0    0  501 -0.00000000000E+00  0.00000000000E+00  0.71542235376E+03  0.71542235376E+03  0.00000000000E+00 0.  1.
          2   -1    0    0  501    0  0.00000000000E+00 -0.00000000000E+00 -0.77579133903E+03  0.77579133903E+03  0.00000000000E+00 0. -1.
         23    2    1    2    0    0  0.38352854157E+03  0.44382376666E+03 -0.48553577357E+03  0.76675494592E+03  0.89969337111E+02 0.  0.
         11    1    3    3    0    0  0.29794008062E+02  0.75433057093E+02 -0.48029941863E+02  0.94258709593E+02  0.00000000000E+00 0.  1.
        -11    1    3    3    0    0  0.35373453351E+03  0.36839070957E+03 -0.43750583171E+03  0.67249623633E+03  0.00000000000E+00 0. -1.
         22    1    1    2    0    0 -0.38352854157E+03 -0.44382376666E+03  0.42516678830E+03  0.72445874688E+03  0.00000000000E+00 0.  1.
<mgrwt>
<rscale>  0 0.14899912E+04</rscale>
<asrwt>0</asrwt>
<pdfrwt beam="1">  1        2 0.11935251E+00 0.14899912E+04</pdfrwt>
<pdfrwt beam="2">  1       -2 0.11006498E+00 0.14899912E+04</pdfrwt>
<totfact> 0.22761666E+01</totfact>
</mgrwt>
</event>
<event>
 6    1  0.1773638E-005  0.2248515E+04  0.7818608E-02  0.8498502E-01
          2   -1    0    0  501    0  0.00000000000E+00  0.00000000000E+00  0.26628812003E+04  0.26628812003E+04  0.00000000000E+00 0. -1.
         -2   -1    0    0    0  501 -0.00000000000E+00 -0.00000000000E+00 -0.47465703060E+03  0.47465703060E+03  0.00000000000E+00 0.  1.
         23    2    1    2    0    0  0.64073995222E+03  0.89784392480E+03  0.80676978721E+03  0.13697464981E+04  0.93040742701E+02 0.  0.
         11    1    3    3    0    0  0.47536604131E+03  0.60403547536E+03  0.53189186100E+03  0.93474096975E+03  0.00000000000E+00 0.  1.
        -11    1    3    3    0    0  0.16537391091E+03  0.29380844944E+03  0.27487792621E+03  0.43500552834E+03  0.00000000000E+00 0. -1.
         22    1    1    2    0    0 -0.64073995222E+03 -0.89784392480E+03  0.13814543825E+04  0.17677917328E+04  0.00000000000E+00 0. -1.
<mgrwt>
<rscale>  0 0.22485153E+04</rscale>
<asrwt>0</asrwt>
<pdfrwt beam="1">  1        2 0.40967402E+00 0.22485153E+04</pdfrwt>
<pdfrwt beam="2">  1       -2 0.73024160E-01 0.22485153E+04</pdfrwt>
<totfact> 0.43100137E+00</totfact>
</mgrwt>
</event>
<event>
 6    1  0.1773638E-005  0.4907381E+04  0.7818608E-02  0.7842955E-01
          2   -1    0    0  501    0  0.00000000000E+00  0.00000000000E+00  0.31151964005E+04  0.31151964005E+04  0.00000000000E+00 0. -1.
         -2   -1    0    0    0  501 -0.00000000000E+00 -0.00000000000E+00 -0.19326543205E+04  0.19326543205E+04  0.00000000000E+00 0.  1.
         23    2    1    2    0    0  0.13756570844E+02  0.13094950325E+04  0.27248071731E+04  0.30245988580E+04  0.93046427082E+02 0.  0.
         11    1    3    3    0    0  0.43094096890E+02  0.36762249158E+03  0.73522488633E+03  0.82313973964E+03  0.00000000000E+00 0.  1.
        -11    1    3    3    0    0 -0.29337526046E+02  0.94187254096E+03  0.19895822868E+04  0.22014591184E+04  0.00000000000E+00 0. -1.
         22    1    1    2    0    0 -0.13756570844E+02 -0.13094950325E+04 -0.15422650931E+04  0.20232518630E+04  0.00000000000E+00 0.  1.
<mgrwt>
<rscale>  0 0.49073813E+04</rscale>
<asrwt>0</asrwt>
<pdfrwt beam="1">  1        2 0.47926099E+00 0.49073813E+04</pdfrwt>
<pdfrwt beam="2">  1       -2 0.29733143E+00 0.49073813E+04</pdfrwt>
<totfact> 0.35588050E-02</totfact>
</mgrwt>
</event>
<event>
 6    1  0.1773638E-005  0.1522976E+04  0.7818608E-02  0.8869316E-01
         -2   -1    0    0    0  501 -0.00000000000E+00  0.00000000000E+00  0.57649378118E+03  0.57649378118E+03  0.00000000000E+00 0.  1.
          2   -1    0    0  501    0  0.00000000000E+00 -0.00000000000E+00 -0.10058464607E+04  0.10058464607E+04  0.00000000000E+00 0. -1.
         23    2    1    2    0    0 -0.72530340456E+03  0.19794036580E+03 -0.32391412156E+03  0.82315468708E+03  0.86127020408E+02 0.  0.
         11    1    3    3    0    0 -0.55221648641E+03  0.16471962539E+03 -0.28401592329E+03  0.64244894547E+03  0.00000000000E+00 0. -1.
        -11    1    3    3    0    0 -0.17308691815E+03  0.33220740417E+02 -0.39898198271E+02  0.18070574162E+03  0.00000000000E+00 0.  1.
         22    1    1    2    0    0  0.72530340456E+03 -0.19794036580E+03 -0.10543855794E+03  0.75918555477E+03  0.00000000000E+00 0.  1.
<mgrwt>
<rscale>  0 0.15229763E+04</rscale>
<asrwt>0</asrwt>
<pdfrwt beam="1">  1        2 0.15474561E+00 0.15229763E+04</pdfrwt>
<pdfrwt beam="2">  1       -2 0.88691351E-01 0.15229763E+04</pdfrwt>
<totfact> 0.26334586E+01</totfact>
</mgrwt>
</event>
<event>
 6    1  0.1773638E-005  0.1803342E+03  0.7818608E-02  0.1167480E+00
         -1   -1    0    0    0  501 -0.00000000000E+00  0.00000000000E+00  0.79072684017E+03  0.79072684017E+03  0.00000000000E+00 0.  1.
          1   -1    0    0  501    0  0.00000000000E+00 -0.00000000000E+00 -0.10281813503E+02  0.10281813503E+02  0.00000000000E+00 0. -1.
         23    2    1    2    0    0 -0.50900496347E+02 -0.37427648665E+02  0.58911428775E+03  0.59951636830E+03  0.91501597839E+02 0.  0.
         13    1    3    3    0    0 -0.33689033719E+02 -0.55866423229E+02  0.21815943023E+03  0.22770495215E+03  0.00000000000E+00 0.  1.
        -13    1    3    3    0    0 -0.17211462628E+02  0.18438774565E+02  0.37095485752E+03  0.37181141614E+03  0.00000000000E+00 0. -1.
         22    1    1    2    0    0  0.50900496347E+02  0.37427648665E+02  0.19133073891E+03  0.20149228538E+03  0.00000000000E+00 0. -1.
<mgrwt>
<rscale>  0 0.18033420E+03</rscale>
<asrwt>0</asrwt>
<pdfrwt beam="1">  1        1 0.15818181E-02 0.18033420E+03</pdfrwt>
<pdfrwt beam="2">  1       -1 0.12165023E+00 0.18033420E+03</pdfrwt>
<totfact> 0.52603544E+03</totfact>
</mgrwt>
</event>
<event>
 6    1  0.1773638E-005  0.3708292E+04  0.7818608E-02  0.8066127E-01
         -2   -1    0    0    0  501 -0.00000000000E+00  0.00000000000E+00  0.20612146140E+04  0.20612146140E+04  0.00000000000E+00 0.  1.
          2   -1    0    0  501    0  0.00000000000E+00 -0.00000000000E+00 -0.16678790645E+04  0.16678790645E+04  0.00000000000E+00 0. -1.
         23    2    1    2    0    0 -0.16430816132E+04  0.75955804581E+03  0.59497140276E+03  0.19077473001E+04  0.94144455736E+02 0.  0.
         11    1    3    3    0    0 -0.42275605773E+03  0.20237632331E+03  0.11151711113E+03  0.48178307013E+03  0.00000000000E+00 0. -1.
        -11    1    3    3    0    0 -0.12203255554E+04  0.55718172250E+03  0.48345429163E+03  0.14259642300E+04  0.00000000000E+00 0.  1.
         22    1    1    2    0    0  0.16430816132E+04 -0.75955804581E+03 -0.20163585327E+03  0.18213463783E+04  0.00000000000E+00 0. -1.
<mgrwt>
<rscale>  0 0.37082916E+04</rscale>
<asrwt>0</asrwt>
<pdfrwt beam="1">  1        2 0.25659678E+00 0.37082916E+04</pdfrwt>
<pdfrwt beam="2">  1       -2 0.31710994E+00 0.37082916E+04</pdfrwt>
<totfact> 0.20593953E-01</totfact>
</mgrwt>
</event>
<event>
 6    1  0.1773638E-005  0.2409519E+04  0.7818608E-02  0.8435948E-01
          1   -1    0    0  501    0  0.00000000000E+00  0.00000000000E+00  0.16226773168E+04  0.16226773168E+04  0.00000000000E+00 0. -1.
         -1   -1    0    0    0  501 -0.00000000000E+00 -0.00000000000E+00 -0.89447571033E+03  0.89447571033E+03  0.00000000000E+00 0.  1.
         23    2    1    2    0    0  0.95730362517E+03 -0.49588144358E+03  0.92232305647E+03  0.14217025380E+04  0.90717414185E+02 0.  0.
         11    1    3    3    0    0  0.52867431797E+03 -0.32423537183E+03  0.53316685855E+03  0.81785818446E+03  0.00000000000E+00 0. -1.
        -11    1    3    3    0    0  0.42862930720E+03 -0.17164607175E+03  0.38915619793E+03  0.60384435355E+03  0.00000000000E+00 0.  1.
         22    1    1    2    0    0 -0.95730362517E+03  0.49588144358E+03 -0.19412144996E+03  0.10954504892E+04  0.00000000000E+00 0.  1.
<mgrwt>
<rscale>  0 0.24095190E+04</rscale>
<asrwt>0</asrwt>
<pdfrwt beam="1">  1        1 0.24964266E+00 0.24095190E+04</pdfrwt>
<pdfrwt beam="2">  1       -1 0.13761165E+00 0.24095190E+04</pdfrwt>
<totfact> 0.21132820E+00</totfact>
</mgrwt>
</event>
<event>
 6    1  0.1773638E-005  0.5319078E+04  0.7818608E-02  0.7781087E-01
          2   -1    0    0  501    0  0.00000000000E+00  0.00000000000E+00  0.18987444129E+04  0.18987444129E+04  0.00000000000E+00 0. -1.
         -2   -1    0    0    0  501 -0.00000000000E+00 -0.00000000000E+00 -0.37251708749E+04  0.37251708749E+04  0.00000000000E+00 0.  1.
         23    2    1    2    0    0 -0.21745455515E+04  0.90643622639E+03  0.38949989019E+03  0.23896294954E+04  0.91345349288E+02 0.  0.
         13    1    3    3    0    0 -0.18744408900E+04  0.81272439983E+03  0.32624136358E+03  0.20689328234E+04  0.00000000000E+00 0. -1.
        -13    1    3    3    0    0 -0.30010466150E+03  0.93711826567E+02  0.63258526612E+02  0.32069667208E+03  0.00000000000E+00 0.  1.
         22    1    1    2    0    0  0.21745455515E+04 -0.90643622639E+03 -0.22159263522E+04  0.32342857923E+04  0.00000000000E+00 0.  1.
<mgrwt>
<rscale>  0 0.53190779E+04</rscale>
<asrwt>0</asrwt>
<pdfrwt beam="1">  1        2 0.29211453E+00 0.53190779E+04</pdfrwt>
<pdfrwt beam="2">  1       -2 0.57310321E+00 0.53190779E+04</pdfrwt>
<totfact> 0.36111421E-03</totfact>
</mgrwt>
</event>
<event>
 6    1  0.1773638E-005  0.4601369E+04  0.7818608E-02  0.7893126E-01
          2   -1    0    0  501    0  0.00000000000E+00  0.00000000000E+00  0.22166809553E+04  0.22166809553E+04  0.00000000000E+00 0. -1.
         -2   -1    0    0    0  501 -0.00000000000E+00 -0.00000000000E+00 -0.23878718179E+04  0.23878718179E+04  0.00000000000E+00 0.  1.
         23    2    1    2    0    0  0.88371244936E+03  0.38176854027E+03 -0.21757389357E+04  0.23808378885E+04  0.88624055838E+02 0.  0.
         11    1    3    3    0    0  0.24969547103E+03  0.66848830680E+02 -0.55555074030E+03  0.61274237610E+03  0.00000000000E+00 0. -1.
        -11    1    3    3    0    0  0.63401697833E+03  0.31491970959E+03 -0.16201881954E+04  0.17680955124E+04  0.00000000000E+00 0.  1.
         22    1    1    2    0    0 -0.88371244936E+03 -0.38176854027E+03  0.20045480731E+04  0.22237148848E+04  0.00000000000E+00 0. -1.
<mgrwt>
<rscale>  0 0.46013694E+04</rscale>
<asrwt>0</asrwt>
<pdfrwt beam="1">  1        2 0.34102784E+00 0.46013694E+04</pdfrwt>
<pdfrwt beam="2">  1       -2 0.36736490E+00 0.46013694E+04</pdfrwt>
<totfact> 0.45838529E-02</totfact>
</mgrwt>
</event>
<event>
 6    1  0.1773638E-005  0.3410900E+04  0.7818608E-02  0.8135236E-01
         -1   -1    0    0    0  501 -0.00000000000E+00  0.00000000000E+00  0.18097362211E+04  0.18097362211E+04  0.00000000000E+00 0.  1.
          1   -1    0    0  501    0  0.00000000000E+00 -0.00000000000E+00 -0.16071733905E+04  0.16071733905E+04  0.00000000000E+00 0. -1.
         23    2    1    2    0    0 -0.11002141137E+04  0.11672658164E+04  0.67791191362E+03  0.17439071213E+04  0.93096202157E+02 0.  0.
         11    1    3    3    0    0 -0.97542937513E+03  0.10473049699E+04  0.63397827601E+03  0.15653238069E+04  0.00000000000E+00 0.  1.
        -11    1    3    3    0    0 -0.12478473860E+03  0.11996084646E+03  0.43933637607E+02  0.17858331441E+03  0.00000000000E+00 0. -1.
         22    1    1    2    0    0  0.11002141137E+04 -0.11672658164E+04 -0.47534908301E+03  0.16730024904E+04  0.00000000000E+00 0. -1.
<mgrwt>
<rscale>  0 0.34109001E+04</rscale>
<asrwt>0</asrwt>
<pdfrwt beam="1">  1        1 0.24725744E+00 0.34109001E+04</pdfrwt>
<pdfrwt beam="2">  1       -1 0.27842096E+00 0.34109001E+04</pdfrwt>
<totfact> 0.20662783E-01</totfact>
</mgrwt>
</event>
<event>
 6    1  0.1773638E-005  0.1137754E+04  0.7818608E-02  0.9169156E-01
          2   -1    0    0  501    0  0.00000000000E+00  0.00000000000E+00  0.20113935076E+04  0.20113935076E+04  0.00000000000E+00 0.  1.
         -2   -1    0    0    0  501 -0.00000000000E+00 -0.00000000000E+00 -0.16089386682E+03  0.16089386682E+03  0.00000000000E+00 0. -1.
         23    2    1    2    0    0 -0.24144862478E+03  0.29853268630E+03  0.13836661884E+03  0.41763108671E+03  0.88606998487E+02 0.  0.
         11    1    3    3    0    0 -0.14018571296E+03  0.10383823975E+03  0.66713759377E+02  0.18677564039E+03  0.00000000000E+00 0. -1.
        -11    1    3    3    0    0 -0.10126291182E+03  0.19469444655E+03  0.71652859468E+02  0.23085544632E+03  0.00000000000E+00 0.  1.
         22    1    1    2    0    0  0.24144862478E+03 -0.29853268630E+03  0.17121330220E+04  0.17546562877E+04  0.00000000000E+00 0.  1.
<mgrwt>
<rscale>  0 0.11377537E+04</rscale>
<asrwt>0</asrwt>
<pdfrwt beam="1">  1        2 0.30944514E+00 0.11377537E+04</pdfrwt>
<pdfrwt beam="2">  1       -2 0.24752904E-01 0.11377537E+04</pdfrwt>
<totfact> 0.95457814E+01</totfact>
</mgrwt>
</event>
<event>
 6    1  0.1773638E-005  0.1899547E+04  0.7818608E-02  0.8655082E-01
         -1   -1    0    0    0  501 -0.00000000000E+00  0.00000000000E+00  0.81591153019E+03  0.81591153019E+03  0.00000000000E+00 0.  1.
          1   -1    0    0  501    0  0.00000000000E+00 -0.00000000000E+00 -0.11055977108E+04  0.11055977108E+04  0.00000000000E+00 0. -1.
         23    2    1    2    0    0 -0.33135276249E+03  0.46405957498E+03 -0.91074664364E+03  0.10783828915E+04  0.91127764382E+02 0.  0.
         13    1    3    3    0    0 -0.25136077770E+03  0.40968609312E+03 -0.76474382128E+03  0.90324860788E+03  0.00000000000E+00 0.  1.
        -13    1    3    3    0    0 -0.79991984794E+02  0.54373481858E+02 -0.14600282237E+03  0.17513428362E+03  0.00000000000E+00 0. -1.
         22    1    1    2    0    0  0.33135276249E+03 -0.46405957498E+03  0.62106046308E+03  0.84312634945E+03  0.00000000000E+00 0.  1.
<mgrwt>
<rscale>  0 0.18995472E+04</rscale>
<asrwt>0</asrwt>
<pdfrwt beam="1">  1        1 0.17009195E+00 0.18995472E+04</pdfrwt>
<pdfrwt beam="2">  1       -1 0.12552485E+00 0.18995472E+04</pdfrwt>
<totfact> 0.65071178E+00</totfact>
</mgrwt>
</event>
<event>
 6    1  0.1773638E-005  0.5594904E+03  0.7818608E-02  0.9993208E-01
         -1   -1    0    0    0  501 -0.00000000000E+00  0.00000000000E+00  0.70158522856E+02  0.70158522856E+02  0.00000000000E+00 0.  1.
          1   -1    0    0  501    0  0.00000000000E+00 -0.00000000000E+00 -0.11154365576E+04  0.11154365576E+04  0.00000000000E+00 0. -1.
         23    2    1    2    0    0 -0.21782295273E+03 -0.13240098330E+03 -0.73911108321E+03  0.78720449156E+03  0.91808818148E+02 0.  0.
         13    1    3    3    0    0 -0.17200625554E+03 -0.13913241920E+03 -0.65258739383E+03  0.68906769523E+03  0.00000000000E+00 0.  1.
        -13    1    3    3    0    0 -0.45816697186E+02  0.67314358968E+01 -0.86523689378E+02  0.98136796330E+02  0.00000000000E+00 0. -1.
         22    1    1    2    0    0  0.21782295273E+03  0.13240098330E+03 -0.30616695155E+03  0.39839058891E+03  0.00000000000E+00 0. -1.
<mgrwt>
<rscale>  0 0.55949042E+03</rscale>
<asrwt>0</asrwt>
<pdfrwt beam="1">  1        1 0.17160562E+00 0.55949042E+03</pdfrwt>
<pdfrwt beam="2">  1       -1 0.10793619E-01 0.55949042E+03</pdfrwt>
<totfact> 0.70202087E+02</totfact>
</mgrwt>
</event>
<event>
 6    1  0.1773638E-005  0.1715457E+04  0.7818608E-02  0.8752597E-01
         -2   -1    0    0    0  501 -0.00000000000E+00  0.00000000000E+00  0.41440435736E+03  0.41440435736E+03  0.00000000000E+00 0.  1.
          2   -1    0    0  501    0  0.00000000000E+00 -0.00000000000E+00 -0.17753152481E+04  0.17753152481E+04  0.00000000000E+00 0. -1.
         23    2    1    2    0    0  0.63572048486E+03 -0.10719062368E+03 -0.13997710370E+04  0.15438554745E+04  0.92197643494E+02 0.  0.
         11    1    3    3    0    0  0.15032737308E+03 -0.45938311012E+02 -0.26502967915E+03  0.30813857004E+03  0.00000000000E+00 0. -1.
        -11    1    3    3    0    0  0.48539311178E+03 -0.61252312666E+02 -0.11347413579E+04  0.12357169045E+04  0.00000000000E+00 0.  1.
         22    1    1    2    0    0 -0.63572048486E+03  0.10719062368E+03  0.38860146271E+02  0.64586413095E+03  0.00000000000E+00 0. -1.
<mgrwt>
<rscale>  0 0.17154572E+04</rscale>
<asrwt>0</asrwt>
<pdfrwt beam="1">  1        2 0.27312543E+00 0.17154572E+04</pdfrwt>
<pdfrwt beam="2">  1       -2 0.63754516E-01 0.17154572E+04</pdfrwt>
<totfact> 0.19259905E+01</totfact>
</mgrwt>
</event>
<event>
 6    1  0.1773638E-005  0.2306416E+04  0.7818608E-02  0.8475396E-01
          2   -1    0    0  501    0  0.00000000000E+00  0.00000000000E+00  0.92350959701E+03  0.92350959701E+03  0.00000000000E+00 0.  1.
         -2   -1    0    0    0  501 -0.00000000000E+00 -0.00000000000E+00 -0.14400375331E+04  0.14400375331E+04  0.00000000000E+00 0. -1.
         23    2    1    2    0    0 -0.10555966956E+04 -0.45978824710E+03 -0.25655568158E+03  0.11831763455E+04  0.91628767052E+02 0.  0.
         11    1    3    3    0    0 -0.37976503549E+03 -0.17663149349E+03 -0.49599441685E+02  0.42175854619E+03  0.00000000000E+00 0. -1.
        -11    1    3    3    0    0 -0.67583166010E+03 -0.28315675362E+03 -0.20695623989E+03  0.76141779934E+03  0.00000000000E+00 0.  1.
         22    1    1    2    0    0  0.10555966956E+04  0.45978824710E+03 -0.25997225448E+03  0.11803707845E+04  0.00000000000E+00 0. -1.
<mgrwt>
<rscale>  0 0.23064158E+04</rscale>
<asrwt>0</asrwt>
<pdfrwt beam="1">  1        2 0.14207840E+00 0.23064158E+04</pdfrwt>
<pdfrwt beam="2">  1       -2 0.22154423E+00 0.23064158E+04</pdfrwt>
<totfact> 0.24749721E+00</totfact>
</mgrwt>
</event>
<event>
 6    1  0.1773638E-005  0.2763592E+04  0.7818608E-02  0.8314662E-01
         -1   -1    0    0    0  501 -0.00000000000E+00  0.00000000000E+00  0.15643593519E+04  0.15643593519E+04  0.00000000000E+00 0.  1.
          1   -1    0    0  501    0  0.00000000000E+00 -0.00000000000E+00 -0.12205376836E+04  0.12205376836E+04  0.00000000000E+00 0. -1.
         23    2    1    2    0    0 -0.10205588187E+04 -0.86738167563E+03  0.50796537705E+03  0.14355140540E+04  0.93704328228E+02 0.  0.
         13    1    3    3    0    0 -0.24138314921E+03 -0.22842578619E+03  0.16539977469E+03  0.37121590750E+03  0.00000000000E+00 0.  1.
        -13    1    3    3    0    0 -0.77917566952E+03 -0.63895588945E+03  0.34256560236E+03  0.10642981465E+04  0.00000000000E+00 0. -1.
         22    1    1    2    0    0  0.10205588187E+04  0.86738167563E+03 -0.16414370876E+03  0.13493829815E+04  0.00000000000E+00 0. -1.
<mgrwt>
<rscale>  0 0.27635915E+04</rscale>
<asrwt>0</asrwt>
<pdfrwt beam="1">  1        1 0.18777503E+00 0.27635915E+04</pdfrwt>
<pdfrwt beam="2">  1       -1 0.24067067E+00 0.27635915E+04</pdfrwt>
<totfact> 0.71944103E-01</totfact>
</mgrwt>
</event>
<event>
 6    1  0.1773638E-005  0.3148229E+04  0.7818608E-02  0.8202625E-01
          2   -1    0    0  501    0  0.00000000000E+00  0.00000000000E+00  0.18645009331E+04  0.18645009331E+04  0.00000000000E+00 0. -1.
         -2   -1    0    0    0  501 -0.00000000000E+00 -0.00000000000E+00 -0.13289538517E+04  0.13289538517E+04  0.00000000000E+00 0.  1.
         23    2    1    2    0    0  0.29541502611E+03 -0.15205624925E+04  0.54422108040E+03  0.16444371705E+04  0.92826139360E+02 0.  0.
         11    1    3    3    0    0  0.24839000099E+03 -0.10734080366E+04  0.36994163967E+03  0.11622216753E+04  0.00000000000E+00 0. -1.
        -11    1    3    3    0    0  0.47025025123E+02 -0.44715445586E+03  0.17427944073E+03  0.48221549524E+03  0.00000000000E+00 0.  1.
         22    1    1    2    0    0 -0.29541502611E+03  0.15205624925E+04 -0.86739990487E+01  0.15490176143E+04  0.00000000000E+00 0. -1.
<mgrwt>
<rscale>  0 0.31482285E+04</rscale>
<asrwt>0</asrwt>
<pdfrwt beam="1">  1        2 0.28684630E+00 0.31482285E+04</pdfrwt>
<pdfrwt beam="2">  1       -2 0.20445444E+00 0.31482285E+04</pdfrwt>
<totfact> 0.83580344E-01</totfact>
</mgrwt>
</event>
<event>
 6    1  0.1773638E-005  0.2663107E+04  0.7818608E-02  0.8347076E-01
          2   -1    0    0  501    0  0.00000000000E+00  0.00000000000E+00  0.15854664764E+04  0.15854664764E+04  0.00000000000E+00 0. -1.
         -2   -1    0    0    0  501 -0.00000000000E+00 -0.00000000000E+00 -0.11183050833E+04  0.11183050833E+04  0.00000000000E+00 0.  1.
         23    2    1    2    0    0  0.21325694643E+03 -0.52700694901E+03 -0.98684418850E+03  0.11425710342E+04  0.91609313474E+02 0.  0.
         11    1    3    3    0    0  0.17931934287E+03 -0.36649620540E+03 -0.76028405048E+03  0.86284803570E+03  0.00000000000E+00 0. -1.
        -11    1    3    3    0    0  0.33937603551E+02 -0.16051074361E+03 -0.22656013802E+03  0.27972299850E+03  0.00000000000E+00 0.  1.
         22    1    1    2    0    0 -0.21325694643E+03  0.52700694901E+03  0.14540055817E+04  0.15612005255E+04  0.00000000000E+00 0. -1.
<mgrwt>
<rscale>  0 0.26631074E+04</rscale>
<asrwt>0</asrwt>
<pdfrwt beam="1">  1        2 0.24391792E+00 0.26631074E+04</pdfrwt>
<pdfrwt beam="2">  1       -2 0.17204693E+00 0.26631074E+04</pdfrwt>
<totfact> 0.20613651E+00</totfact>
</mgrwt>
</event>
<event>
 6    1  0.1773638E-005  0.1281678E+04  0.7818608E-02  0.9044222E-01
         -2   -1    0    0    0  501 -0.00000000000E+00  0.00000000000E+00  0.11726506266E+03  0.11726506266E+03  0.00000000000E+00 0.  1.
          2   -1    0    0  501    0  0.00000000000E+00 -0.00000000000E+00 -0.35021044003E+04  0.35021044003E+04  0.00000000000E+00 0. -1.
         23    2    1    2    0    0 -0.49397499229E+03  0.39086035179E+03 -0.19794260608E+04  0.20792494721E+04  0.91475293785E+02 0.  0.
         13    1    3    3    0    0 -0.24166756132E+03  0.14035309572E+03 -0.94253984829E+03  0.98309896108E+03  0.00000000000E+00 0. -1.
        -13    1    3    3    0    0 -0.25230743097E+03  0.25050725607E+03 -0.10368862125E+04  0.10961505110E+04  0.00000000000E+00 0.  1.
         22    1    1    2    0    0  0.49397499229E+03 -0.39086035179E+03 -0.14054132769E+04  0.15401199909E+04  0.00000000000E+00 0.  1.
<mgrwt>
<rscale>  0 0.12816778E+04</rscale>
<asrwt>0</asrwt>
<pdfrwt beam="1">  1        2 0.53878526E+00 0.12816778E+04</pdfrwt>
<pdfrwt beam="2">  1       -2 0.18040780E-01 0.12816778E+04</pdfrwt>
<totfact> 0.20796634E+01</totfact>
</mgrwt>
</event>
<event>
 6    1  0.1773638E-005  0.4388159E+04  0.7818608E-02  0.7930515E-01
         -2   -1    0    0    0  501 -0.00000000000E+00  0.00000000000E+00  0.16799466981E+04  0.16799466981E+04  0.00000000000E+00 0. -1.
          2   -1    0    0  501    0  0.00000000000E+00 -0.00000000000E+00 -0.28655587109E+04  0.28655587109E+04  0.00000000000E+00 0.  1.
         23    2    1    2    0    0 -0.18330627273E+04 -0.11439312846E+04 -0.20387308379E+03  0.21722146406E+04  0.90854084228E+02 0.  0.
         13    1    3    3    0    0 -0.99658588617E+03 -0.57868270164E+03 -0.13541097020E+03  0.11603418585E+04  0.00000000000E+00 0.  1.
        -13    1    3    3    0    0 -0.83647684115E+03 -0.56524858293E+03 -0.68462113591E+02  0.10118727822E+04  0.00000000000E+00 0. -1.
         22    1    1    2    0    0  0.18330627273E+04  0.11439312846E+04 -0.98173892904E+03  0.23732907683E+04  0.00000000000E+00 0.  1.
<mgrwt>
<rscale>  0 0.43881595E+04</rscale>
<asrwt>0</asrwt>
<pdfrwt beam="1">  1        2 0.44085519E+00 0.43881595E+04</pdfrwt>
<pdfrwt beam="2">  1       -2 0.25845334E+00 0.43881595E+04</pdfrwt>
<totfact> 0.91934035E-02</totfact>
</mgrwt>
</event>
<event>
 6    1  0.1773638E-005  0.3776833E+04  0.7818608E-02  0.8051145E-01
          1   -1    0    0  501    0  0.00000000000E+00  0.00000000000E+00  0.18340195178E+04  0.18340195178E+04  0.00000000000E+00 0. -1.
         -1   -1    0    0    0  501 -0.00000000000E+00 -0.00000000000E+00 -0.19444272933E+04  0.19444272933E+04  0.00000000000E+00 0.  1.
         23    2    1    2    0    0 -0.14323668431E+04 -0.15263891812E+03  0.11646717942E+04  0.18547001225E+04  0.92080093976E+02 0.  0.
         13    1    3    3    0    0 -0.10516066367E+04 -0.80304123844E+02  0.81802990339E+03  0.13347277601E+04  0.00000000000E+00 0. -1.
        -13    1    3    3    0    0 -0.38076020639E+03 -0.72334794273E+02  0.34664189081E+03  0.51997236243E+03  0.00000000000E+00 0.  1.
         22    1    1    2    0    0  0.14323668431E+04  0.15263891812E+03 -0.12750795697E+04  0.19237466885E+04  0.00000000000E+00 0.  1.
<mgrwt>
<rscale>  0 0.37768334E+04</rscale>
<asrwt>0</asrwt>
<pdfrwt beam="1">  1        1 0.28215685E+00 0.37768334E+04</pdfrwt>
<pdfrwt beam="2">  1       -1 0.29914266E+00 0.37768334E+04</pdfrwt>
<totfact> 0.10300161E-01</totfact>
</mgrwt>
</event>
<event>
 6    1  0.1887500E-005  0.4329220E+04  0.7818608E-02  0.7941237E-01
         -2   -1    0    0    0  501 -0.00000000000E+00  0.00000000000E+00  0.15673903714E+04  0.15673903714E+04  0.00000000000E+00 0. -1.
          2   -1    0    0  501    0  0.00000000000E+00 -0.00000000000E+00 -0.29893872893E+04  0.29893872893E+04  0.00000000000E+00 0.  1.
         23    2    1    2    0    0  0.17065605741E+04  0.10946089169E+04 -0.15066156456E+04  0.25275714112E+04  0.90602768127E+02 0.  0.
         13    1    3    3    0    0  0.80041602054E+03  0.52541204351E+03 -0.65663448409E+03  0.11609877119E+04  0.00000000000E+00 0. -1.
        -13    1    3    3    0    0  0.90614455352E+03  0.56919687336E+03 -0.84998116149E+03  0.13665836994E+04  0.00000000000E+00 0.  1.
         22    1    1    2    0    0 -0.17065605741E+04 -0.10946089169E+04  0.84618727667E+02  0.20292062495E+04  0.00000000000E+00 0. -1.
<mgrwt>
<rscale>  0 0.43292202E+04</rscale>
<asrwt>0</asrwt>
<pdfrwt beam="1">  1        2 0.45990573E+00 0.43292202E+04</pdfrwt>
<pdfrwt beam="2">  1       -2 0.24113698E+00 0.43292202E+04</pdfrwt>
<totfact> 0.98940712E-02</totfact>
</mgrwt>
</event>
<event>
 6    1  0.1773638E-005  0.3997786E+04  0.7818608E-02  0.8004993E-01
          2   -1    0    0  501    0  0.00000000000E+00  0.00000000000E+00  0.24174672017E+04  0.24174672017E+04  0.00000000000E+00 0. -1.
         -2   -1    0    0    0  501 -0.00000000000E+00 -0.00000000000E+00 -0.16527930623E+04  0.16527930623E+04  0.00000000000E+00 0.  1.
         23    2    1    2    0    0  0.39268280579E+03 -0.10226084911E+04 -0.13185246776E+04  0.17166151712E+04  0.91282026896E+02 0.  0.
         13    1    3    3    0    0  0.30376521675E+03 -0.87600047260E+03 -0.11323541369E+04  0.14635149559E+04  0.00000000000E+00 0. -1.
        -13    1    3    3    0    0  0.88917589040E+02 -0.14660801851E+03 -0.18617054077E+03  0.25310021529E+03  0.00000000000E+00 0.  1.
         22    1    1    2    0    0 -0.39268280579E+03  0.10226084911E+04  0.20831988169E+04  0.23536450928E+04  0.00000000000E+00 0. -1.
<mgrwt>
<rscale>  0 0.39977859E+04</rscale>
<asrwt>0</asrwt>
<pdfrwt beam="1">  1        2 0.37191803E+00 0.39977859E+04</pdfrwt>
<pdfrwt beam="2">  1       -2 0.25427586E+00 0.39977859E+04</pdfrwt>
<totfact> 0.18541201E-01</totfact>
</mgrwt>
</event>
<event>
 6    1  0.1773638E-005  0.2688233E+04  0.7818608E-02  0.8338833E-01
          1   -1    0    0  501    0  0.00000000000E+00  0.00000000000E+00  0.14267664813E+04  0.14267664813E+04  0.00000000000E+00 0. -1.
         -1   -1    0    0    0  501 -0.00000000000E+00 -0.00000000000E+00 -0.12662538563E+04  0.12662538563E+04  0.00000000000E+00 0.  1.
         23    2    1    2    0    0  0.81036743372E+03  0.79509449894E+03 -0.63731301858E+03  0.13054338007E+04  0.95492851045E+02 0.  0.
         11    1    3    3    0    0  0.40993213135E+03  0.39722904916E+03 -0.26586497038E+03  0.62969790558E+03  0.00000000000E+00 0.  1.
        -11    1    3    3    0    0  0.40043530237E+03  0.39786544978E+03 -0.37144804820E+03  0.67573589517E+03  0.00000000000E+00 0. -1.
         22    1    1    2    0    0 -0.81036743372E+03 -0.79509449894E+03  0.79782564360E+03  0.13875865369E+04  0.00000000000E+00 0. -1.
<mgrwt>
<rscale>  0 0.26882325E+04</rscale>
<asrwt>0</asrwt>
<pdfrwt beam="1">  1        1 0.21950254E+00 0.26882325E+04</pdfrwt>
<pdfrwt beam="2">  1       -1 0.19480829E+00 0.26882325E+04</pdfrwt>
<totfact> 0.10516232E+00</totfact>
</mgrwt>
</event>
<event>
 6    1  0.1773638E-005  0.1445477E+04  0.7818608E-02  0.8921543E-01
          2   -1    0    0  501    0  0.00000000000E+00  0.00000000000E+00  0.19508931995E+04  0.19508931995E+04  0.00000000000E+00 0. -1.
         -2   -1    0    0    0  501 -0.00000000000E+00 -0.00000000000E+00 -0.26774944936E+03  0.26774944936E+03  0.00000000000E+00 0.  1.
         23    2    1    2    0    0 -0.46145083327E+03 -0.49842309578E+03  0.12109378939E+04  0.13913936993E+04  0.90793113968E+02 0.  0.
         11    1    3    3    0    0 -0.11737464405E+03 -0.74104552674E+02  0.25820989318E+03  0.29315634179E+03  0.00000000000E+00 0. -1.
        -11    1    3    3    0    0 -0.34407618921E+03 -0.42431854310E+03  0.95272800071E+03  0.10982373575E+04  0.00000000000E+00 0.  1.
         22    1    1    2    0    0  0.46145083327E+03  0.49842309578E+03  0.47220585623E+03  0.82724894958E+03  0.00000000000E+00 0.  1.
<mgrwt>
<rscale>  0 0.14454765E+04</rscale>
<asrwt>0</asrwt>
<pdfrwt beam="1">  1        2 0.30013741E+00 0.14454765E+04</pdfrwt>
<pdfrwt beam="2">  1       -2 0.41192224E-01 0.14454765E+04</pdfrwt>
<totfact> 0.38544589E+01</totfact>
</mgrwt>
</event>
<event>
 6    1  0.1773638E-005  0.3095849E+04  0.7818608E-02  0.8216878E-01
         -1   -1    0    0    0  501 -0.00000000000E+00  0.00000000000E+00  0.90932118028E+03  0.90932118028E+03  0.00000000000E+00 0.  1.
          1   -1    0    0  501    0  0.00000000000E+00 -0.00000000000E+00 -0.26350091705E+04  0.26350091705E+04  0.00000000000E+00 0. -1.
         23    2    1    2    0    0  0.29685675523E+03  0.13355344324E+04 -0.39340497617E+02  0.13728000104E+04  0.10609448943E+03 0.  0.
         11    1    3    3    0    0  0.23988224740E+03  0.87557596901E+03 -0.49820637773E+02  0.90920782337E+03  0.00000000000E+00 0.  1.
        -11    1    3    3    0    0  0.56974507831E+02  0.45995846337E+03  0.10480140156E+02  0.46359218706E+03  0.00000000000E+00 0. -1.
         22    1    1    2    0    0 -0.29685675523E+03 -0.13355344324E+04 -0.16863474926E+04  0.21715303403E+04  0.00000000000E+00 0. -1.
<mgrwt>
<rscale>  0 0.30958486E+04</rscale>
<asrwt>0</asrwt>
<pdfrwt beam="1">  1        1 0.40538602E+00 0.30958486E+04</pdfrwt>
<pdfrwt beam="2">  1       -1 0.13989557E+00 0.30958486E+04</pdfrwt>
<totfact> 0.38639192E-01</totfact>
</mgrwt>
</event>
<event>
 6    1  0.1773638E-005  0.2274416E+04  0.7818608E-02  0.8488077E-01
         -2   -1    0    0    0  501 -0.00000000000E+00  0.00000000000E+00  0.90186587466E+03  0.90186587466E+03  0.00000000000E+00 0.  1.
          2   -1    0    0  501    0  0.00000000000E+00 -0.00000000000E+00 -0.14339624561E+04  0.14339624561E+04  0.00000000000E+00 0. -1.
         23    2    1    2    0    0  0.27948989004E+03  0.82329653535E+02  0.86029155566E+03  0.91328219977E+03  0.95341728439E+02 0.  0.
         13    1    3    3    0    0  0.12527101688E+03 -0.48619602459E+00  0.45221665560E+03  0.46924723511E+03  0.00000000000E+00 0. -1.
        -13    1    3    3    0    0  0.15421887316E+03  0.82815849560E+02  0.40807490006E+03  0.44403496465E+03  0.00000000000E+00 0.  1.
         22    1    1    2    0    0 -0.27948989004E+03 -0.82329653535E+02 -0.13923881371E+04  0.14225461310E+04  0.00000000000E+00 0. -1.
<mgrwt>
<rscale>  0 0.22744158E+04</rscale>
<asrwt>0</asrwt>
<pdfrwt beam="1">  1        2 0.22060961E+00 0.22744158E+04</pdfrwt>
<pdfrwt beam="2">  1       -2 0.13874860E+00 0.22744158E+04</pdfrwt>
<totfact> 0.46227386E+00</totfact>
</mgrwt>
</event>
<event>
 6    1  0.1773638E-005  0.1668731E+04  0.7818608E-02  0.8779402E-01
         -1   -1    0    0    0  501 -0.00000000000E+00  0.00000000000E+00  0.41384819016E+03  0.41384819016E+03  0.00000000000E+00 0.  1.
          1   -1    0    0  501    0  0.00000000000E+00 -0.00000000000E+00 -0.16821762406E+04  0.16821762406E+04  0.00000000000E+00 0. -1.
         23    2    1    2    0    0  0.52388552690E+03  0.47249695796E+03 -0.82111974393E+02  0.71587298993E+03  0.89567520806E+02 0.  0.
         11    1    3    3    0    0  0.32197824670E+03  0.23933740628E+03 -0.23147799999E+02  0.40185595185E+03  0.00000000000E+00 0. -1.
        -11    1    3    3    0    0  0.20190728021E+03  0.23315955168E+03 -0.58964174394E+02  0.31401703808E+03  0.00000000000E+00 0.  1.
         22    1    1    2    0    0 -0.52388552690E+03 -0.47249695796E+03 -0.11862160761E+04  0.13801514409E+04  0.00000000000E+00 0.  1.
<mgrwt>
<rscale>  0 0.16687308E+04</rscale>
<asrwt>0</asrwt>
<pdfrwt beam="1">  1        1 0.25879634E+00 0.16687308E+04</pdfrwt>
<pdfrwt beam="2">  1       -1 0.63668953E-01 0.16687308E+04</pdfrwt>
<totfact> 0.11699718E+01</totfact>
</mgrwt>
</event>
<event>
 6    1  0.1773638E-005  0.5895932E+03  0.7818608E-02  0.9927235E-01
         -1   -1    0    0    0  501 -0.00000000000E+00  0.00000000000E+00  0.20073952429E+03  0.20073952429E+03  0.00000000000E+00 0.  1.
          1   -1    0    0  501    0  0.00000000000E+00 -0.00000000000E+00 -0.43292434642E+03  0.43292434642E+03  0.00000000000E+00 0. -1.
         23    2    1    2    0    0  0.13937073622E+03  0.23411565875E+03 -0.18574245742E+02  0.28745032081E+03  0.89712543950E+02 0.  0.
         13    1    3    3    0    0  0.96051973583E+02  0.78067143875E+02  0.45429347331E+01  0.12385918956E+03  0.00000000000E+00 0.  1.
        -13    1    3    3    0    0  0.43318762641E+02  0.15604851488E+03 -0.23117180475E+02  0.16359113125E+03  0.00000000000E+00 0. -1.
         22    1    1    2    0    0 -0.13937073622E+03 -0.23411565875E+03 -0.21361057639E+03  0.34621354990E+03  0.00000000000E+00 0. -1.
<mgrwt>
<rscale>  0 0.58959317E+03</rscale>
<asrwt>0</asrwt>
<pdfrwt beam="1">  1        1 0.66603745E-01 0.58959317E+03</pdfrwt>
<pdfrwt beam="2">  1       -1 0.30883004E-01 0.58959317E+03</pdfrwt>
<totfact> 0.52848777E+02</totfact>
</mgrwt>
</event>
<event>
 6    1  0.1773638E-005  0.2993115E+04  0.7818608E-02  0.8245700E-01
         -2   -1    0    0    0  501 -0.00000000000E+00  0.00000000000E+00  0.18087663512E+04  0.18087663512E+04  0.00000000000E+00 0.  1.
          2   -1    0    0  501    0  0.00000000000E+00 -0.00000000000E+00 -0.12382386574E+04  0.12382386574E+04  0.00000000000E+00 0. -1.
         23    2    1    2    0    0  0.60900099985E+03 -0.13393695031E+04  0.14575395043E+02  0.14741490578E+04  0.90056198075E+02 0.  0.
         11    1    3    3    0    0  0.25712192067E+03 -0.67381702304E+03  0.31340084940E+01  0.72121486717E+03  0.00000000000E+00 0. -1.
        -11    1    3    3    0    0  0.35187907918E+03 -0.66555248003E+03  0.11441386549E+02  0.75293419059E+03  0.00000000000E+00 0.  1.
         22    1    1    2    0    0 -0.60900099985E+03  0.13393695031E+04  0.55595229874E+03  0.15728559508E+04  0.00000000000E+00 0.  1.
<mgrwt>
<rscale>  0 0.29931150E+04</rscale>
<asrwt>0</asrwt>
<pdfrwt beam="1">  1        2 0.19049826E+00 0.29931150E+04</pdfrwt>
<pdfrwt beam="2">  1       -2 0.27827175E+00 0.29931150E+04</pdfrwt>
<totfact> 0.66419617E-01</totfact>
</mgrwt>
</event>
<event>
 6    1  0.1773638E-005  0.9905489E+03  0.7818608E-02  0.9318972E-01
          1   -1    0    0  501    0  0.00000000000E+00  0.00000000000E+00  0.59322199981E+03  0.59322199981E+03  0.00000000000E+00 0. -1.
         -1   -1    0    0    0  501 -0.00000000000E+00 -0.00000000000E+00 -0.41349912394E+03  0.41349912394E+03  0.00000000000E+00 0.  1.
         23    2    1    2    0    0 -0.20113396083E+03 -0.42681526020E+03  0.22947082397E+03  0.53227302872E+03  0.89619091204E+02 0.  0.
         13    1    3    3    0    0 -0.13195279559E+03 -0.36258319058E+03  0.18248541336E+03  0.42682436252E+03  0.00000000000E+00 0. -1.
        -13    1    3    3    0    0 -0.69181165240E+02 -0.64232069618E+02  0.46985410618E+02  0.10544866620E+03  0.00000000000E+00 0.  1.
         22    1    1    2    0    0  0.20113396083E+03  0.42681526020E+03 -0.49747948103E+02  0.47444809503E+03  0.00000000000E+00 0.  1.
<mgrwt>
<rscale>  0 0.99054889E+03</rscale>
<asrwt>0</asrwt>
<pdfrwt beam="1">  1        1 0.91264923E-01 0.99054889E+03</pdfrwt>
<pdfrwt beam="2">  1       -1 0.63615250E-01 0.99054889E+03</pdfrwt>
<totfact> 0.87552187E+01</totfact>
</mgrwt>
</event>
<event>
 6    1  0.1773638E-005  0.2056210E+04  0.7818608E-02  0.8580782E-01
         -2   -1    0    0    0  501 -0.00000000000E+00  0.00000000000E+00  0.18171259609E+04  0.18171259609E+04  0.00000000000E+00 0.  1.
          2   -1    0    0  501    0  0.00000000000E+00 -0.00000000000E+00 -0.58168796527E+03  0.58168796527E+03  0.00000000000E+00 0. -1.
         23    2    1    2    0    0 -0.48010086461E+03  0.82632354730E+03  0.10547093509E+04  0.14262038871E+04  0.91314115536E+02 0.  0.
         13    1    3    3    0    0 -0.52648630364E+02  0.76310740757E+02  0.14485595682E+03  0.17198388198E+03  0.00000000000E+00 0. -1.
        -13    1    3    3    0    0 -0.42745223425E+03  0.75001280655E+03  0.90985339405E+03  0.12542200051E+04  0.00000000000E+00 0.  1.
         22    1    1    2    0    0  0.48010086461E+03 -0.82632354730E+03  0.18072864471E+03  0.97261003904E+03  0.00000000000E+00 0. -1.
<mgrwt>
<rscale>  0 0.20562104E+04</rscale>
<asrwt>0</asrwt>
<pdfrwt beam="1">  1        2 0.89490457E-01 0.20562104E+04</pdfrwt>
<pdfrwt beam="2">  1       -2 0.27955784E+00 0.20562104E+04</pdfrwt>
<totfact> 0.20185616E+00</totfact>
</mgrwt>
</event>
<event>
 6    1  0.1773638E-005  0.5225791E+04  0.7818608E-02  0.7794590E-01
         -1   -1    0    0    0  501 -0.00000000000E+00  0.00000000000E+00  0.26808785043E+04  0.26808785043E+04  0.00000000000E+00 0.  1.
          1   -1    0    0  501    0  0.00000000000E+00 -0.00000000000E+00 -0.25466360055E+04  0.25466360055E+04  0.00000000000E+00 0. -1.
         23    2    1    2    0    0 -0.43480261850E+03  0.90091038121E+03  0.24808706990E+04  0.26765623852E+04  0.92595599163E+02 0.  0.
         11    1    3    3    0    0 -0.92598180431E+02  0.12346920000E+03  0.34282188565E+03  0.37595998676E+03  0.00000000000E+00 0. -1.
        -11    1    3    3    0    0 -0.34220443807E+03  0.77744118121E+03  0.21380488133E+04  0.23006023985E+04  0.00000000000E+00 0.  1.
         22    1    1    2    0    0  0.43480261850E+03 -0.90091038121E+03 -0.23466282001E+04  0.25509521246E+04  0.00000000000E+00 0. -1.
<mgrwt>
<rscale>  0 0.52257906E+04</rscale>
<asrwt>0</asrwt>
<pdfrwt beam="1">  1        1 0.39179016E+00 0.52257906E+04</pdfrwt>
<pdfrwt beam="2">  1       -1 0.41244285E+00 0.52257906E+04</pdfrwt>
<totfact> 0.52461429E-03</totfact>
</mgrwt>
</event>
<event>
 6    1  0.1773638E-005  0.1508566E+04  0.7818608E-02  0.8878777E-01
         -3   -1    0    0    0  501 -0.00000000000E+00  0.00000000000E+00  0.13471830113E+04  0.13471830113E+04  0.00000000000E+00 0.  1.
          3   -1    0    0  501    0  0.00000000000E+00 -0.00000000000E+00 -0.42232023060E+03  0.42232023060E+03  0.00000000000E+00 0. -1.
         23    2    1    2    0    0  0.24745784322E+03 -0.34994201462E+03 -0.26049624487E+03  0.50903871751E+03  0.86990370544E+02 0.  0.
         13    1    3    3    0    0  0.17999351522E+03 -0.29032964655E+03 -0.17066167668E+03  0.38185648754E+03  0.00000000000E+00 0.  1.
        -13    1    3    3    0    0  0.67464327998E+02 -0.59612368066E+02 -0.89834568186E+02  0.12718222997E+03  0.00000000000E+00 0. -1.
         22    1    1    2    0    0 -0.24745784322E+03  0.34994201462E+03  0.11853590255E+04  0.12604645244E+04  0.00000000000E+00 0.  1.
<mgrwt>
<rscale>  0 0.15085657E+04</rscale>
<asrwt>0</asrwt>
<pdfrwt beam="1">  1        3 0.64972344E-01 0.15085657E+04</pdfrwt>
<pdfrwt beam="2">  1       -3 0.20725892E+00 0.15085657E+04</pdfrwt>
<totfact> 0.76463390E-01</totfact>
</mgrwt>
</event>
<event>
 6    1  0.1773638E-005  0.2504359E+04  0.7818608E-02  0.8401434E-01
          1   -1    0    0  501    0  0.00000000000E+00  0.00000000000E+00  0.17973530597E+04  0.17973530597E+04  0.00000000000E+00 0. -1.
         -1   -1    0    0    0  501 -0.00000000000E+00 -0.00000000000E+00 -0.87236834987E+03  0.87236834987E+03  0.00000000000E+00 0.  1.
         23    2    1    2    0    0 -0.55356279741E+03  0.31111914260E+03  0.16115258239E+04  0.17345392921E+04  0.91565186106E+02 0.  0.
         13    1    3    3    0    0 -0.26057279169E+03  0.19482556950E+03  0.77032177989E+03  0.83621219010E+03  0.00000000000E+00 0. -1.
        -13    1    3    3    0    0 -0.29299000572E+03  0.11629357310E+03  0.84120404401E+03  0.89832710204E+03  0.00000000000E+00 0.  1.
         22    1    1    2    0    0  0.55356279741E+03 -0.31111914260E+03 -0.68654111404E+03  0.93518211747E+03  0.00000000000E+00 0.  1.
<mgrwt>
<rscale>  0 0.25043593E+04</rscale>
<asrwt>0</asrwt>
<pdfrwt beam="1">  1        1 0.27651586E+00 0.25043593E+04</pdfrwt>
<pdfrwt beam="2">  1       -1 0.13421052E+00 0.25043593E+04</pdfrwt>
<totfact> 0.16987746E+00</totfact>
</mgrwt>
</event>
<event>
 6    1  0.1773638E-005  0.1388845E+04  0.7818608E-02  0.8961933E-01
         -2   -1    0    0    0  501 -0.00000000000E+00  0.00000000000E+00  0.35512795932E+03  0.35512795932E+03  0.00000000000E+00 0.  1.
          2   -1    0    0  501    0  0.00000000000E+00 -0.00000000000E+00 -0.13578831555E+04  0.13578831555E+04  0.00000000000E+00 0. -1.
         23    2    1    2    0    0  0.20850518463E+03  0.36194145997E+03  0.17623208101E+03  0.46221655446E+03  0.90057561484E+02 0.  0.
         11    1    3    3    0    0  0.10535905633E+03  0.24936488348E+03  0.14220216213E+03  0.30578559609E+03  0.00000000000E+00 0. -1.
        -11    1    3    3    0    0  0.10314612830E+03  0.11257657650E+03  0.34029918874E+02  0.15643095837E+03  0.00000000000E+00 0.  1.
         22    1    1    2    0    0 -0.20850518463E+03 -0.36194145997E+03 -0.11789872772E+04  0.12507945604E+04  0.00000000000E+00 0. -1.
<mgrwt>
<rscale>  0 0.13888445E+04</rscale>
<asrwt>0</asrwt>
<pdfrwt beam="1">  1        2 0.20890509E+00 0.13888445E+04</pdfrwt>
<pdfrwt beam="2">  1       -2 0.54635073E-01 0.13888445E+04</pdfrwt>
<totfact> 0.46975059E+01</totfact>
</mgrwt>
</event>
<event>
 6    1  0.1773638E-005  0.4094796E+03  0.7818608E-02  0.1040546E+00
          1   -1    0    0  501    0  0.00000000000E+00  0.00000000000E+00  0.23126711256E+03  0.23126711256E+03  0.00000000000E+00 0. -1.
         -1   -1    0    0    0  501 -0.00000000000E+00 -0.00000000000E+00 -0.18125528032E+03  0.18125528032E+03  0.00000000000E+00 0.  1.
         23    2    1    2    0    0  0.18677519416E+03  0.38071450157E+02  0.58036338144E+02  0.22173769442E+03  0.97288129332E+02 0.  0.
         11    1    3    3    0    0  0.45532634415E+02  0.44047666356E+02 -0.11184945016E+02  0.64331335313E+02  0.00000000000E+00 0.  1.
        -11    1    3    3    0    0  0.14124255975E+03 -0.59762161989E+01  0.69221283159E+02  0.15740635911E+03  0.00000000000E+00 0. -1.
         22    1    1    2    0    0 -0.18677519416E+03 -0.38071450157E+02 -0.80245059014E+01  0.19078469846E+03  0.00000000000E+00 0. -1.
<mgrwt>
<rscale>  0 0.40947960E+03</rscale>
<asrwt>0</asrwt>
<pdfrwt beam="1">  1        1 0.35579556E-01 0.40947960E+03</pdfrwt>
<pdfrwt beam="2">  1       -1 0.27885428E-01 0.40947960E+03</pdfrwt>
<totfact> 0.14186555E+03</totfact>
</mgrwt>
</event>
<event>
 6    1  0.1773638E-005  0.2882046E+04  0.7818608E-02  0.8278239E-01
         -2   -1    0    0    0  501 -0.00000000000E+00  0.00000000000E+00  0.18492000731E+04  0.18492000731E+04  0.00000000000E+00 0. -1.
          2   -1    0    0  501    0  0.00000000000E+00 -0.00000000000E+00 -0.11229438494E+04  0.11229438494E+04  0.00000000000E+00 0.  1.
         23    2    1    2    0    0 -0.99767080918E+03 -0.85669240645E+02 -0.70315253161E+03  0.12268944698E+04  0.90334352046E+02 0.  0.
         13    1    3    3    0    0 -0.59207997106E+03 -0.22248954162E+02 -0.45664809017E+03  0.74805159337E+03  0.00000000000E+00 0. -1.
        -13    1    3    3    0    0 -0.40559083812E+03 -0.63420286483E+02 -0.24650444144E+03  0.47884287648E+03  0.00000000000E+00 0.  1.
         22    1    1    2    0    0  0.99767080918E+03  0.85669240645E+02  0.14294087553E+04  0.17452494527E+04  0.00000000000E+00 0. -1.
<mgrwt>
<rscale>  0 0.28820464E+04</rscale>
<asrwt>0</asrwt>
<pdfrwt beam="1">  1        2 0.17276059E+00 0.28820464E+04</pdfrwt>
<pdfrwt beam="2">  1       -2 0.28449232E+00 0.28820464E+04</pdfrwt>
<totfact> 0.72065638E-01</totfact>
</mgrwt>
</event>
<event>
 6    1  0.1773638E-005  0.1362892E+04  0.7818608E-02  0.8981126E-01
          2   -1    0    0  501    0  0.00000000000E+00  0.00000000000E+00  0.74553086921E+03  0.74553086921E+03  0.00000000000E+00 0. -1.
         -2   -1    0    0    0  501 -0.00000000000E+00 -0.00000000000E+00 -0.62286975695E+03  0.62286975695E+03  0.00000000000E+00 0.  1.
         23    2    1    2    0    0  0.65218880374E+02  0.17788661872E+03  0.71559595476E+03  0.74593064382E+03  0.91857517120E+02 0.  0.
         13    1    3    3    0    0  0.20978349581E+02  0.11944973527E+02  0.22205546097E+03  0.22336383166E+03  0.00000000000E+00 0.  1.
        -13    1    3    3    0    0  0.44240530793E+02  0.16594164519E+03  0.49354049378E+03  0.52256681216E+03  0.00000000000E+00 0. -1.
         22    1    1    2    0    0 -0.65218880374E+02 -0.17788661872E+03 -0.59293484250E+03  0.62246998235E+03  0.00000000000E+00 0.  1.
<mgrwt>
<rscale>  0 0.13628920E+04</rscale>
<asrwt>0</asrwt>
<pdfrwt beam="1">  1        2 0.11469706E+00 0.13628920E+04</pdfrwt>
<pdfrwt beam="2">  1       -2 0.95826117E-01 0.13628920E+04</pdfrwt>
<totfact> 0.33693128E+01</totfact>
</mgrwt>
</event>
<event>
 6    1  0.1773638E-005  0.1340130E+04  0.7818608E-02  0.8998334E-01
         -1   -1    0    0    0  501 -0.00000000000E+00  0.00000000000E+00  0.19069715178E+04  0.19069715178E+04  0.00000000000E+00 0.  1.
          1   -1    0    0  501    0  0.00000000000E+00 -0.00000000000E+00 -0.23544500362E+03  0.23544500362E+03  0.00000000000E+00 0. -1.
         23    2    1    2    0    0  0.98141434936E+02  0.52669719786E+03  0.14734074323E+04  0.15711960298E+04  0.10337225362E+03 0.  0.
         13    1    3    3    0    0  0.27904157351E+02  0.23211186902E+03  0.50390902215E+03  0.55549875278E+03  0.00000000000E+00 0.  1.
        -13    1    3    3    0    0  0.70237277585E+02  0.29458532884E+03  0.96949841017E+03  0.10156972770E+04  0.00000000000E+00 0. -1.
         22    1    1    2    0    0 -0.98141434936E+02 -0.52669719786E+03  0.19811908183E+03  0.57122049164E+03  0.00000000000E+00 0. -1.
<mgrwt>
<rscale>  0 0.13401297E+04</rscale>
<asrwt>0</asrwt>
<pdfrwt beam="1">  1        1 0.36222309E-01 0.13401297E+04</pdfrwt>
<pdfrwt beam="2">  1       -1 0.29338022E+00 0.13401297E+04</pdfrwt>
<totfact> 0.43102706E+00</totfact>
</mgrwt>
</event>
<event>
 6    1  0.1773638E-005  0.1158633E+04  0.7818608E-02  0.9149856E-01
          1   -1    0    0  501    0  0.00000000000E+00  0.00000000000E+00  0.79749032625E+03  0.79749032625E+03  0.00000000000E+00 0. -1.
         -1   -1    0    0    0  501 -0.00000000000E+00 -0.00000000000E+00 -0.42082991815E+03  0.42082991815E+03  0.00000000000E+00 0.  1.
         23    2    1    2    0    0 -0.40003010707E+03  0.41158579265E+03  0.23618322185E+03  0.62742195269E+03  0.91917578075E+02 0.  0.
         11    1    3    3    0    0 -0.92468823805E+02  0.15157018861E+03  0.55651091728E+02  0.18606732508E+03  0.00000000000E+00 0. -1.
        -11    1    3    3    0    0 -0.30756128327E+03  0.26001560404E+03  0.18053213012E+03  0.44135462761E+03  0.00000000000E+00 0.  1.
         22    1    1    2    0    0  0.40003010707E+03 -0.41158579265E+03  0.14047718625E+03  0.59089829170E+03  0.00000000000E+00 0. -1.
<mgrwt>
<rscale>  0 0.11586333E+04</rscale>
<asrwt>0</asrwt>
<pdfrwt beam="1">  1        1 0.12269082E+00 0.11586333E+04</pdfrwt>
<pdfrwt beam="2">  1       -1 0.64743064E-01 0.11586333E+04</pdfrwt>
<totfact> 0.53364898E+01</totfact>
</mgrwt>
</event>
<event>
 6    1  0.1773638E-005  0.7967553E+03  0.7818608E-02  0.9564726E-01
         -2   -1    0    0    0  501 -0.00000000000E+00  0.00000000000E+00  0.20046519387E+03  0.20046519387E+03  0.00000000000E+00 0.  1.
          2   -1    0    0  501    0  0.00000000000E+00 -0.00000000000E+00 -0.79168239632E+03  0.79168239632E+03  0.00000000000E+00 0. -1.
         23    2    1    2    0    0 -0.19107423505E+03  0.21759085257E+03 -0.63067425772E+03  0.69989427262E+03  0.90812064561E+02 0.  0.
         11    1    3    3    0    0 -0.59644522646E+02  0.12596396384E+03 -0.23819894324E+03  0.27597667624E+03  0.00000000000E+00 0. -1.
        -11    1    3    3    0    0 -0.13142971241E+03  0.91626888728E+02 -0.39247531449E+03  0.42391759638E+03  0.00000000000E+00 0.  1.
         22    1    1    2    0    0  0.19107423505E+03 -0.21759085257E+03  0.39457055272E+02  0.29225331758E+03  0.00000000000E+00 0.  1.
<mgrwt>
<rscale>  0 0.79675533E+03</rscale>
<asrwt>0</asrwt>
<pdfrwt beam="1">  1        2 0.12179729E+00 0.79675533E+03</pdfrwt>
<pdfrwt beam="2">  1       -2 0.30840799E-01 0.79675533E+03</pdfrwt>
<totfact> 0.34164129E+02</totfact>
</mgrwt>
</event>
<event>
 6    1  0.1773638E-005  0.2395367E+04  0.7818608E-02  0.8441240E-01
          1   -1    0    0  501    0  0.00000000000E+00  0.00000000000E+00  0.31269676193E+04  0.31269676193E+04  0.00000000000E+00 0. -1.
         -1   -1    0    0    0  501 -0.00000000000E+00 -0.00000000000E+00 -0.45873369694E+03  0.45873369694E+03  0.00000000000E+00 0.  1.
         23    2    1    2    0    0 -0.30437200122E+03 -0.85655182248E+03  0.17332187605E+03  0.93034645134E+03  0.95816006373E+02 0.  0.
         11    1    3    3    0    0 -0.15494377732E+03 -0.30251684654E+03  0.52251793207E+02  0.34388118073E+03  0.00000000000E+00 0. -1.
        -11    1    3    3    0    0 -0.14942822390E+03 -0.55403497594E+03  0.12107008284E+03  0.58646527060E+03  0.00000000000E+00 0.  1.
         22    1    1    2    0    0  0.30437200122E+03  0.85655182248E+03  0.24949120463E+04  0.26553548649E+04  0.00000000000E+00 0. -1.
<mgrwt>
<rscale>  0 0.23953667E+04</rscale>
<asrwt>0</asrwt>
<pdfrwt beam="1">  1        1 0.48107193E+00 0.23953667E+04</pdfrwt>
<pdfrwt beam="2">  1       -1 0.70574417E-01 0.23953667E+04</pdfrwt>
<totfact> 0.87700047E-01</totfact>
</mgrwt>
</event>
<event>
 6    1  0.1773638E-005  0.1835967E+04  0.7818608E-02  0.8687403E-01
          2   -1    0    0  501    0  0.00000000000E+00  0.00000000000E+00  0.13732178296E+04  0.13732178296E+04  0.00000000000E+00 0. -1.
         -2   -1    0    0    0  501 -0.00000000000E+00 -0.00000000000E+00 -0.61366356585E+03  0.61366356585E+03  0.00000000000E+00 0.  1.
         23    2    1    2    0    0  0.17493095754E+03  0.46867353204E+03  0.12108086313E+04  0.13131706090E+04  0.90021036263E+02 0.  0.
         13    1    3    3    0    0  0.52948393433E+02  0.24499178546E+03  0.53093678650E+03  0.58712722520E+03  0.00000000000E+00 0.  1.
        -13    1    3    3    0    0  0.12198256410E+03  0.22368174658E+03  0.67987184483E+03  0.72604338375E+03  0.00000000000E+00 0. -1.
         22    1    1    2    0    0 -0.17493095754E+03 -0.46867353204E+03 -0.45125436760E+03  0.67371078648E+03  0.00000000000E+00 0.  1.
<mgrwt>
<rscale>  0 0.18359670E+04</rscale>
<asrwt>0</asrwt>
<pdfrwt beam="1">  1        2 0.21126428E+00 0.18359670E+04</pdfrwt>
<pdfrwt beam="2">  1       -2 0.94409780E-01 0.18359670E+04</pdfrwt>
<totfact> 0.13348185E+01</totfact>
</mgrwt>
</event>
<event>
 6    1  0.1773638E-005  0.2312724E+04  0.7818608E-02  0.8472921E-01
         -1   -1    0    0    0  501 -0.00000000000E+00  0.00000000000E+00  0.82041932447E+03  0.82041932447E+03  0.00000000000E+00 0.  1.
          1   -1    0    0  501    0  0.00000000000E+00 -0.00000000000E+00 -0.16298652087E+04  0.16298652087E+04  0.00000000000E+00 0. -1.
         23    2    1    2    0    0  0.48861779079E+03  0.99951689621E+03 -0.78800699037E+02  0.11192609579E+04  0.93563723999E+02 0.  0.
         13    1    3    3    0    0  0.41110589920E+03  0.75176437068E+03 -0.65328780815E+02  0.85931692581E+03  0.00000000000E+00 0.  1.
        -13    1    3    3    0    0  0.77511891592E+02  0.24775252553E+03 -0.13471918222E+02  0.25994403210E+03  0.00000000000E+00 0. -1.
         22    1    1    2    0    0 -0.48861779079E+03 -0.99951689621E+03 -0.73064518521E+03  0.13310235753E+04  0.00000000000E+00 0. -1.
<mgrwt>
<rscale>  0 0.23127239E+04</rscale>
<asrwt>0</asrwt>
<pdfrwt beam="1">  1        1 0.25074849E+00 0.23127239E+04</pdfrwt>
<pdfrwt beam="2">  1       -1 0.12621836E+00 0.23127239E+04</pdfrwt>
<totfact> 0.26250905E+00</totfact>
</mgrwt>
</event>
<event>
 6    1  0.1773638E-005  0.1823934E+04  0.7818608E-02  0.8693674E-01
         -2   -1    0    0    0  501 -0.00000000000E+00  0.00000000000E+00  0.45243461978E+03  0.45243461978E+03  0.00000000000E+00 0. -1.
          2   -1    0    0  501    0  0.00000000000E+00 -0.00000000000E+00 -0.18382413957E+04  0.18382413957E+04  0.00000000000E+00 0.  1.
         23    2    1    2    0    0  0.80613177747E+03  0.81410760486E+02 -0.17514906532E+03  0.83390964891E+03  0.90840260251E+02 0.  0.
         11    1    3    3    0    0  0.37460317543E+03  0.80299274119E+02 -0.99193540546E+02  0.39574596770E+03  0.00000000000E+00 0.  1.
        -11    1    3    3    0    0  0.43152860204E+03  0.11114863667E+01 -0.75955524775E+02  0.43816368121E+03  0.00000000000E+00 0. -1.
         22    1    1    2    0    0 -0.80613177747E+03 -0.81410760486E+02 -0.12106577106E+04  0.14567663666E+04  0.00000000000E+00 0.  1.
<mgrwt>
<rscale>  0 0.18239343E+04</rscale>
<asrwt>0</asrwt>
<pdfrwt beam="1">  1        2 0.28280638E+00 0.18239343E+04</pdfrwt>
<pdfrwt beam="2">  1       -2 0.69605324E-01 0.18239343E+04</pdfrwt>
<totfact> 0.14570564E+01</totfact>
</mgrwt>
</event>
<event>
 6    1  0.1990210E-005  0.4567828E+04  0.7818608E-02  0.7898869E-01
          1   -1    0    0  501    0  0.00000000000E+00  0.00000000000E+00  0.26489923497E+04  0.26489923497E+04  0.00000000000E+00 0. -1.
         -1   -1    0    0    0  501 -0.00000000000E+00 -0.00000000000E+00 -0.19691498155E+04  0.19691498155E+04  0.00000000000E+00 0.  1.
         23    2    1    2    0    0  0.37266977147E+03 -0.30342343487E+03  0.25964960802E+04  0.26421590289E+04  0.90905994391E+02 0.  0.
         13    1    3    3    0    0  0.24025340219E+03 -0.20554000750E+03  0.14639184303E+04  0.14976733831E+04  0.00000000000E+00 0. -1.
        -13    1    3    3    0    0  0.13241636928E+03 -0.97883427372E+02  0.11325776499E+04  0.11444856457E+04  0.00000000000E+00 0.  1.
         22    1    1    2    0    0 -0.37266977147E+03  0.30342343487E+03 -0.19166535460E+04  0.19759831363E+04  0.00000000000E+00 0.  1.
<mgrwt>
<rscale>  0 0.45678278E+04</rscale>
<asrwt>0</asrwt>
<pdfrwt beam="1">  1        1 0.40753728E+00 0.45678278E+04</pdfrwt>
<pdfrwt beam="2">  1       -1 0.30294613E+00 0.45678278E+04</pdfrwt>
<totfact> 0.25178670E-02</totfact>
</mgrwt>
</event>
<event>
 6    1  0.1773638E-005  0.2802249E+04  0.7818608E-02  0.8302571E-01
          2   -1    0    0  501    0  0.00000000000E+00  0.00000000000E+00  0.32839458933E+04  0.32839458933E+04  0.00000000000E+00 0. -1.
         -2   -1    0    0    0  501 -0.00000000000E+00 -0.00000000000E+00 -0.59780207611E+03  0.59780207611E+03  0.00000000000E+00 0.  1.
         23    2    1    2    0    0 -0.10237846117E+03  0.81889278758E+03  0.29105070352E+04  0.30265254249E+04  0.87967035262E+02 0.  0.
         11    1    3    3    0    0 -0.28442176333E+02  0.42790690323E+03  0.13771135666E+04  0.14423435965E+04  0.00000000000E+00 0.  1.
        -11    1    3    3    0    0 -0.73936284833E+02  0.39098588435E+03  0.15333934686E+04  0.15841818284E+04  0.00000000000E+00 0. -1.
         22    1    1    2    0    0  0.10237846117E+03 -0.81889278758E+03 -0.22436321801E+03  0.85522254441E+03  0.00000000000E+00 0.  1.
<mgrwt>
<rscale>  0 0.28022489E+04</rscale>
<asrwt>0</asrwt>
<pdfrwt beam="1">  1        2 0.50522243E+00 0.28022489E+04</pdfrwt>
<pdfrwt beam="2">  1       -2 0.91969553E-01 0.28022489E+04</pdfrwt>
<totfact> 0.99798381E-01</totfact>
</mgrwt>
</event>
<event>
 6    1  0.1773638E-005  0.1397345E+04  0.7818608E-02  0.8955743E-01
          2   -1    0    0  501    0  0.00000000000E+00  0.00000000000E+00  0.23043117401E+04  0.23043117401E+04  0.00000000000E+00 0. -1.
         -2   -1    0    0    0  501 -0.00000000000E+00 -0.00000000000E+00 -0.21183906978E+03  0.21183906978E+03  0.00000000000E+00 0.  1.
         23    2    1    2    0    0  0.21713211075E+02  0.23234633428E+03  0.22308650005E+04  0.22448415405E+04  0.89992270865E+02 0.  0.
         11    1    3    3    0    0  0.23602757661E+02  0.22348429653E+03  0.18125157184E+04  0.18263941389E+04  0.00000000000E+00 0. -1.
        -11    1    3    3    0    0 -0.18895465858E+01  0.88620377497E+01  0.41834928213E+03  0.41844740167E+03  0.00000000000E+00 0.  1.
         22    1    1    2    0    0 -0.21713211075E+02 -0.23234633428E+03 -0.13839233020E+03  0.27130926937E+03  0.00000000000E+00 0.  1.
<mgrwt>
<rscale>  0 0.13973450E+04</rscale>
<asrwt>0</asrwt>
<pdfrwt beam="1">  1        2 0.35450948E+00 0.13973450E+04</pdfrwt>
<pdfrwt beam="2">  1       -2 0.32590628E-01 0.13973450E+04</pdfrwt>
<totfact> 0.38596583E+01</totfact>
</mgrwt>
</event>
<event>
 6    1  0.1773638E-005  0.1883933E+04  0.7818608E-02  0.8662896E-01
         -2   -1    0    0    0  501 -0.00000000000E+00  0.00000000000E+00  0.40065696022E+03  0.40065696022E+03  0.00000000000E+00 0. -1.
          2   -1    0    0  501    0  0.00000000000E+00 -0.00000000000E+00 -0.22146143162E+04  0.22146143162E+04  0.00000000000E+00 0.  1.
         23    2    1    2    0    0  0.25194089591E+02  0.92174810086E+03 -0.65761671394E+03  0.11362925802E+04  0.91906374518E+02 0.  0.
         13    1    3    3    0    0  0.39069452803E+01  0.14571469970E+03 -0.14746109678E+03  0.20734708340E+03  0.00000000000E+00 0. -1.
        -13    1    3    3    0    0  0.21287144310E+02  0.77603340116E+03 -0.51015561716E+03  0.92894549675E+03  0.00000000000E+00 0.  1.
         22    1    1    2    0    0 -0.25194089591E+02 -0.92174810086E+03 -0.11563406420E+04  0.14789786963E+04  0.00000000000E+00 0.  1.
<mgrwt>
<rscale>  0 0.18839327E+04</rscale>
<asrwt>0</asrwt>
<pdfrwt beam="1">  1        2 0.34070989E+00 0.18839327E+04</pdfrwt>
<pdfrwt beam="2">  1       -2 0.61639533E-01 0.18839327E+04</pdfrwt>
<totfact> 0.11623728E+01</totfact>
</mgrwt>
</event>
<event>
 6    1  0.2672830E-005  0.3120211E+04  0.7818608E-02  0.8210213E-01
          1   -1    0    0  501    0  0.00000000000E+00  0.00000000000E+00  0.16666569802E+04  0.16666569802E+04  0.00000000000E+00 0. -1.
         -1   -1    0    0    0  501 -0.00000000000E+00 -0.00000000000E+00 -0.14603661765E+04  0.14603661765E+04  0.00000000000E+00 0.  1.
         23    2    1    2    0    0  0.83638652823E+03 -0.89810986792E+03 -0.85999181896E+03  0.15012610614E+04  0.89750132083E+02 0.  0.
         11    1    3    3    0    0  0.42520927848E+03 -0.39318860413E+03 -0.39040149082E+03  0.69843649171E+03  0.00000000000E+00 0.  1.
        -11    1    3    3    0    0  0.41117724975E+03 -0.50492126379E+03 -0.46959032815E+03  0.80282456965E+03  0.00000000000E+00 0. -1.
         22    1    1    2    0    0 -0.83638652823E+03  0.89810986792E+03  0.10662826227E+04  0.16257620954E+04  0.00000000000E+00 0. -1.
<mgrwt>
<rscale>  0 0.31202112E+04</rscale>
<asrwt>0</asrwt>
<pdfrwt beam="1">  1        1 0.25640877E+00 0.31202112E+04</pdfrwt>
<pdfrwt beam="2">  1       -1 0.22467172E+00 0.31202112E+04</pdfrwt>
<totfact> 0.43333913E-01</totfact>
</mgrwt>
</event>
<event>
 6    1  0.1773638E-005  0.2847329E+04  0.7818608E-02  0.8288723E-01
         -1   -1    0    0    0  501 -0.00000000000E+00  0.00000000000E+00  0.81721537553E+03  0.81721537553E+03  0.00000000000E+00 0.  1.
          1   -1    0    0  501    0  0.00000000000E+00 -0.00000000000E+00 -0.24801545063E+04  0.24801545063E+04  0.00000000000E+00 0. -1.
         23    2    1    2    0    0 -0.10010440825E+03 -0.12362021610E+03 -0.24690344942E+04  0.24757297019E+04  0.88336702305E+02 0.  0.
         11    1    3    3    0    0 -0.39448243388E+02 -0.74459791941E+02 -0.18306737197E+04  0.18326119863E+04  0.00000000000E+00 0.  1.
        -11    1    3    3    0    0 -0.60656164866E+02 -0.49160424159E+02 -0.63836077449E+03  0.64311771554E+03  0.00000000000E+00 0. -1.
         22    1    1    2    0    0  0.10010440825E+03  0.12362021610E+03  0.80609536341E+03  0.82164017994E+03  0.00000000000E+00 0.  1.
<mgrwt>
<rscale>  0 0.28473289E+04</rscale>
<asrwt>0</asrwt>
<pdfrwt beam="1">  1        1 0.38156223E+00 0.28473289E+04</pdfrwt>
<pdfrwt beam="2">  1       -1 0.12572544E+00 0.28473289E+04</pdfrwt>
<totfact> 0.66480960E-01</totfact>
</mgrwt>
</event>
<event>
 6    1  0.1773638E-005  0.3602888E+04  0.7818608E-02  0.8089831E-01
         -2   -1    0    0    0  501 -0.00000000000E+00  0.00000000000E+00  0.15558310177E+04  0.15558310177E+04  0.00000000000E+00 0. -1.
          2   -1    0    0  501    0  0.00000000000E+00 -0.00000000000E+00 -0.20858307184E+04  0.20858307184E+04  0.00000000000E+00 0.  1.
         23    2    1    2    0    0  0.26662745722E+03  0.76843316710E+03 -0.18885188158E+04  0.20582622541E+04  0.91435528940E+02 0.  0.
         11    1    3    3    0    0  0.16248897554E+03  0.46976222761E+03 -0.12636139319E+04  0.13578657469E+04  0.00000000000E+00 0.  1.
        -11    1    3    3    0    0  0.10413848168E+03  0.29867093949E+03 -0.62490488392E+03  0.70039650728E+03  0.00000000000E+00 0. -1.
         22    1    1    2    0    0 -0.26662745722E+03 -0.76843316710E+03  0.13585191152E+04  0.15833994820E+04  0.00000000000E+00 0. -1.
<mgrwt>
<rscale>  0 0.36028878E+04</rscale>
<asrwt>0</asrwt>
<pdfrwt beam="1">  1        2 0.32089703E+00 0.36028878E+04</pdfrwt>
<pdfrwt beam="2">  1       -2 0.23935862E+00 0.36028878E+04</pdfrwt>
<totfact> 0.36453760E-01</totfact>
</mgrwt>
</event>
<event>
 6    1  0.1821305E-005  0.2349467E+04  0.7818608E-02  0.8458668E-01
         -2   -1    0    0    0  501 -0.00000000000E+00  0.00000000000E+00  0.10734368496E+04  0.10734368496E+04  0.00000000000E+00 0.  1.
          2   -1    0    0  501    0  0.00000000000E+00 -0.00000000000E+00 -0.12855896202E+04  0.12855896202E+04  0.00000000000E+00 0. -1.
         23    2    1    2    0    0  0.37427461843E+03  0.37285878494E+03 -0.11577189016E+04  0.12758826790E+04  0.91969515915E+02 0.  0.
         13    1    3    3    0    0  0.25768943274E+03  0.19671393736E+03 -0.66601635087E+03  0.74072801791E+03  0.00000000000E+00 0. -1.
        -13    1    3    3    0    0  0.11658518569E+03  0.17614484758E+03 -0.49170255073E+03  0.53515466106E+03  0.00000000000E+00 0.  1.
         22    1    1    2    0    0 -0.37427461843E+03 -0.37285878494E+03  0.94556613100E+03  0.10831437908E+04  0.00000000000E+00 0.  1.
<mgrwt>
<rscale>  0 0.23494674E+04</rscale>
<asrwt>0</asrwt>
<pdfrwt beam="1">  1        2 0.19778302E+00 0.23494674E+04</pdfrwt>
<pdfrwt beam="2">  1       -2 0.16514413E+00 0.23494674E+04</pdfrwt>
<totfact> 0.35154747E+00</totfact>
</mgrwt>
</event>
<event>
 6    1  0.1773638E-005  0.8991222E+03  0.7818608E-02  0.9426679E-01
          2   -1    0    0  501    0  0.00000000000E+00  0.00000000000E+00  0.20289909623E+04  0.20289909623E+04  0.00000000000E+00 0. -1.
         -2   -1    0    0    0  501 -0.00000000000E+00 -0.00000000000E+00 -0.99608718159E+02  0.99608718159E+02  0.00000000000E+00 0.  1.
         23    2    1    2    0    0  0.84919196457E+02 -0.13418211039E+03  0.19585312886E+04  0.19671506932E+04  0.92848978899E+02 0.  0.
         11    1    3    3    0    0  0.68431079121E+02 -0.29307079429E+02  0.62961213617E+03  0.63399775986E+03  0.00000000000E+00 0. -1.
        -11    1    3    3    0    0  0.16488117336E+02 -0.10487503096E+03  0.13289191524E+04  0.13331529334E+04  0.00000000000E+00 0.  1.
         22    1    1    2    0    0 -0.84919196457E+02  0.13418211039E+03 -0.29149044457E+02  0.16144898720E+03  0.00000000000E+00 0.  1.
<mgrwt>
<rscale>  0 0.89912221E+03</rscale>
<asrwt>0</asrwt>
<pdfrwt beam="1">  1        2 0.31215242E+00 0.89912221E+03</pdfrwt>
<pdfrwt beam="2">  1       -2 0.15324420E-01 0.89912221E+03</pdfrwt>
<totfact> 0.22019268E+02</totfact>
</mgrwt>
</event>
<event>
 6    1  0.1773638E-005  0.2763796E+04  0.7818608E-02  0.8314597E-01
          2   -1    0    0  501    0  0.00000000000E+00  0.00000000000E+00  0.26707123983E+04  0.26707123983E+04  0.00000000000E+00 0. -1.
         -2   -1    0    0    0  501 -0.00000000000E+00 -0.00000000000E+00 -0.71503094211E+03  0.71503094211E+03  0.00000000000E+00 0.  1.
         23    2    1    2    0    0 -0.92395190605E+03 -0.29478323538E+03  0.21822215263E+04  0.23897992236E+04  0.92006838830E+02 0.  0.
         13    1    3    3    0    0 -0.31891696308E+03 -0.61198886134E+02  0.68041192966E+03  0.75393217667E+03  0.00000000000E+00 0. -1.
        -13    1    3    3    0    0 -0.60503494297E+03 -0.23358434924E+03  0.15018095967E+04  0.16358670469E+04  0.00000000000E+00 0.  1.
         22    1    1    2    0    0  0.92395190605E+03  0.29478323538E+03 -0.22654007012E+03  0.99594411687E+03  0.00000000000E+00 0.  1.
<mgrwt>
<rscale>  0 0.27637959E+04</rscale>
<asrwt>0</asrwt>
<pdfrwt beam="1">  1        2 0.41087883E+00 0.27637959E+04</pdfrwt>
<pdfrwt beam="2">  1       -2 0.11000476E+00 0.27637959E+04</pdfrwt>
<totfact> 0.15843356E+00</totfact>
</mgrwt>
</event>
<event>
 6    1  0.1773638E-005  0.1272157E+04  0.7818608E-02  0.9051941E-01
         -2   -1    0    0    0  501 -0.00000000000E+00  0.00000000000E+00  0.37699218086E+03  0.37699218086E+03  0.00000000000E+00 0.  1.
          2   -1    0    0  501    0  0.00000000000E+00 -0.00000000000E+00 -0.10732214807E+04  0.10732214807E+04  0.00000000000E+00 0. -1.
         23    2    1    2    0    0  0.22154107988E+03  0.10822215949E+03  0.31437124560E+03  0.40997044561E+03  0.91945637901E+02 0.  0.
         13    1    3    3    0    0  0.86508423805E+02  0.34744791181E+02  0.19216840744E+03  0.21358746387E+03  0.00000000000E+00 0. -1.
        -13    1    3    3    0    0  0.13503265608E+03  0.73477368313E+02  0.12220283816E+03  0.19638298174E+03  0.00000000000E+00 0.  1.
         22    1    1    2    0    0 -0.22154107988E+03 -0.10822215949E+03 -0.10106005455E+04  0.10402432160E+04  0.00000000000E+00 0. -1.
<mgrwt>
<rscale>  0 0.12721574E+04</rscale>
<asrwt>0</asrwt>
<pdfrwt beam="1">  1        2 0.16511099E+00 0.12721574E+04</pdfrwt>
<pdfrwt beam="2">  1       -2 0.57998798E-01 0.12721574E+04</pdfrwt>
<totfact> 0.61847473E+01</totfact>
</mgrwt>
</event>
<event>
 6    1  0.1773638E-005  0.4113337E+04  0.7818608E-02  0.7982065E-01
          1   -1    0    0  501    0  0.00000000000E+00  0.00000000000E+00  0.21754669320E+04  0.21754669320E+04  0.00000000000E+00 0. -1.
         -1   -1    0    0    0  501 -0.00000000000E+00 -0.00000000000E+00 -0.19443577476E+04  0.19443577476E+04  0.00000000000E+00 0.  1.
         23    2    1    2    0    0 -0.17806709591E+04  0.89492441173E+02 -0.90949718594E+03  0.20032753998E+04  0.84434795852E+02 0.  0.
         13    1    3    3    0    0 -0.12058257801E+04  0.95503391389E+02 -0.63716013529E+03  0.13671538859E+04  0.00000000000E+00 0. -1.
        -13    1    3    3    0    0 -0.57484517896E+03 -0.60109502155E+01 -0.27233705066E+03  0.63612151391E+03  0.00000000000E+00 0.  1.
         22    1    1    2    0    0  0.17806709591E+04 -0.89492441173E+02  0.11406063703E+04  0.21165492797E+04  0.00000000000E+00 0. -1.
<mgrwt>
<rscale>  0 0.41133373E+04</rscale>
<asrwt>0</asrwt>
<pdfrwt beam="1">  1        1 0.33468722E+00 0.41133373E+04</pdfrwt>
<pdfrwt beam="2">  1       -1 0.29913196E+00 0.41133373E+04</pdfrwt>
<totfact> 0.58738913E-02</totfact>
</mgrwt>
</event>
<event>
 6    1  0.1773638E-005  0.1919384E+04  0.7818608E-02  0.8645268E-01
         -2   -1    0    0    0  501 -0.00000000000E+00  0.00000000000E+00  0.22252438082E+04  0.22252438082E+04  0.00000000000E+00 0.  1.
          2   -1    0    0  501    0  0.00000000000E+00 -0.00000000000E+00 -0.41389107161E+03  0.41389107161E+03  0.00000000000E+00 0. -1.
         23    2    1    2    0    0 -0.40823343484E+03 -0.36706487154E+03 -0.17108603242E+03  0.58208489740E+03  0.90339581865E+02 0.  0.
         11    1    3    3    0    0 -0.26717391151E+03 -0.22784839147E+03 -0.64359591634E+02  0.35698591782E+03  0.00000000000E+00 0.  1.
        -11    1    3    3    0    0 -0.14105952333E+03 -0.13921648007E+03 -0.10672644078E+03  0.22509897958E+03  0.00000000000E+00 0. -1.
         22    1    1    2    0    0  0.40823343484E+03  0.36706487154E+03  0.19824387690E+04  0.20570499824E+04  0.00000000000E+00 0.  1.
<mgrwt>
<rscale>  0 0.19193838E+04</rscale>
<asrwt>0</asrwt>
<pdfrwt beam="1">  1        2 0.63675551E-01 0.19193838E+04</pdfrwt>
<pdfrwt beam="2">  1       -2 0.34234519E+00 0.19193838E+04</pdfrwt>
<totfact> 0.12468309E+00</totfact>
</mgrwt>
</event>
<event>
 6    1  0.1773638E-005  0.3616795E+04  0.7818608E-02  0.8086655E-01
         -2   -1    0    0    0  501 -0.00000000000E+00  0.00000000000E+00  0.16460737368E+04  0.16460737368E+04  0.00000000000E+00 0. -1.
          2   -1    0    0  501    0  0.00000000000E+00 -0.00000000000E+00 -0.19867281619E+04  0.19867281619E+04  0.00000000000E+00 0.  1.
         23    2    1    2    0    0  0.35665361239E+03 -0.51331883471E+03 -0.18738369605E+04  0.19771006238E+04  0.83449964603E+02 0.  0.
         11    1    3    3    0    0  0.14718743570E+03 -0.23496087835E+03 -0.70887401317E+03  0.76116563383E+03  0.00000000000E+00 0.  1.
        -11    1    3    3    0    0  0.20946617670E+03 -0.27835795636E+03 -0.11649629473E+04  0.12159349899E+04  0.00000000000E+00 0. -1.
         22    1    1    2    0    0 -0.35665361239E+03  0.51331883471E+03  0.15331825354E+04  0.16557012750E+04  0.00000000000E+00 0. -1.
<mgrwt>
<rscale>  0 0.36167947E+04</rscale>
<asrwt>0</asrwt>
<pdfrwt beam="1">  1        2 0.30565049E+00 0.36167947E+04</pdfrwt>
<pdfrwt beam="2">  1       -2 0.25324211E+00 0.36167947E+04</pdfrwt>
<totfact> 0.33951887E-01</totfact>
</mgrwt>
</event>
<event>
 6    1  0.1773638E-005  0.3812608E+04  0.7818608E-02  0.8043455E-01
         -1   -1    0    0    0  501 -0.00000000000E+00  0.00000000000E+00  0.23991369273E+04  0.23991369273E+04  0.00000000000E+00 0.  1.
          1   -1    0    0  501    0  0.00000000000E+00 -0.00000000000E+00 -0.15147093648E+04  0.15147093648E+04  0.00000000000E+00 0. -1.
         23    2    1    2    0    0  0.64901514915E+03 -0.10806245325E+04  0.19089700081E+04  0.22894518614E+04  0.91941773905E+02 0.  0.
         11    1    3    3    0    0  0.36055514602E+03 -0.60782989921E+03  0.11519994277E+04  0.13515028232E+04  0.00000000000E+00 0. -1.
        -11    1    3    3    0    0  0.28846000314E+03 -0.47279463327E+03  0.75697058035E+03  0.93794903815E+03  0.00000000000E+00 0.  1.
         22    1    1    2    0    0 -0.64901514915E+03  0.10806245325E+04 -0.10245424455E+04  0.16243944307E+04  0.00000000000E+00 0. -1.
<mgrwt>
<rscale>  0 0.38126081E+04</rscale>
<asrwt>0</asrwt>
<pdfrwt beam="1">  1        1 0.23303221E+00 0.38126081E+04</pdfrwt>
<pdfrwt beam="2">  1       -1 0.36909799E+00 0.38126081E+04</pdfrwt>
<totfact> 0.58811941E-02</totfact>
</mgrwt>
</event>
<event>
 6    1  0.1773638E-005  0.1447653E+04  0.7818608E-02  0.8920029E-01
          1   -1    0    0  501    0  0.00000000000E+00  0.00000000000E+00  0.12922105783E+04  0.12922105783E+04  0.00000000000E+00 0. -1.
         -1   -1    0    0    0  501 -0.00000000000E+00 -0.00000000000E+00 -0.40544832797E+03  0.40544832797E+03  0.00000000000E+00 0.  1.
         23    2    1    2    0    0 -0.95106900468E+02  0.54127184353E+03 -0.10213221050E+03  0.56631776152E+03  0.90908126621E+02 0.  0.
         13    1    3    3    0    0 -0.17122360065E+02  0.19357601499E+03 -0.77226765344E+02  0.20911437559E+03  0.00000000000E+00 0.  1.
        -13    1    3    3    0    0 -0.77984540403E+02  0.34769582854E+03 -0.24905445156E+02  0.35720338594E+03  0.00000000000E+00 0. -1.
         22    1    1    2    0    0  0.95106900468E+02 -0.54127184353E+03  0.98889446081E+03  0.11313411447E+04  0.00000000000E+00 0. -1.
<mgrwt>
<rscale>  0 0.14476527E+04</rscale>
<asrwt>0</asrwt>
<pdfrwt beam="1">  1        1 0.19880163E+00 0.14476527E+04</pdfrwt>
<pdfrwt beam="2">  1       -1 0.62376666E-01 0.14476527E+04</pdfrwt>
<totfact> 0.23201935E+01</totfact>
</mgrwt>
</event>
<event>
 6    1  0.1773638E-005  0.1201678E+04  0.7818608E-02  0.9111389E-01
         -2   -1    0    0    0  501 -0.00000000000E+00  0.00000000000E+00  0.41432777020E+03  0.41432777020E+03  0.00000000000E+00 0.  1.
          2   -1    0    0  501    0  0.00000000000E+00 -0.00000000000E+00 -0.87130836848E+03  0.87130836848E+03  0.00000000000E+00 0. -1.
         23    2    1    2    0    0 -0.36673766801E+03  0.47198969753E+03 -0.23950998437E+03  0.64958247771E+03  0.85566179214E+02 0.  0.
         13    1    3    3    0    0 -0.20829164857E+03  0.33435820146E+03 -0.15450051073E+03  0.42314445000E+03  0.00000000000E+00 0.  1.
        -13    1    3    3    0    0 -0.15844601944E+03  0.13763149607E+03 -0.85009473642E+02  0.22643802772E+03  0.00000000000E+00 0. -1.
         22    1    1    2    0    0  0.36673766801E+03 -0.47198969753E+03 -0.21747061390E+03  0.63605366097E+03  0.00000000000E+00 0.  1.
<mgrwt>
<rscale>  0 0.12016776E+04</rscale>
<asrwt>0</asrwt>
<pdfrwt beam="1">  1        2 0.13404744E+00 0.12016776E+04</pdfrwt>
<pdfrwt beam="2">  1       -2 0.63742735E-01 0.12016776E+04</pdfrwt>
<totfact> 0.68927851E+01</totfact>
</mgrwt>
</event>
<event>
 6    1  0.1773638E-005  0.4035473E+04  0.7818608E-02  0.7997429E-01
          2   -1    0    0  501    0  0.00000000000E+00  0.00000000000E+00  0.22052417123E+04  0.22052417123E+04  0.00000000000E+00 0. -1.
         -2   -1    0    0    0  501 -0.00000000000E+00 -0.00000000000E+00 -0.18461739439E+04  0.18461739439E+04  0.00000000000E+00 0.  1.
         23    2    1    2    0    0  0.17253333533E+04 -0.85053598221E+03 -0.42836442224E+03  0.19728978930E+04  0.92969784343E+02 0.  0.
         13    1    3    3    0    0  0.13534285362E+04 -0.69327273180E+03 -0.30780407767E+03  0.15514958052E+04  0.00000000000E+00 0.  1.
        -13    1    3    3    0    0  0.37190481717E+03 -0.15726325041E+03 -0.12056034456E+03  0.42140208785E+03  0.00000000000E+00 0. -1.
         22    1    1    2    0    0 -0.17253333533E+04  0.85053598221E+03  0.78743219064E+03  0.20785177632E+04  0.00000000000E+00 0.  1.
<mgrwt>
<rscale>  0 0.40354726E+04</rscale>
<asrwt>0</asrwt>
<pdfrwt beam="1">  1        2 0.33926796E+00 0.40354726E+04</pdfrwt>
<pdfrwt beam="2">  1       -2 0.28402676E+00 0.40354726E+04</pdfrwt>
<totfact> 0.16056877E-01</totfact>
</mgrwt>
</event>
<event>
 6    1  0.1773638E-005  0.1008797E+04  0.7818608E-02  0.9298948E-01
         -1   -1    0    0    0  501 -0.00000000000E+00  0.00000000000E+00  0.61550668372E+03  0.61550668372E+03  0.00000000000E+00 0.  1.
          1   -1    0    0  501    0  0.00000000000E+00 -0.00000000000E+00 -0.41334740122E+03  0.41334740122E+03  0.00000000000E+00 0. -1.
         23    2    1    2    0    0 -0.15822578990E+03  0.24055134096E+03 -0.30961652508E+03  0.44164473092E+03  0.12762181442E+03 0.  0.
         13    1    3    3    0    0 -0.11565680297E+03  0.17987770436E+03 -0.13748256344E+03  0.25423205906E+03  0.00000000000E+00 0.  1.
        -13    1    3    3    0    0 -0.42568986931E+02  0.60673636600E+02 -0.17213396164E+03  0.18741267186E+03  0.00000000000E+00 0. -1.
         22    1    1    2    0    0  0.15822578990E+03 -0.24055134096E+03  0.51177580758E+03  0.58720935402E+03  0.00000000000E+00 0.  1.
<mgrwt>
<rscale>  0 0.10087975E+04</rscale>
<asrwt>0</asrwt>
<pdfrwt beam="1">  1        1 0.63591908E-01 0.10087975E+04</pdfrwt>
<pdfrwt beam="2">  1       -1 0.94693336E-01 0.10087975E+04</pdfrwt>
<totfact> 0.62099598E+01</totfact>
</mgrwt>
</event>
<event>
 6    1  0.1773638E-005  0.2680804E+04  0.7818608E-02  0.8341260E-01
          2   -1    0    0  501    0  0.00000000000E+00  0.00000000000E+00  0.25642223493E+04  0.25642223493E+04  0.00000000000E+00 0.  1.
         -2   -1    0    0    0  501 -0.00000000000E+00 -0.00000000000E+00 -0.70067174332E+03  0.70067174332E+03  0.00000000000E+00 0. -1.
         23    2    1    2    0    0 -0.40717502234E+02 -0.46845093608E+03  0.24595779562E+04  0.25057150645E+04  0.89331223520E+02 0.  0.
         13    1    3    3    0    0 -0.57017889461E+02 -0.19347027798E+03  0.94399424897E+03  0.96530147118E+03  0.00000000000E+00 0.  1.
        -13    1    3    3    0    0  0.16300387227E+02 -0.27498065810E+03  0.15155837072E+04  0.15404135933E+04  0.00000000000E+00 0. -1.
         22    1    1    2    0    0  0.40717502234E+02  0.46845093608E+03 -0.59602735021E+03  0.75917902810E+03  0.00000000000E+00 0. -1.
<mgrwt>
<rscale>  0 0.26808045E+04</rscale>
<asrwt>0</asrwt>
<pdfrwt beam="1">  1        2 0.39449574E+00 0.26808045E+04</pdfrwt>
<pdfrwt beam="2">  1       -2 0.10779565E+00 0.26808045E+04</pdfrwt>
<totfact> 0.19358437E+00</totfact>
</mgrwt>
</event>
<event>
 6    1  0.1773638E-005  0.8223777E+03  0.7818608E-02  0.9528179E-01
         -1   -1    0    0    0  501 -0.00000000000E+00  0.00000000000E+00  0.32151915475E+03  0.32151915475E+03  0.00000000000E+00 0.  1.
          1   -1    0    0  501    0  0.00000000000E+00 -0.00000000000E+00 -0.52586687055E+03  0.52586687055E+03  0.00000000000E+00 0. -1.
         23    2    1    2    0    0  0.35675436661E+03  0.18791444468E+03 -0.51412609994E+02  0.41613822740E+03  0.89119308931E+02 0.  0.
         11    1    3    3    0    0  0.87136087721E+02  0.74655086261E+02  0.16476833034E+02  0.11592051464E+03  0.00000000000E+00 0.  1.
        -11    1    3    3    0    0  0.26961827889E+03  0.11325935842E+03 -0.67889443027E+02  0.30021771276E+03  0.00000000000E+00 0. -1.
         22    1    1    2    0    0 -0.35675436661E+03 -0.18791444468E+03 -0.15293510580E+03  0.43124779791E+03  0.00000000000E+00 0. -1.
<mgrwt>
<rscale>  0 0.82237770E+03</rscale>
<asrwt>0</asrwt>
<pdfrwt beam="1">  1        1 0.80902594E-01 0.82237770E+03</pdfrwt>
<pdfrwt beam="2">  1       -1 0.49464486E-01 0.82237770E+03</pdfrwt>
<totfact> 0.17110044E+02</totfact>
</mgrwt>
</event>
<event>
 6    1  0.1773638E-005  0.2416063E+04  0.7818608E-02  0.8433514E-01
          2   -1    0    0  501    0  0.00000000000E+00  0.00000000000E+00  0.10065498719E+04  0.10065498719E+04  0.00000000000E+00 0. -1.
         -2   -1    0    0    0  501 -0.00000000000E+00 -0.00000000000E+00 -0.14498442741E+04  0.14498442741E+04  0.00000000000E+00 0.  1.
         23    2    1    2    0    0 -0.53092375022E+03 -0.10814884949E+04 -0.15878437134E+03  0.12184751863E+04  0.89285553410E+02 0.  0.
         13    1    3    3    0    0 -0.19315639755E+03 -0.34619723068E+03 -0.15593514652E+02  0.39674308330E+03  0.00000000000E+00 0.  1.
        -13    1    3    3    0    0 -0.33776735267E+03 -0.73529126417E+03 -0.14319085668E+03  0.82173210302E+03  0.00000000000E+00 0. -1.
         22    1    1    2    0    0  0.53092375022E+03  0.10814884949E+04 -0.28451003082E+03  0.12379189597E+04  0.00000000000E+00 0.  1.
<mgrwt>
<rscale>  0 0.24160634E+04</rscale>
<asrwt>0</asrwt>
<pdfrwt beam="1">  1        2 0.15485383E+00 0.24160634E+04</pdfrwt>
<pdfrwt beam="2">  1       -2 0.22305296E+00 0.24160634E+04</pdfrwt>
<totfact> 0.21174478E+00</totfact>
</mgrwt>
</event>
<event>
 6    1  0.1773638E-005  0.8850442E+03  0.7818608E-02  0.9444472E-01
         -2   -1    0    0    0  501 -0.00000000000E+00  0.00000000000E+00  0.23903729236E+03  0.23903729236E+03  0.00000000000E+00 0.  1.
          2   -1    0    0  501    0  0.00000000000E+00 -0.00000000000E+00 -0.81922702757E+03  0.81922702757E+03  0.00000000000E+00 0. -1.
         23    2    1    2    0    0  0.14331314541E+03 -0.37749885964E+03 -0.90933670062E+02  0.42390200708E+03  0.91541971652E+02 0.  0.
         11    1    3    3    0    0  0.90686863426E+01 -0.11637391363E+03 -0.66927173520E+00  0.11672864588E+03  0.00000000000E+00 0. -1.
        -11    1    3    3    0    0  0.13424445907E+03 -0.26112494601E+03 -0.90264398327E+02  0.30717336119E+03  0.00000000000E+00 0.  1.
         22    1    1    2    0    0 -0.14331314541E+03  0.37749885964E+03 -0.48925606515E+03  0.63436231285E+03  0.00000000000E+00 0. -1.
<mgrwt>
<rscale>  0 0.88504420E+03</rscale>
<asrwt>0</asrwt>
<pdfrwt beam="1">  1        2 0.12603493E+00 0.88504420E+03</pdfrwt>
<pdfrwt beam="2">  1       -2 0.36774968E-01 0.88504420E+03</pdfrwt>
<totfact> 0.23299073E+02</totfact>
</mgrwt>
</event>
<event>
 6    1  0.1773638E-005  0.2989580E+03  0.7818608E-02  0.1085763E+00
          3   -1    0    0  501    0  0.00000000000E+00  0.00000000000E+00  0.54589798195E+02  0.54589798195E+02  0.00000000000E+00 0. -1.
         -3   -1    0    0    0  501 -0.00000000000E+00 -0.00000000000E+00 -0.40930683171E+03  0.40930683171E+03  0.00000000000E+00 0.  1.
         23    2    1    2    0    0 -0.10855562019E+03 -0.75409648302E+02 -0.25289498336E+03  0.29704739368E+03  0.82524806882E+02 0.  0.
         11    1    3    3    0    0 -0.71860742942E+02 -0.90829851800E+02 -0.18144691590E+03  0.21526033458E+03  0.00000000000E+00 0.  1.
        -11    1    3    3    0    0 -0.36694877247E+02  0.15420203498E+02 -0.71448067457E+02  0.81787059095E+02  0.00000000000E+00 0. -1.
         22    1    1    2    0    0  0.10855562019E+03  0.75409648302E+02 -0.10182205016E+03  0.16684923623E+03  0.00000000000E+00 0. -1.
<mgrwt>
<rscale>  0 0.29895804E+03</rscale>
<asrwt>0</asrwt>
<pdfrwt beam="1">  1        3 0.83984305E-02 0.29895804E+03</pdfrwt>
<pdfrwt beam="2">  1       -3 0.62970282E-01 0.29895804E+03</pdfrwt>
<totfact> 0.62745762E+02</totfact>
</mgrwt>
</event>
<event>
 6    1  0.1773638E-005  0.7414682E+03  0.7818608E-02  0.9648831E-01
          1   -1    0    0  501    0  0.00000000000E+00  0.00000000000E+00  0.10398737291E+04  0.10398737291E+04  0.00000000000E+00 0. -1.
         -1   -1    0    0    0  501 -0.00000000000E+00 -0.00000000000E+00 -0.13217352853E+03  0.13217352853E+03  0.00000000000E+00 0.  1.
         23    2    1    2    0    0  0.44530775849E+02  0.21454529905E+03 -0.23556819210E+01  0.23598402013E+03  0.87579867439E+02 0.  0.
         11    1    3    3    0    0 -0.69035475354E+00  0.69666410900E+02  0.37424125885E+02  0.79085084533E+02  0.00000000000E+00 0. -1.
        -11    1    3    3    0    0  0.45221130602E+02  0.14487888815E+03 -0.39779807806E+02  0.15689893560E+03  0.00000000000E+00 0.  1.
         22    1    1    2    0    0 -0.44530775849E+02 -0.21454529905E+03  0.91005588252E+03  0.93606323753E+03  0.00000000000E+00 0. -1.
<mgrwt>
<rscale>  0 0.74146822E+03</rscale>
<asrwt>0</asrwt>
<pdfrwt beam="1">  1        1 0.15998057E+00 0.74146822E+03</pdfrwt>
<pdfrwt beam="2">  1       -1 0.20334390E-01 0.74146822E+03</pdfrwt>
<totfact> 0.28358103E+02</totfact>
</mgrwt>
</event>
<event>
 6    1  0.1773638E-005  0.8364196E+03  0.7818608E-02  0.9508748E-01
         -1   -1    0    0    0  501 -0.00000000000E+00  0.00000000000E+00  0.15052713875E+03  0.15052713875E+03  0.00000000000E+00 0.  1.
          1   -1    0    0  501    0  0.00000000000E+00 -0.00000000000E+00 -0.11619130706E+04  0.11619130706E+04  0.00000000000E+00 0. -1.
         23    2    1    2    0    0 -0.22778482320E+03 -0.34073923759E+03 -0.42889273283E+03  0.60019904189E+03  0.91108506169E+02 0.  0.
         11    1    3    3    0    0 -0.19601970576E+03 -0.21967695269E+03 -0.29060917671E+03  0.41368512443E+03  0.00000000000E+00 0. -1.
        -11    1    3    3    0    0 -0.31765117437E+02 -0.12106228490E+03 -0.13828355613E+03  0.18651391746E+03  0.00000000000E+00 0.  1.
         22    1    1    2    0    0  0.22778482320E+03  0.34073923759E+03 -0.58249319899E+03  0.71224116743E+03  0.00000000000E+00 0. -1.
<mgrwt>
<rscale>  0 0.83641963E+03</rscale>
<asrwt>0</asrwt>
<pdfrwt beam="1">  1        1 0.17875585E+00 0.83641963E+03</pdfrwt>
<pdfrwt beam="2">  1       -1 0.23158022E-01 0.83641963E+03</pdfrwt>
<totfact> 0.18367255E+02</totfact>
</mgrwt>
</event>
<event>
 6    1  0.1773638E-005  0.2564835E+04  0.7818608E-02  0.8380245E-01
         -2   -1    0    0    0  501 -0.00000000000E+00  0.00000000000E+00  0.19870788725E+04  0.19870788725E+04  0.00000000000E+00 0.  1.
          2   -1    0    0  501    0  0.00000000000E+00 -0.00000000000E+00 -0.82764419085E+03  0.82764419085E+03  0.00000000000E+00 0. -1.
         23    2    1    2    0    0 -0.72704219427E+03 -0.50178765792E+02  0.17362953712E+04  0.18852734865E+04  0.91794564471E+02 0.  0.
         13    1    3    3    0    0 -0.57812069841E+03 -0.20831963793E+02  0.12871584336E+04  0.14111818968E+04  0.00000000000E+00 0. -1.
        -13    1    3    3    0    0 -0.14892149587E+03 -0.29346801998E+02  0.44913693759E+03  0.47409158970E+03  0.00000000000E+00 0.  1.
         22    1    1    2    0    0  0.72704219427E+03  0.50178765792E+02 -0.57686068954E+03  0.92944957686E+03  0.00000000000E+00 0. -1.
<mgrwt>
<rscale>  0 0.25648347E+04</rscale>
<asrwt>0</asrwt>
<pdfrwt beam="1">  1        2 0.12732988E+00 0.25648347E+04</pdfrwt>
<pdfrwt beam="2">  1       -2 0.30570444E+00 0.25648347E+04</pdfrwt>
<totfact> 0.85627786E-01</totfact>
</mgrwt>
</event>
<event>
 6    1  0.1773638E-005  0.3538923E+04  0.7818608E-02  0.8104627E-01
          2   -1    0    0  501    0  0.00000000000E+00  0.00000000000E+00  0.35397076656E+04  0.35397076656E+04  0.00000000000E+00 0. -1.
         -2   -1    0    0    0  501 -0.00000000000E+00 -0.00000000000E+00 -0.88453472153E+03  0.88453472153E+03  0.00000000000E+00 0.  1.
         23    2    1    2    0    0 -0.30564353602E+03 -0.39927974693E+03  0.34478373742E+04  0.34855415901E+04  0.92603078024E+02 0.  0.
         13    1    3    3    0    0 -0.22867992827E+03 -0.33478597019E+03  0.29449600673E+04  0.29727371147E+04  0.00000000000E+00 0.  1.
        -13    1    3    3    0    0 -0.76963607754E+02 -0.64493776740E+02  0.50287730694E+03  0.51280447540E+03  0.00000000000E+00 0. -1.
         22    1    1    2    0    0  0.30564353602E+03  0.39927974693E+03 -0.79266443016E+03  0.93870079698E+03  0.00000000000E+00 0.  1.
<mgrwt>
<rscale>  0 0.35389232E+04</rscale>
<asrwt>0</asrwt>
<pdfrwt beam="1">  1        2 0.54457040E+00 0.35389232E+04</pdfrwt>
<pdfrwt beam="2">  1       -2 0.13608227E+00 0.35389232E+04</pdfrwt>
<totfact> 0.24093193E-01</totfact>
</mgrwt>
</event>
<event>
 6    1  0.1773638E-005  0.1147583E+04  0.7818608E-02  0.9160016E-01
         -1   -1    0    0    0  501 -0.00000000000E+00  0.00000000000E+00  0.31333989877E+03  0.31333989877E+03  0.00000000000E+00 0.  1.
          1   -1    0    0  501    0  0.00000000000E+00 -0.00000000000E+00 -0.10507335061E+04  0.10507335061E+04  0.00000000000E+00 0. -1.
         23    2    1    2    0    0  0.45571507860E+03  0.24315763305E+03 -0.84687952618E+02  0.53171138084E+03  0.93504416091E+02 0.  0.
         13    1    3    3    0    0  0.37653240512E+03  0.23819503250E+03 -0.74149043625E+02  0.45167643982E+03  0.00000000000E+00 0.  1.
        -13    1    3    3    0    0  0.79182673472E+02  0.49626005555E+01 -0.10538908993E+02  0.80034941027E+02  0.00000000000E+00 0. -1.
         22    1    1    2    0    0 -0.45571507860E+03 -0.24315763305E+03 -0.65270565476E+03  0.83236202408E+03  0.00000000000E+00 0. -1.
<mgrwt>
<rscale>  0 0.11475831E+04</rscale>
<asrwt>0</asrwt>
<pdfrwt beam="1">  1        1 0.16165131E+00 0.11475831E+04</pdfrwt>
<pdfrwt beam="2">  1       -1 0.48206139E-01 0.11475831E+04</pdfrwt>
<totfact> 0.59046177E+01</totfact>
</mgrwt>
</event>
<event>
 6    1  0.1773638E-005  0.2879782E+04  0.7818608E-02  0.8278919E-01
         -1   -1    0    0    0  501 -0.00000000000E+00  0.00000000000E+00  0.14914662054E+04  0.14914662054E+04  0.00000000000E+00 0.  1.
          1   -1    0    0  501    0  0.00000000000E+00 -0.00000000000E+00 -0.13900990653E+04  0.13900990653E+04  0.00000000000E+00 0. -1.
         23    2    1    2    0    0  0.68510842539E+03 -0.10023342151E+04  0.82265366514E+03  0.14693678041E+04  0.90748319274E+02 0.  0.
         13    1    3    3    0    0  0.26438898739E+03 -0.44704484757E+03  0.31611299381E+03  0.60801156012E+03  0.00000000000E+00 0. -1.
        -13    1    3    3    0    0  0.42071943800E+03 -0.55528936757E+03  0.50654067133E+03  0.86135624393E+03  0.00000000000E+00 0.  1.
         22    1    1    2    0    0 -0.68510842539E+03  0.10023342151E+04 -0.72128652503E+03  0.14121974666E+04  0.00000000000E+00 0. -1.
<mgrwt>
<rscale>  0 0.28797818E+04</rscale>
<asrwt>0</asrwt>
<pdfrwt beam="1">  1        1 0.21386139E+00 0.28797818E+04</pdfrwt>
<pdfrwt beam="2">  1       -1 0.22945634E+00 0.28797818E+04</pdfrwt>
<totfact> 0.63894379E-01</totfact>
</mgrwt>
</event>
<event>
 6    1  0.2433269E-005  0.1827790E+04  0.7818608E-02  0.8691659E-01
         -2   -1    0    0    0  501 -0.00000000000E+00  0.00000000000E+00  0.45824069239E+03  0.45824069239E+03  0.00000000000E+00 0.  1.
          2   -1    0    0  501    0  0.00000000000E+00 -0.00000000000E+00 -0.18226323069E+04  0.18226323069E+04  0.00000000000E+00 0. -1.
         23    2    1    2    0    0  0.51797353208E+03  0.56249581937E+03 -0.63875165548E+02  0.77221758443E+03  0.86843734345E+02 0.  0.
         13    1    3    3    0    0  0.27620084247E+03  0.28126637587E+03  0.87597095270E+01  0.39430243733E+03  0.00000000000E+00 0.  1.
        -13    1    3    3    0    0  0.24177268961E+03  0.28122944350E+03 -0.72634875075E+02  0.37791514710E+03  0.00000000000E+00 0. -1.
         22    1    1    2    0    0 -0.51797353208E+03 -0.56249581937E+03 -0.13005164490E+04  0.15086554149E+04  0.00000000000E+00 0. -1.
<mgrwt>
<rscale>  0 0.18277902E+04</rscale>
<asrwt>0</asrwt>
<pdfrwt beam="1">  1        2 0.28040497E+00 0.18277902E+04</pdfrwt>
<pdfrwt beam="2">  1       -2 0.70498568E-01 0.18277902E+04</pdfrwt>
<totfact> 0.14450901E+01</totfact>
</mgrwt>
</event>
<event>
 6    1  0.1773638E-005  0.1228277E+04  0.7818608E-02  0.9088459E-01
          2   -1    0    0  501    0  0.00000000000E+00  0.00000000000E+00  0.22420512341E+04  0.22420512341E+04  0.00000000000E+00 0. -1.
         -2   -1    0    0    0  501 -0.00000000000E+00 -0.00000000000E+00 -0.16822378050E+03  0.16822378050E+03  0.00000000000E+00 0.  1.
         23    2    1    2    0    0  0.14278238853E+03 -0.52311638517E+03  0.49069611311E+03  0.73685265184E+03  0.90175341354E+02 0.  0.
         11    1    3    3    0    0  0.43330385115E+02 -0.24198705418E+03  0.16971566149E+03  0.29872840912E+03  0.00000000000E+00 0.  1.
        -11    1    3    3    0    0  0.99452003414E+02 -0.28112933100E+03  0.32098045163E+03  0.43812424272E+03  0.00000000000E+00 0. -1.
         22    1    1    2    0    0 -0.14278238853E+03  0.52311638517E+03  0.15831313405E+04  0.16734223627E+04  0.00000000000E+00 0. -1.
<mgrwt>
<rscale>  0 0.12282774E+04</rscale>
<asrwt>0</asrwt>
<pdfrwt beam="1">  1        2 0.34493094E+00 0.12282774E+04</pdfrwt>
<pdfrwt beam="2">  1       -2 0.25880583E-01 0.12282774E+04</pdfrwt>
<totfact> 0.65066990E+01</totfact>
</mgrwt>
</event>
<event>
 6    1  0.1773638E-005  0.2347621E+04  0.7818608E-02  0.8459378E-01
         -1   -1    0    0    0  501 -0.00000000000E+00  0.00000000000E+00  0.70865652384E+03  0.70865652384E+03  0.00000000000E+00 0.  1.
          1   -1    0    0  501    0  0.00000000000E+00 -0.00000000000E+00 -0.19442866926E+04  0.19442866926E+04  0.00000000000E+00 0. -1.
         23    2    1    2    0    0  0.56903438827E+03 -0.97440936596E+03 -0.26056064877E+03  0.11616235605E+04  0.90574262666E+02 0.  0.
         13    1    3    3    0    0  0.35996401474E+03 -0.60358326450E+03 -0.20663402129E+03  0.73251926107E+03  0.00000000000E+00 0. -1.
        -13    1    3    3    0    0  0.20907037353E+03 -0.37082610146E+03 -0.53926627487E+02  0.42910429940E+03  0.00000000000E+00 0.  1.
         22    1    1    2    0    0 -0.56903438827E+03  0.97440936596E+03 -0.97506951998E+03  0.14913196560E+04  0.00000000000E+00 0. -1.
<mgrwt>
<rscale>  0 0.23476213E+04</rscale>
<asrwt>0</asrwt>
<pdfrwt beam="1">  1        1 0.29912103E+00 0.23476213E+04</pdfrwt>
<pdfrwt beam="2">  1       -1 0.10902408E+00 0.23476213E+04</pdfrwt>
<totfact> 0.22806873E+00</totfact>
</mgrwt>
</event>
<event>
 6    1  0.1773638E-005  0.2165641E+04  0.7818608E-02  0.8532867E-01
         -2   -1    0    0    0  501 -0.00000000000E+00  0.00000000000E+00  0.63391359486E+03  0.63391359486E+03  0.00000000000E+00 0. -1.
          2   -1    0    0  501    0  0.00000000000E+00 -0.00000000000E+00 -0.18496212242E+04  0.18496212242E+04  0.00000000000E+00 0.  1.
         23    2    1    2    0    0  0.10242902392E+04 -0.30166082471E+03 -0.80170053848E+03  0.13382961458E+04  0.90238978308E+02 0.  0.
         13    1    3    3    0    0  0.90174074788E+03 -0.24401067836E+03 -0.72624690223E+03  0.11832633479E+04  0.00000000000E+00 0. -1.
        -13    1    3    3    0    0  0.12254949134E+03 -0.57650146346E+02 -0.75453636243E+02  0.15503279790E+03  0.00000000000E+00 0.  1.
         22    1    1    2    0    0 -0.10242902392E+04  0.30166082471E+03 -0.41400709082E+03  0.11452386732E+04  0.00000000000E+00 0.  1.
<mgrwt>
<rscale>  0 0.21656408E+04</rscale>
<asrwt>0</asrwt>
<pdfrwt beam="1">  1        2 0.28455711E+00 0.21656408E+04</pdfrwt>
<pdfrwt beam="2">  1       -2 0.97525168E-01 0.21656408E+04</pdfrwt>
<totfact> 0.65053458E+00</totfact>
</mgrwt>
</event>
<event>
 6    1  0.1773638E-005  0.7853344E+03  0.7818608E-02  0.9581491E-01
         -1   -1    0    0    0  501 -0.00000000000E+00  0.00000000000E+00  0.69762595467E+03  0.69762595467E+03  0.00000000000E+00 0.  1.
          1   -1    0    0  501    0  0.00000000000E+00 -0.00000000000E+00 -0.22101748383E+03  0.22101748383E+03  0.00000000000E+00 0. -1.
         23    2    1    2    0    0 -0.13309815815E+03  0.22352591853E+03  0.57680591688E+03  0.63986308740E+03  0.95082852910E+02 0.  0.
         13    1    3    3    0    0 -0.11202051484E+03  0.21741200306E+03  0.56327453646E+03  0.61408043304E+03  0.00000000000E+00 0. -1.
        -13    1    3    3    0    0 -0.21077643313E+02  0.61139154710E+01  0.13531380421E+02  0.25782654365E+02  0.00000000000E+00 0.  1.
         22    1    1    2    0    0  0.13309815815E+03 -0.22352591853E+03 -0.10019744604E+03  0.27878035109E+03  0.00000000000E+00 0. -1.
<mgrwt>
<rscale>  0 0.78533441E+03</rscale>
<asrwt>0</asrwt>
<pdfrwt beam="1">  1        1 0.34002690E-01 0.78533441E+03</pdfrwt>
<pdfrwt beam="2">  1       -1 0.10732707E+00 0.78533441E+03</pdfrwt>
<totfact> 0.10702602E+02</totfact>
</mgrwt>
</event>
<event>
 6    1  0.1773638E-005  0.1921898E+04  0.7818608E-02  0.8644033E-01
         -2   -1    0    0    0  501 -0.00000000000E+00  0.00000000000E+00  0.49024858812E+03  0.49024858812E+03  0.00000000000E+00 0.  1.
          2   -1    0    0  501    0  0.00000000000E+00 -0.00000000000E+00 -0.18835803318E+04  0.18835803318E+04  0.00000000000E+00 0. -1.
         23    2    1    2    0    0 -0.37441699088E+03  0.21812970243E+03 -0.17545930672E+04  0.18096672463E+04  0.92358328836E+02 0.  0.
         13    1    3    3    0    0 -0.20235916175E+03  0.13675149960E+03 -0.11569598211E+04  0.11824577078E+04  0.00000000000E+00 0. -1.
        -13    1    3    3    0    0 -0.17205782913E+03  0.81378202826E+02 -0.59763324603E+03  0.62720953853E+03  0.00000000000E+00 0.  1.
         22    1    1    2    0    0  0.37441699088E+03 -0.21812970243E+03  0.36126132347E+03  0.56416167362E+03  0.00000000000E+00 0.  1.
<mgrwt>
<rscale>  0 0.19218976E+04</rscale>
<asrwt>0</asrwt>
<pdfrwt beam="1">  1        2 0.28978159E+00 0.19218976E+04</pdfrwt>
<pdfrwt beam="2">  1       -2 0.75422860E-01 0.19218976E+04</pdfrwt>
<totfact> 0.11431946E+01</totfact>
</mgrwt>
</event>
<event>
 6    1  0.1773638E-005  0.3598033E+04  0.7818608E-02  0.8090942E-01
          2   -1    0    0  501    0  0.00000000000E+00  0.00000000000E+00  0.20364150803E+04  0.20364150803E+04  0.00000000000E+00 0. -1.
         -2   -1    0    0    0  501 -0.00000000000E+00 -0.00000000000E+00 -0.15892930800E+04  0.15892930800E+04  0.00000000000E+00 0.  1.
         23    2    1    2    0    0 -0.67219667967E+03  0.69375347012E+03  0.17518386732E+04  0.20023080709E+04  0.84596811341E+02 0.  0.
         11    1    3    3    0    0 -0.42824540915E+03  0.38540575908E+03  0.10684550458E+04  0.12138895809E+04  0.00000000000E+00 0. -1.
        -11    1    3    3    0    0 -0.24395127051E+03  0.30834771104E+03  0.68338362738E+03  0.78841849005E+03  0.00000000000E+00 0.  1.
         22    1    1    2    0    0  0.67219667967E+03 -0.69375347012E+03 -0.13047166729E+04  0.16234000893E+04  0.00000000000E+00 0.  1.
<mgrwt>
<rscale>  0 0.35980330E+04</rscale>
<asrwt>0</asrwt>
<pdfrwt beam="1">  1        2 0.31329463E+00 0.35980330E+04</pdfrwt>
<pdfrwt beam="2">  1       -2 0.24450663E+00 0.35980330E+04</pdfrwt>
<totfact> 0.36112317E-01</totfact>
</mgrwt>
</event>
<event>
 6    1  0.1773638E-005  0.2550521E+04  0.7818608E-02  0.8385205E-01
          2   -1    0    0  501    0  0.00000000000E+00  0.00000000000E+00  0.18396977117E+04  0.18396977117E+04  0.00000000000E+00 0. -1.
         -2   -1    0    0    0  501 -0.00000000000E+00 -0.00000000000E+00 -0.88399819390E+03  0.88399819390E+03  0.00000000000E+00 0.  1.
         23    2    1    2    0    0 -0.91516863391E+03  0.18839618193E+03  0.14027195864E+04  0.16879093970E+04  0.91592272575E+02 0.  0.
         13    1    3    3    0    0 -0.71192536595E+03  0.11784640200E+03  0.10315516796E+04  0.12588980772E+04  0.00000000000E+00 0. -1.
        -13    1    3    3    0    0 -0.20324326796E+03  0.70549779933E+02  0.37116790680E+03  0.42901131973E+03  0.00000000000E+00 0.  1.
         22    1    1    2    0    0  0.91516863391E+03 -0.18839618193E+03 -0.44702006857E+03  0.10357865087E+04  0.00000000000E+00 0.  1.
<mgrwt>
<rscale>  0 0.25505211E+04</rscale>
<asrwt>0</asrwt>
<pdfrwt beam="1">  1        2 0.28303042E+00 0.25505211E+04</pdfrwt>
<pdfrwt beam="2">  1       -2 0.13599972E+00 0.25505211E+04</pdfrwt>
<totfact> 0.28204505E+00</totfact>
</mgrwt>
</event>
<event>
 6    1  0.1773638E-005  0.2381683E+04  0.7818608E-02  0.8446393E-01
          2   -1    0    0  501    0  0.00000000000E+00  0.00000000000E+00  0.57799115590E+03  0.57799115590E+03  0.00000000000E+00 0. -1.
         -2   -1    0    0    0  501 -0.00000000000E+00 -0.00000000000E+00 -0.24535033713E+04  0.24535033713E+04  0.00000000000E+00 0.  1.
         23    2    1    2    0    0  0.52729070617E+03  0.22882481864E+03 -0.22640968803E+04  0.23376686642E+04  0.90353825931E+02 0.  0.
         11    1    3    3    0    0  0.17984320050E+03  0.12549713105E+03 -0.87125119906E+03  0.89842738078E+03  0.00000000000E+00 0. -1.
        -11    1    3    3    0    0  0.34744750567E+03  0.10332768759E+03 -0.13928456812E+04  0.14392412834E+04  0.00000000000E+00 0.  1.
         22    1    1    2    0    0 -0.52729070617E+03 -0.22882481864E+03  0.38858466486E+03  0.69382586302E+03  0.00000000000E+00 0. -1.
<mgrwt>
<rscale>  0 0.23816828E+04</rscale>
<asrwt>0</asrwt>
<pdfrwt beam="1">  1        2 0.88921716E-01 0.23816828E+04</pdfrwt>
<pdfrwt beam="2">  1       -2 0.37746206E+00 0.23816828E+04</pdfrwt>
<totfact> 0.48622773E-01</totfact>
</mgrwt>
</event>
<event>
 6    1  0.1773638E-005  0.3164931E+04  0.7818608E-02  0.8198141E-01
          1   -1    0    0  501    0  0.00000000000E+00  0.00000000000E+00  0.17534069199E+04  0.17534069199E+04  0.00000000000E+00 0. -1.
         -1   -1    0    0    0  501 -0.00000000000E+00 -0.00000000000E+00 -0.14281896090E+04  0.14281896090E+04  0.00000000000E+00 0.  1.
         23    2    1    2    0    0 -0.35466100483E+03  0.98225469299E+03 -0.10307009003E+04  0.14701284732E+04  0.91239638618E+02 0.  0.
         11    1    3    3    0    0 -0.19683000396E+02  0.12222993390E+03 -0.14880829129E+03  0.19357552738E+03  0.00000000000E+00 0.  1.
        -11    1    3    3    0    0 -0.33497800443E+03  0.86002475909E+03 -0.88189260900E+03  0.12765529458E+04  0.00000000000E+00 0. -1.
         22    1    1    2    0    0  0.35466100483E+03 -0.98225469299E+03  0.13559182112E+04  0.17114680557E+04  0.00000000000E+00 0. -1.
<mgrwt>
<rscale>  0 0.31649313E+04</rscale>
<asrwt>0</asrwt>
<pdfrwt beam="1">  1        1 0.26975491E+00 0.31649313E+04</pdfrwt>
<pdfrwt beam="2">  1       -1 0.21972148E+00 0.31649313E+04</pdfrwt>
<totfact> 0.40650431E-01</totfact>
</mgrwt>
</event>
<event>
 6    1  0.1773638E-005  0.3097053E+04  0.7818608E-02  0.8216547E-01
         -2   -1    0    0    0  501 -0.00000000000E+00  0.00000000000E+00  0.25243903802E+04  0.25243903802E+04  0.00000000000E+00 0.  1.
          2   -1    0    0  501    0  0.00000000000E+00 -0.00000000000E+00 -0.94990604247E+03  0.94990604247E+03  0.00000000000E+00 0. -1.
         23    2    1    2    0    0  0.65691872767E+03  0.36902291827E+02  0.23587728334E+04  0.24505716363E+04  0.92671848462E+02 0.  0.
         11    1    3    3    0    0  0.25969031673E+03 -0.18738265753E+01  0.77832361682E+03  0.82050607818E+03  0.00000000000E+00 0.  1.
        -11    1    3    3    0    0  0.39722841094E+03  0.38776118402E+02  0.15804492165E+04  0.16300655582E+04  0.00000000000E+00 0. -1.
         22    1    1    2    0    0 -0.65691872767E+03 -0.36902291827E+02 -0.78428849560E+03  0.10237247864E+04  0.00000000000E+00 0. -1.
<mgrwt>
<rscale>  0 0.30970526E+04</rscale>
<asrwt>0</asrwt>
<pdfrwt beam="1">  1        2 0.14613939E+00 0.30970526E+04</pdfrwt>
<pdfrwt beam="2">  1       -2 0.38836775E+00 0.30970526E+04</pdfrwt>
<totfact> 0.20366538E-01</totfact>
</mgrwt>
</event>
<event>
 6    1  0.1773638E-005  0.3777427E+04  0.7818608E-02  0.8051016E-01
          1   -1    0    0  501    0  0.00000000000E+00  0.00000000000E+00  0.33967688550E+04  0.33967688550E+04  0.00000000000E+00 0. -1.
         -1   -1    0    0    0  501 -0.00000000000E+00 -0.00000000000E+00 -0.10501861340E+04  0.10501861340E+04  0.00000000000E+00 0.  1.
         23    2    1    2    0    0  0.12651273671E+04 -0.13972975553E+04  0.12923718879E+04  0.22872447785E+04  0.90971794077E+02 0.  0.
         13    1    3    3    0    0  0.83413618584E+03 -0.94226425426E+03  0.91132548303E+03  0.15537564923E+04  0.00000000000E+00 0. -1.
        -13    1    3    3    0    0  0.43099118122E+03 -0.45503330101E+03  0.38104640487E+03  0.73348828619E+03  0.00000000000E+00 0.  1.
         22    1    1    2    0    0 -0.12651273671E+04  0.13972975553E+04  0.10542108331E+04  0.21597102105E+04  0.00000000000E+00 0. -1.
<mgrwt>
<rscale>  0 0.37774275E+04</rscale>
<asrwt>0</asrwt>
<pdfrwt beam="1">  1        1 0.52257982E+00 0.37774275E+04</pdfrwt>
<pdfrwt beam="2">  1       -1 0.16156710E+00 0.37774275E+04</pdfrwt>
<totfact> 0.68123551E-02</totfact>
</mgrwt>
</event>
<event>
 6    1  0.1773638E-005  0.9546789E+03  0.7818608E-02  0.9359698E-01
          1   -1    0    0  501    0  0.00000000000E+00  0.00000000000E+00  0.41961593251E+03  0.41961593251E+03  0.00000000000E+00 0. -1.
         -1   -1    0    0    0  501 -0.00000000000E+00 -0.00000000000E+00 -0.54300356110E+03  0.54300356110E+03  0.00000000000E+00 0.  1.
         23    2    1    2    0    0  0.27612853456E+03  0.20020984526E+03  0.26844326465E+03  0.44313667519E+03  0.89316162147E+02 0.  0.
         11    1    3    3    0    0  0.81406973853E+02  0.86760008955E+02  0.14007270626E+03  0.18377909996E+03  0.00000000000E+00 0. -1.
        -11    1    3    3    0    0  0.19472156071E+03  0.11344983631E+03  0.12837055839E+03  0.25935757522E+03  0.00000000000E+00 0.  1.
         22    1    1    2    0    0 -0.27612853456E+03 -0.20020984526E+03 -0.39183089324E+03  0.51948281842E+03  0.00000000000E+00 0.  1.
<mgrwt>
<rscale>  0 0.95467889E+03</rscale>
<asrwt>0</asrwt>
<pdfrwt beam="1">  1        1 0.64556298E-01 0.95467889E+03</pdfrwt>
<pdfrwt beam="2">  1       -1 0.83539009E-01 0.95467889E+03</pdfrwt>
<totfact> 0.80450744E+01</totfact>
</mgrwt>
</event>
<event>
 6    1  0.1773638E-005  0.2010180E+04  0.7818608E-02  0.8601876E-01
         -2   -1    0    0    0  501 -0.00000000000E+00  0.00000000000E+00  0.27846839444E+03  0.27846839444E+03  0.00000000000E+00 0. -1.
          2   -1    0    0  501    0  0.00000000000E+00 -0.00000000000E+00 -0.36277215384E+04  0.36277215384E+04  0.00000000000E+00 0.  1.
         23    2    1    2    0    0  0.60346289473E+03  0.38816689174E+02 -0.12279256909E+03  0.62355043972E+03  0.89793848224E+02 0.  0.
         13    1    3    3    0    0  0.42637210286E+03  0.48877740262E+02 -0.12201468427E+03  0.44617237338E+03  0.00000000000E+00 0. -1.
        -13    1    3    3    0    0  0.17709079187E+03 -0.10061051088E+02 -0.77788481882E+00  0.17737806634E+03  0.00000000000E+00 0.  1.
         22    1    1    2    0    0 -0.60346289473E+03 -0.38816689174E+02 -0.32264605749E+04  0.32826394932E+04  0.00000000000E+00 0.  1.
<mgrwt>
<rscale>  0 0.20101799E+04</rscale>
<asrwt>0</asrwt>
<pdfrwt beam="1">  1        2 0.55811100E+00 0.20101799E+04</pdfrwt>
<pdfrwt beam="2">  1       -2 0.42841292E-01 0.20101799E+04</pdfrwt>
<totfact> 0.31823556E+00</totfact>
</mgrwt>
</event>
<event>
 6    1  0.1773638E-005  0.2907686E+04  0.7818608E-02  0.8270594E-01
         -1   -1    0    0    0  501 -0.00000000000E+00  0.00000000000E+00  0.97527855132E+03  0.97527855132E+03  0.00000000000E+00 0.  1.
          1   -1    0    0  501    0  0.00000000000E+00 -0.00000000000E+00 -0.21672368842E+04  0.21672368842E+04  0.00000000000E+00 0. -1.
         23    2    1    2    0    0  0.82322795976E+03  0.35743047902E+03 -0.18307437269E+04  0.20409222254E+04  0.90995138646E+02 0.  0.
         11    1    3    3    0    0  0.14853817511E+03  0.52010731407E+02 -0.25214337200E+03  0.29722884397E+03  0.00000000000E+00 0.  1.
        -11    1    3    3    0    0  0.67468978466E+03  0.30541974761E+03 -0.15786003550E+04  0.17436933814E+04  0.00000000000E+00 0. -1.
         22    1    1    2    0    0 -0.82322795976E+03 -0.35743047902E+03  0.63878539403E+03  0.11015932102E+04  0.00000000000E+00 0.  1.
<mgrwt>
<rscale>  0 0.29076861E+04</rscale>
<asrwt>0</asrwt>
<pdfrwt beam="1">  1        1 0.33342106E+00 0.29076861E+04</pdfrwt>
<pdfrwt beam="2">  1       -1 0.15004286E+00 0.29076861E+04</pdfrwt>
<totfact> 0.68578039E-01</totfact>
</mgrwt>
</event>
<event>
 6    1  0.1773638E-005  0.2801044E+04  0.7818608E-02  0.8302944E-01
         -2   -1    0    0    0  501 -0.00000000000E+00  0.00000000000E+00  0.19344345106E+04  0.19344345106E+04  0.00000000000E+00 0. -1.
          2   -1    0    0  501    0  0.00000000000E+00 -0.00000000000E+00 -0.10139719530E+04  0.10139719530E+04  0.00000000000E+00 0.  1.
         23    2    1    2    0    0  0.68687992581E+03 -0.12184991294E+04  0.43346547637E+03  0.14672885351E+04  0.92190916641E+02 0.  0.
         11    1    3    3    0    0  0.26216859810E+03 -0.55561866915E+03  0.20125329193E+03  0.64648848934E+03  0.00000000000E+00 0.  1.
        -11    1    3    3    0    0  0.42471132770E+03 -0.66288046028E+03  0.23221218444E+03  0.82080004575E+03  0.00000000000E+00 0. -1.
         22    1    1    2    0    0 -0.68687992581E+03  0.12184991294E+04  0.48699708127E+03  0.14811179285E+04  0.00000000000E+00 0.  1.
<mgrwt>
<rscale>  0 0.28010443E+04</rscale>
<asrwt>0</asrwt>
<pdfrwt beam="1">  1        2 0.15599569E+00 0.28010443E+04</pdfrwt>
<pdfrwt beam="2">  1       -2 0.29760531E+00 0.28010443E+04</pdfrwt>
<totfact> 0.70575097E-01</totfact>
</mgrwt>
</event>
<event>
 6    1  0.1773638E-005  0.2335448E+04  0.7818608E-02  0.8464074E-01
         -1   -1    0    0    0  501 -0.00000000000E+00  0.00000000000E+00  0.16205797911E+04  0.16205797911E+04  0.00000000000E+00 0.  1.
          1   -1    0    0  501    0  0.00000000000E+00 -0.00000000000E+00 -0.84141450475E+03  0.84141450475E+03  0.00000000000E+00 0. -1.
         23    2    1    2    0    0  0.80681986173E+03 -0.55281802170E+03  0.10593185334E+04  0.14446192931E+04  0.90570924552E+02 0.  0.
         11    1    3    3    0    0  0.79232691717E+03 -0.55161831891E+03  0.10290066494E+04  0.14109994323E+04  0.00000000000E+00 0.  1.
        -11    1    3    3    0    0  0.14492944558E+02 -0.11997027906E+01  0.30311883965E+02  0.33619860771E+02  0.00000000000E+00 0. -1.
         22    1    1    2    0    0 -0.80681986173E+03  0.55281802170E+03 -0.28015324705E+03  0.10173750028E+04  0.00000000000E+00 0. -1.
<mgrwt>
<rscale>  0 0.23354480E+04</rscale>
<asrwt>0</asrwt>
<pdfrwt beam="1">  1        1 0.12944839E+00 0.23354480E+04</pdfrwt>
<pdfrwt beam="2">  1       -1 0.24931997E+00 0.23354480E+04</pdfrwt>
<totfact> 0.12926208E+00</totfact>
</mgrwt>
</event>
<event>
 6    1  0.1773638E-005  0.2078406E+04  0.7818608E-02  0.8570816E-01
         -2   -1    0    0    0  501 -0.00000000000E+00  0.00000000000E+00  0.62758173389E+03  0.62758173389E+03  0.00000000000E+00 0.  1.
          2   -1    0    0  501    0  0.00000000000E+00 -0.00000000000E+00 -0.17207999517E+04  0.17207999517E+04  0.00000000000E+00 0. -1.
         23    2    1    2    0    0  0.10159343723E+04  0.15282680840E+03 -0.70744948299E+03  0.12509773850E+04  0.94767951128E+02 0.  0.
         13    1    3    3    0    0  0.17148633051E+03  0.88765821457E+01 -0.15751305917E+03  0.23301656394E+03  0.00000000000E+00 0. -1.
        -13    1    3    3    0    0  0.84444804180E+03  0.14395022626E+03 -0.54993642382E+03  0.10179608210E+04  0.00000000000E+00 0.  1.
         22    1    1    2    0    0 -0.10159343723E+04 -0.15282680840E+03 -0.38576873481E+03  0.10974043006E+04  0.00000000000E+00 0.  1.
<mgrwt>
<rscale>  0 0.20784058E+04</rscale>
<asrwt>0</asrwt>
<pdfrwt beam="1">  1        2 0.26473845E+00 0.20784058E+04</pdfrwt>
<pdfrwt beam="2">  1       -2 0.96551036E-01 0.20784058E+04</pdfrwt>
<totfact> 0.79101324E+00</totfact>
</mgrwt>
</event>
<event>
 6    1  0.1773638E-005  0.2239825E+04  0.7818608E-02  0.8502033E-01
         -1   -1    0    0    0  501 -0.00000000000E+00  0.00000000000E+00  0.17581280690E+04  0.17581280690E+04  0.00000000000E+00 0.  1.
          1   -1    0    0  501    0  0.00000000000E+00 -0.00000000000E+00 -0.71337464670E+03  0.71337464670E+03  0.00000000000E+00 0. -1.
         23    2    1    2    0    0  0.15748254052E+03  0.95772105607E+03  0.11354457928E+04  0.14966922326E+04  0.93915488522E+02 0.  0.
         11    1    3    3    0    0  0.18557310451E+02  0.30526936298E+03  0.40459050310E+03  0.50717574168E+03  0.00000000000E+00 0. -1.
        -11    1    3    3    0    0  0.13892523007E+03  0.65245169309E+03  0.73085528972E+03  0.98951649096E+03  0.00000000000E+00 0.  1.
         22    1    1    2    0    0 -0.15748254052E+03 -0.95772105607E+03 -0.90692370533E+02  0.97481048306E+03  0.00000000000E+00 0. -1.
<mgrwt>
<rscale>  0 0.22398250E+04</rscale>
<asrwt>0</asrwt>
<pdfrwt beam="1">  1        1 0.10974995E+00 0.22398250E+04</pdfrwt>
<pdfrwt beam="2">  1       -1 0.27048124E+00 0.22398250E+04</pdfrwt>
<totfact> 0.12336799E+00</totfact>
</mgrwt>
</event>
<event>
 6    1  0.1773638E-005  0.2844426E+04  0.7818608E-02  0.8289607E-01
          2   -1    0    0  501    0  0.00000000000E+00  0.00000000000E+00  0.31813583439E+04  0.31813583439E+04  0.00000000000E+00 0. -1.
         -2   -1    0    0    0  501 -0.00000000000E+00 -0.00000000000E+00 -0.63579446592E+03  0.63579446592E+03  0.00000000000E+00 0.  1.
         23    2    1    2    0    0 -0.25266724318E+03  0.54507063467E+03 -0.45373586513E+03  0.75827365536E+03  0.90332544260E+02 0.  0.
         13    1    3    3    0    0 -0.21961471104E+02  0.45274198323E+02 -0.10191229956E+02  0.51341215557E+02  0.00000000000E+00 0. -1.
        -13    1    3    3    0    0 -0.23070577207E+03  0.49979643635E+03 -0.44354463518E+03  0.70693243980E+03  0.00000000000E+00 0.  1.
         22    1    1    2    0    0  0.25266724318E+03 -0.54507063467E+03  0.29992997431E+04  0.30588791545E+04  0.00000000000E+00 0. -1.
<mgrwt>
<rscale>  0 0.28444261E+04</rscale>
<asrwt>0</asrwt>
<pdfrwt beam="1">  1        2 0.48943974E+00 0.28444261E+04</pdfrwt>
<pdfrwt beam="2">  1       -2 0.97814535E-01 0.28444261E+04</pdfrwt>
<totfact> 0.10057391E+00</totfact>
</mgrwt>
</event>
<event>
 6    1  0.1773638E-005  0.5986048E+03  0.7818608E-02  0.9908305E-01
          1   -1    0    0  501    0  0.00000000000E+00  0.00000000000E+00  0.11372614714E+04  0.11372614714E+04  0.00000000000E+00 0. -1.
         -1   -1    0    0    0  501 -0.00000000000E+00 -0.00000000000E+00 -0.78769856863E+02  0.78769856863E+02  0.00000000000E+00 0.  1.
         23    2    1    2    0    0 -0.52686220733E+02 -0.89103605543E+02  0.10968671470E+04  0.11056321803E+04  0.92680577921E+02 0.  0.
         11    1    3    3    0    0 -0.62783151021E+02 -0.97029714529E+02  0.78102690248E+03  0.78953119758E+03  0.00000000000E+00 0.  1.
        -11    1    3    3    0    0  0.10096930288E+02  0.79261089858E+01  0.31584024453E+03  0.31610098271E+03  0.00000000000E+00 0. -1.
         22    1    1    2    0    0  0.52686220733E+02  0.89103605543E+02 -0.38375532490E+02  0.11039914796E+03  0.00000000000E+00 0.  1.
<mgrwt>
<rscale>  0 0.59860479E+03</rscale>
<asrwt>0</asrwt>
<pdfrwt beam="1">  1        1 0.17496329E+00 0.59860479E+03</pdfrwt>
<pdfrwt beam="2">  1       -1 0.12118440E-01 0.59860479E+03</pdfrwt>
<totfact> 0.56187596E+02</totfact>
</mgrwt>
</event>
<event>
 6    1  0.1773638E-005  0.1121357E+04  0.7818608E-02  0.9184622E-01
         -3   -1    0    0    0  501 -0.00000000000E+00  0.00000000000E+00  0.69950022489E+03  0.69950022489E+03  0.00000000000E+00 0.  1.
          3   -1    0    0  501    0  0.00000000000E+00 -0.00000000000E+00 -0.44940733646E+03  0.44940733646E+03  0.00000000000E+00 0. -1.
         23    2    1    2    0    0  0.15350786230E+03  0.17259703041E+03  0.64502057881E+03  0.69139004331E+03  0.92812963534E+02 0.  0.
         11    1    3    3    0    0  0.69232443233E+02  0.10793381853E+03  0.46509108034E+03  0.48244435264E+03  0.00000000000E+00 0. -1.
        -11    1    3    3    0    0  0.84275419070E+02  0.64663211880E+02  0.17992949847E+03  0.20894569067E+03  0.00000000000E+00 0.  1.
         22    1    1    2    0    0 -0.15350786230E+03 -0.17259703041E+03 -0.39492769038E+03  0.45751751805E+03  0.00000000000E+00 0. -1.
<mgrwt>
<rscale>  0 0.11213573E+04</rscale>
<asrwt>0</asrwt>
<pdfrwt beam="1">  1        3 0.69139590E-01 0.11213573E+04</pdfrwt>
<pdfrwt beam="2">  1       -3 0.10761542E+00 0.11213573E+04</pdfrwt>
<totfact> 0.38285651E+00</totfact>
</mgrwt>
</event>
<event>
 6    1  0.1773638E-005  0.2959755E+04  0.7818608E-02  0.8255317E-01
         -2   -1    0    0    0  501 -0.00000000000E+00  0.00000000000E+00  0.77652197575E+03  0.77652197575E+03  0.00000000000E+00 0.  1.
          2   -1    0    0  501    0  0.00000000000E+00 -0.00000000000E+00 -0.28203157744E+04  0.28203157744E+04  0.00000000000E+00 0. -1.
         23    2    1    2    0    0 -0.90024315700E+03 -0.11271003157E+04 -0.14188219208E+04  0.20247745480E+04  0.76573258523E+02 0.  0.
         13    1    3    3    0    0 -0.28121429598E+03 -0.32227503313E+03 -0.46262560387E+03  0.63005168565E+03  0.00000000000E+00 0. -1.
        -13    1    3    3    0    0 -0.61902886103E+03 -0.80482528260E+03 -0.95619631693E+03  0.13947228624E+04  0.00000000000E+00 0.  1.
         22    1    1    2    0    0  0.90024315700E+03  0.11271003157E+04 -0.62497187790E+03  0.15720632022E+04  0.00000000000E+00 0.  1.
<mgrwt>
<rscale>  0 0.29597548E+04</rscale>
<asrwt>0</asrwt>
<pdfrwt beam="1">  1        2 0.43389475E+00 0.29597548E+04</pdfrwt>
<pdfrwt beam="2">  1       -2 0.11946492E+00 0.29597548E+04</pdfrwt>
<totfact> 0.10360613E+00</totfact>
</mgrwt>
</event>
<event>
 6    1  0.1773638E-005  0.2288920E+04  0.7818608E-02  0.8482303E-01
         -1   -1    0    0    0  501 -0.00000000000E+00  0.00000000000E+00  0.77403396953E+03  0.77403396953E+03  0.00000000000E+00 0.  1.
          1   -1    0    0  501    0  0.00000000000E+00 -0.00000000000E+00 -0.16921591587E+04  0.16921591587E+04  0.00000000000E+00 0. -1.
         23    2    1    2    0    0 -0.63763910481E+02 -0.23514194657E+03 -0.16626487755E+04  0.16828203295E+04  0.90142884196E+02 0.  0.
         11    1    3    3    0    0 -0.81435329291E+02 -0.15934261744E+03 -0.10337783441E+04  0.10491517751E+04  0.00000000000E+00 0. -1.
        -11    1    3    3    0    0  0.17671418810E+02 -0.75799329132E+02 -0.62887043139E+03  0.63366855439E+03  0.00000000000E+00 0.  1.
         22    1    1    2    0    0  0.63763910481E+02  0.23514194657E+03  0.74452358626E+03  0.78337279874E+03  0.00000000000E+00 0.  1.
<mgrwt>
<rscale>  0 0.22889200E+04</rscale>
<asrwt>0</asrwt>
<pdfrwt beam="1">  1        1 0.26033218E+00 0.22889200E+04</pdfrwt>
<pdfrwt beam="2">  1       -1 0.11908215E+00 0.22889200E+04</pdfrwt>
<totfact> 0.27537702E+00</totfact>
</mgrwt>
</event>
<event>
 6    1  0.1773638E-005  0.3050680E+04  0.7818608E-02  0.8229405E-01
         -1   -1    0    0    0  501 -0.00000000000E+00  0.00000000000E+00  0.18662583607E+04  0.18662583607E+04  0.00000000000E+00 0.  1.
          1   -1    0    0  501    0  0.00000000000E+00 -0.00000000000E+00 -0.12466985761E+04  0.12466985761E+04  0.00000000000E+00 0. -1.
         23    2    1    2    0    0  0.56345074322E+03  0.10781685814E+04 -0.62657335528E+03  0.13714713548E+04  0.91734822084E+02 0.  0.
         11    1    3    3    0    0  0.14699361119E+03  0.32011333405E+03 -0.13975000268E+03  0.37895874659E+03  0.00000000000E+00 0. -1.
        -11    1    3    3    0    0  0.41645713203E+03  0.75805524733E+03 -0.48682335260E+03  0.99251260821E+03  0.00000000000E+00 0.  1.
         22    1    1    2    0    0 -0.56345074322E+03 -0.10781685814E+04  0.12461331399E+04  0.17414855820E+04  0.00000000000E+00 0.  1.
<mgrwt>
<rscale>  0 0.30506797E+04</rscale>
<asrwt>0</asrwt>
<pdfrwt beam="1">  1        1 0.19179978E+00 0.30506797E+04</pdfrwt>
<pdfrwt beam="2">  1       -1 0.28711667E+00 0.30506797E+04</pdfrwt>
<totfact> 0.33510372E-01</totfact>
</mgrwt>
</event>
<event>
 6    1  0.1773638E-005  0.3369260E+04  0.7818608E-02  0.8145492E-01
          2   -1    0    0  501    0  0.00000000000E+00  0.00000000000E+00  0.24997336613E+04  0.24997336613E+04  0.00000000000E+00 0.  1.
         -2   -1    0    0    0  501 -0.00000000000E+00 -0.00000000000E+00 -0.11353125271E+04  0.11353125271E+04  0.00000000000E+00 0. -1.
         23    2    1    2    0    0  0.65629624755E+03  0.10605570413E+04 -0.53722706596E+03  0.13608931858E+04  0.88945715463E+02 0.  0.
         11    1    3    3    0    0  0.49720077979E+03  0.72911765342E+03 -0.39063659593E+03  0.96510005597E+03  0.00000000000E+00 0.  1.
        -11    1    3    3    0    0  0.15909546776E+03  0.33143938789E+03 -0.14659047003E+03  0.39579312982E+03  0.00000000000E+00 0. -1.
         22    1    1    2    0    0 -0.65629624755E+03 -0.10605570413E+04  0.19016482002E+04  0.22741530027E+04  0.00000000000E+00 0.  1.
<mgrwt>
<rscale>  0 0.33692604E+04</rscale>
<asrwt>0</asrwt>
<pdfrwt beam="1">  1        2 0.38457441E+00 0.33692604E+04</pdfrwt>
<pdfrwt beam="2">  1       -2 0.17466347E+00 0.33692604E+04</pdfrwt>
<totfact> 0.57126383E-01</totfact>
</mgrwt>
</event>
<event>
 6    1  0.1773638E-005  0.1439843E+04  0.7818608E-02  0.8925472E-01
         -2   -1    0    0    0  501 -0.00000000000E+00  0.00000000000E+00  0.51653122279E+03  0.51653122279E+03  0.00000000000E+00 0.  1.
          2   -1    0    0  501    0  0.00000000000E+00 -0.00000000000E+00 -0.10033996375E+04  0.10033996375E+04  0.00000000000E+00 0. -1.
         23    2    1    2    0    0 -0.18982597933E+03 -0.42539592894E+03 -0.81965002361E+03  0.94744575304E+03  0.93977098044E+02 0.  0.
         11    1    3    3    0    0 -0.74545980542E+02 -0.74302173488E+02 -0.19877633598E+03  0.22492209306E+03  0.00000000000E+00 0.  1.
        -11    1    3    3    0    0 -0.11527999879E+03 -0.35109375545E+03 -0.62087368763E+03  0.72252365998E+03  0.00000000000E+00 0. -1.
         22    1    1    2    0    0  0.18982597933E+03  0.42539592894E+03  0.33278160890E+03  0.57248510724E+03  0.00000000000E+00 0.  1.
<mgrwt>
<rscale>  0 0.14398434E+04</rscale>
<asrwt>0</asrwt>
<pdfrwt beam="1">  1        2 0.15436917E+00 0.14398434E+04</pdfrwt>
<pdfrwt beam="2">  1       -2 0.79466343E-01 0.14398434E+04</pdfrwt>
<totfact> 0.34139776E+01</totfact>
</mgrwt>
</event>
<event>
 6    1  0.1773638E-005  0.3954752E+03  0.7818608E-02  0.1045358E+00
         -2   -1    0    0    0  501 -0.00000000000E+00  0.00000000000E+00  0.27304995361E+03  0.27304995361E+03  0.00000000000E+00 0.  1.
          2   -1    0    0  501    0  0.00000000000E+00 -0.00000000000E+00 -0.14319780563E+03  0.14319780563E+03  0.00000000000E+00 0. -1.
         23    2    1    2    0    0  0.36529660986E+02 -0.18320208724E+03  0.54276752832E+02  0.21473085857E+03  0.90917296603E+02 0.  0.
         13    1    3    3    0    0  0.12661091836E+02 -0.10211409248E+03 -0.16840877852E+02  0.10426507707E+03  0.00000000000E+00 0.  1.
        -13    1    3    3    0    0  0.23868569149E+02 -0.81087994761E+02  0.71117630684E+02  0.11046578150E+03  0.00000000000E+00 0. -1.
         22    1    1    2    0    0 -0.36529660986E+02  0.18320208724E+03  0.75575395152E+02  0.20151690067E+03  0.00000000000E+00 0.  1.
<mgrwt>
<rscale>  0 0.39547518E+03</rscale>
<asrwt>0</asrwt>
<pdfrwt beam="1">  1        2 0.22030432E-01 0.39547518E+03</pdfrwt>
<pdfrwt beam="2">  1       -2 0.42007685E-01 0.39547518E+03</pdfrwt>
<totfact> 0.13557100E+03</totfact>
</mgrwt>
</event>
<event>
 6    1  0.1773638E-005  0.1556091E+04  0.7818608E-02  0.8847987E-01
         -1   -1    0    0    0  501 -0.00000000000E+00  0.00000000000E+00  0.13399241426E+04  0.13399241426E+04  0.00000000000E+00 0. -1.
          1   -1    0    0  501    0  0.00000000000E+00 -0.00000000000E+00 -0.45178282754E+03  0.45178282754E+03  0.00000000000E+00 0.  1.
         23    2    1    2    0    0 -0.16844640648E+03 -0.10508107690E+03  0.13086099448E+04  0.13267229993E+04  0.91201452051E+02 0.  0.
         11    1    3    3    0    0 -0.90983893477E+02 -0.20964848145E+02  0.79925023315E+03  0.80468536020E+03  0.00000000000E+00 0.  1.
        -11    1    3    3    0    0 -0.77462513002E+02 -0.84116228751E+02  0.50935971162E+03  0.52203763914E+03  0.00000000000E+00 0. -1.
         22    1    1    2    0    0  0.16844640648E+03  0.10508107690E+03 -0.42046862968E+03  0.46498397082E+03  0.00000000000E+00 0.  1.
<mgrwt>
<rscale>  0 0.15560909E+04</rscale>
<asrwt>0</asrwt>
<pdfrwt beam="1">  1        1 0.69505051E-01 0.15560909E+04</pdfrwt>
<pdfrwt beam="2">  1       -1 0.20614217E+00 0.15560909E+04</pdfrwt>
<totfact> 0.66971406E+00</totfact>
</mgrwt>
</event>
<event>
 6    1  0.3897702E-005  0.4007627E+04  0.7818608E-02  0.8003010E-01
          1   -1    0    0  501    0  0.00000000000E+00  0.00000000000E+00  0.21424415092E+04  0.21424415092E+04  0.00000000000E+00 0.  1.
         -1   -1    0    0    0  501 -0.00000000000E+00 -0.00000000000E+00 -0.18741550703E+04  0.18741550703E+04  0.00000000000E+00 0. -1.
         23    2    1    2    0    0 -0.29338558094E+03 -0.79674111829E+03 -0.16835827347E+04  0.18880607496E+04  0.97216568721E+02 0.  0.
         11    1    3    3    0    0 -0.19500784458E+03 -0.45786283549E+03 -0.89316648516E+03  0.10224543050E+04  0.00000000000E+00 0. -1.
        -11    1    3    3    0    0 -0.98377736359E+02 -0.33887828280E+03 -0.79041624950E+03  0.86560644466E+03  0.00000000000E+00 0.  1.
         22    1    1    2    0    0  0.29338558094E+03  0.79674111829E+03  0.19518691735E+04  0.21285358299E+04  0.00000000000E+00 0.  1.
<mgrwt>
<rscale>  0 0.40076265E+04</rscale>
<asrwt>0</asrwt>
<pdfrwt beam="1">  1        1 0.32960639E+00 0.40076265E+04</pdfrwt>
<pdfrwt beam="2">  1       -1 0.28833155E+00 0.40076265E+04</pdfrwt>
<totfact> 0.73311750E-02</totfact>
</mgrwt>
</event>
<event>
 6    1  0.1773638E-005  0.1763177E+04  0.7818608E-02  0.8726130E-01
          1   -1    0    0  501    0  0.00000000000E+00  0.00000000000E+00  0.58983787165E+03  0.58983787165E+03  0.00000000000E+00 0. -1.
         -1   -1    0    0    0  501 -0.00000000000E+00 -0.00000000000E+00 -0.13176480511E+04  0.13176480511E+04  0.00000000000E+00 0.  1.
         23    2    1    2    0    0 -0.57303702208E+03  0.64272373923E+03 -0.17236694360E+03  0.88279942342E+03  0.90328429061E+02 0.  0.
         11    1    3    3    0    0 -0.29602026509E+03  0.30526684270E+03 -0.12737429913E+03  0.44389194031E+03  0.00000000000E+00 0. -1.
        -11    1    3    3    0    0 -0.27701675699E+03  0.33745689653E+03 -0.44992644467E+02  0.43890748310E+03  0.00000000000E+00 0.  1.
         22    1    1    2    0    0  0.57303702208E+03 -0.64272373923E+03 -0.55544323582E+03  0.10246864993E+04  0.00000000000E+00 0.  1.
<mgrwt>
<rscale>  0 0.17631775E+04</rscale>
<asrwt>0</asrwt>
<pdfrwt beam="1">  1        1 0.90744289E-01 0.17631775E+04</pdfrwt>
<pdfrwt beam="2">  1       -1 0.20271508E+00 0.17631775E+04</pdfrwt>
<totfact> 0.47893751E+00</totfact>
</mgrwt>
</event>
<event>
 6    1  0.1773638E-005  0.3148596E+04  0.7818608E-02  0.8202526E-01
         -1   -1    0    0    0  501 -0.00000000000E+00  0.00000000000E+00  0.13991320375E+04  0.13991320375E+04  0.00000000000E+00 0.  1.
          1   -1    0    0  501    0  0.00000000000E+00 -0.00000000000E+00 -0.17713942950E+04  0.17713942950E+04  0.00000000000E+00 0. -1.
         23    2    1    2    0    0  0.89194233292E+03 -0.85128233679E+02  0.11155800277E+04  0.14337239237E+04  0.90760948114E+02 0.  0.
         13    1    3    3    0    0  0.26963385721E+03  0.29520802108E+01  0.28795553427E+03  0.39449907662E+03  0.00000000000E+00 0. -1.
        -13    1    3    3    0    0  0.62230847571E+03 -0.88080313890E+02  0.82762449341E+03  0.10392248471E+04  0.00000000000E+00 0.  1.
         22    1    1    2    0    0 -0.89194233292E+03  0.85128233679E+02 -0.14878422852E+04  0.17368024087E+04  0.00000000000E+00 0. -1.
<mgrwt>
<rscale>  0 0.31485962E+04</rscale>
<asrwt>0</asrwt>
<pdfrwt beam="1">  1        1 0.27252220E+00 0.31485962E+04</pdfrwt>
<pdfrwt beam="2">  1       -1 0.21525108E+00 0.31485962E+04</pdfrwt>
<totfact> 0.42413088E-01</totfact>
</mgrwt>
</event>
<event>
 6    1  0.1773638E-005  0.4793299E+04  0.7818608E-02  0.7861209E-01
          1   -1    0    0  501    0  0.00000000000E+00  0.00000000000E+00  0.31693981822E+04  0.31693981822E+04  0.00000000000E+00 0. -1.
         -1   -1    0    0    0  501 -0.00000000000E+00 -0.00000000000E+00 -0.18123091785E+04  0.18123091785E+04  0.00000000000E+00 0.  1.
         23    2    1    2    0    0 -0.53888182219E+03 -0.49564897352E+03 -0.16918846806E+04  0.18460571809E+04  0.96911399697E+02 0.  0.
         11    1    3    3    0    0 -0.20814119801E+03 -0.21818698097E+03 -0.58932483045E+03  0.66199099145E+03  0.00000000000E+00 0. -1.
        -11    1    3    3    0    0 -0.33074062418E+03 -0.27746199255E+03 -0.11025598501E+04  0.11840661894E+04  0.00000000000E+00 0.  1.
         22    1    1    2    0    0  0.53888182219E+03  0.49564897352E+03  0.30489736843E+04  0.31356501799E+04  0.00000000000E+00 0. -1.
<mgrwt>
<rscale>  0 0.47932992E+04</rscale>
<asrwt>0</asrwt>
<pdfrwt beam="1">  1        1 0.48759972E+00 0.47932992E+04</pdfrwt>
<pdfrwt beam="2">  1       -1 0.27881680E+00 0.47932992E+04</pdfrwt>
<totfact> 0.14890951E-02</totfact>
</mgrwt>
</event>
<event>
 6    1  0.1773638E-005  0.2557979E+04  0.7818608E-02  0.8382617E-01
         -2   -1    0    0    0  501 -0.00000000000E+00  0.00000000000E+00  0.19448873398E+04  0.19448873398E+04  0.00000000000E+00 0. -1.
          2   -1    0    0  501    0  0.00000000000E+00 -0.00000000000E+00 -0.84108419549E+03  0.84108419549E+03  0.00000000000E+00 0.  1.
         23    2    1    2    0    0 -0.97551522325E+02 -0.51920760162E+03 -0.71408338894E+03  0.89287769693E+03  0.90678896274E+02 0.  0.
         13    1    3    3    0    0 -0.10666237225E+03 -0.39989125101E+03 -0.58798173047E+03  0.71903573601E+03  0.00000000000E+00 0. -1.
        -13    1    3    3    0    0  0.91108499267E+01 -0.11931635061E+03 -0.12610165847E+03  0.17384196092E+03  0.00000000000E+00 0.  1.
         22    1    1    2    0    0  0.97551522325E+02  0.51920760162E+03  0.18178865332E+04  0.18930938384E+04  0.00000000000E+00 0. -1.
<mgrwt>
<rscale>  0 0.25579789E+04</rscale>
<asrwt>0</asrwt>
<pdfrwt beam="1">  1        2 0.12939757E+00 0.25579789E+04</pdfrwt>
<pdfrwt beam="2">  1       -2 0.29921343E+00 0.25579789E+04</pdfrwt>
<totfact> 0.91863841E-01</totfact>
</mgrwt>
</event>
<event>
 6    1  0.1773638E-005  0.1882033E+04  0.7818608E-02  0.8663852E-01
         -1   -1    0    0    0  501 -0.00000000000E+00  0.00000000000E+00  0.34009811060E+03  0.34009811060E+03  0.00000000000E+00 0.  1.
          1   -1    0    0  501    0  0.00000000000E+00 -0.00000000000E+00 -0.26036961333E+04  0.26036961333E+04  0.00000000000E+00 0. -1.
         23    2    1    2    0    0 -0.20164276144E+03  0.70400910932E+03 -0.21538695899E+03  0.76860294410E+03  0.89834928228E+02 0.  0.
         11    1    3    3    0    0 -0.12697481748E+03  0.42231220155E+03 -0.17478748474E+03  0.47436364181E+03  0.00000000000E+00 0. -1.
        -11    1    3    3    0    0 -0.74667943965E+02  0.28169690776E+03 -0.40599474259E+02  0.29423930229E+03  0.00000000000E+00 0.  1.
         22    1    1    2    0    0  0.20164276144E+03 -0.70400910932E+03 -0.20482110637E+04  0.21751912998E+04  0.00000000000E+00 0. -1.
<mgrwt>
<rscale>  0 0.18820331E+04</rscale>
<asrwt>0</asrwt>
<pdfrwt beam="1">  1        1 0.40056863E+00 0.18820331E+04</pdfrwt>
<pdfrwt beam="2">  1       -1 0.52322787E-01 0.18820331E+04</pdfrwt>
<totfact> 0.39589995E+00</totfact>
</mgrwt>
</event>
<event>
 6    1  0.1773638E-005  0.1603474E+04  0.7818608E-02  0.8818417E-01
         -2   -1    0    0    0  501 -0.00000000000E+00  0.00000000000E+00  0.20835346370E+03  0.20835346370E+03  0.00000000000E+00 0.  1.
          2   -1    0    0  501    0  0.00000000000E+00 -0.00000000000E+00 -0.30850553035E+04  0.30850553035E+04  0.00000000000E+00 0. -1.
         23    2    1    2    0    0 -0.30695508980E+03  0.39889521991E+03 -0.27179409842E+04  0.27656362472E+04  0.90563980188E+02 0.  0.
         13    1    3    3    0    0 -0.60582229566E+02  0.48521632094E+02 -0.58379736891E+03  0.58893456620E+03  0.00000000000E+00 0. -1.
        -13    1    3    3    0    0 -0.24637286024E+03  0.35037358782E+03 -0.21341436153E+04  0.21767016810E+04  0.00000000000E+00 0.  1.
         22    1    1    2    0    0  0.30695508980E+03 -0.39889521991E+03 -0.15876085560E+03  0.52777252003E+03  0.00000000000E+00 0.  1.
<mgrwt>
<rscale>  0 0.16034737E+04</rscale>
<asrwt>0</asrwt>
<pdfrwt beam="1">  1        2 0.47462388E+00 0.16034737E+04</pdfrwt>
<pdfrwt beam="2">  1       -2 0.32054380E-01 0.16034737E+04</pdfrwt>
<totfact> 0.13444449E+01</totfact>
</mgrwt>
</event>
<event>
 6    1  0.1773638E-005  0.3668699E+04  0.7818608E-02  0.8074934E-01
         -2   -1    0    0    0  501 -0.00000000000E+00  0.00000000000E+00  0.18428552796E+04  0.18428552796E+04  0.00000000000E+00 0.  1.
          2   -1    0    0  501    0  0.00000000000E+00 -0.00000000000E+00 -0.18258826496E+04  0.18258826496E+04  0.00000000000E+00 0. -1.
         23    2    1    2    0    0 -0.15896284253E+04 -0.61516014349E+03  0.68347674443E+03  0.18385553517E+04  0.88344715188E+02 0.  0.
         13    1    3    3    0    0 -0.62609534289E+03 -0.28601598043E+03  0.25990253682E+03  0.73576480488E+03  0.00000000000E+00 0.  1.
        -13    1    3    3    0    0 -0.96353308237E+03 -0.32914416306E+03  0.42357420761E+03  0.11027905469E+04  0.00000000000E+00 0. -1.
         22    1    1    2    0    0  0.15896284253E+04  0.61516014349E+03 -0.66650411440E+03  0.18301825775E+04  0.00000000000E+00 0. -1.
<mgrwt>
<rscale>  0 0.36686987E+04</rscale>
<asrwt>0</asrwt>
<pdfrwt beam="1">  1        2 0.28090502E+00 0.36686987E+04</pdfrwt>
<pdfrwt beam="2">  1       -2 0.28351620E+00 0.36686987E+04</pdfrwt>
<totfact> 0.27119739E-01</totfact>
</mgrwt>
</event>
<event>
 6    1  0.1773638E-005  0.2370617E+04  0.7818608E-02  0.8450587E-01
         -2   -1    0    0    0  501 -0.00000000000E+00  0.00000000000E+00  0.78507495898E+03  0.78507495898E+03  0.00000000000E+00 0.  1.
          2   -1    0    0  501    0  0.00000000000E+00 -0.00000000000E+00 -0.17895825506E+04  0.17895825506E+04  0.00000000000E+00 0. -1.
         23    2    1    2    0    0 -0.18831606936E+03  0.51845807771E+03  0.63481117756E+03  0.84502525176E+03  0.82587678448E+02 0.  0.
         11    1    3    3    0    0 -0.11724617766E+03  0.32768955701E+03  0.45908378171E+03  0.57609463683E+03  0.00000000000E+00 0. -1.
        -11    1    3    3    0    0 -0.71069891702E+02  0.19076852069E+03  0.17572739585E+03  0.26893061493E+03  0.00000000000E+00 0.  1.
         22    1    1    2    0    0  0.18831606936E+03 -0.51845807771E+03 -0.16393187692E+04  0.17296322578E+04  0.00000000000E+00 0. -1.
<mgrwt>
<rscale>  0 0.23706172E+04</rscale>
<asrwt>0</asrwt>
<pdfrwt beam="1">  1        2 0.27532039E+00 0.23706172E+04</pdfrwt>
<pdfrwt beam="2">  1       -2 0.12078076E+00 0.23706172E+04</pdfrwt>
<totfact> 0.41188095E+00</totfact>
</mgrwt>
</event>
<event>
 6    1  0.1773638E-005  0.2329984E+04  0.7818608E-02  0.8466192E-01
         -2   -1    0    0    0  501 -0.00000000000E+00  0.00000000000E+00  0.15115121837E+04  0.15115121837E+04  0.00000000000E+00 0. -1.
          2   -1    0    0  501    0  0.00000000000E+00 -0.00000000000E+00 -0.89791300653E+03  0.89791300653E+03  0.00000000000E+00 0.  1.
         23    2    1    2    0    0 -0.90750925170E+03 -0.94562984797E+02 -0.43874450779E+03  0.10166070286E+04  0.92075553405E+02 0.  0.
         13    1    3    3    0    0 -0.23711860790E+03 -0.40926306894E+02 -0.75187559725E+02  0.25209792927E+03  0.00000000000E+00 0. -1.
        -13    1    3    3    0    0 -0.67039064380E+03 -0.53636677903E+02 -0.36355694807E+03  0.76450909936E+03  0.00000000000E+00 0.  1.
         22    1    1    2    0    0  0.90750925170E+03  0.94562984797E+02  0.10523436850E+04  0.13928181616E+04  0.00000000000E+00 0. -1.
<mgrwt>
<rscale>  0 0.23299841E+04</rscale>
<asrwt>0</asrwt>
<pdfrwt beam="1">  1        2 0.13814046E+00 0.23299841E+04</pdfrwt>
<pdfrwt beam="2">  1       -2 0.23254034E+00 0.23299841E+04</pdfrwt>
<totfact> 0.21924346E+00</totfact>
</mgrwt>
</event>
<event>
 6    1  0.1773638E-005  0.1278500E+04  0.7818608E-02  0.9046791E-01
          2   -1    0    0  501    0  0.00000000000E+00  0.00000000000E+00  0.34459315522E+04  0.34459315522E+04  0.00000000000E+00 0. -1.
         -2   -1    0    0    0  501 -0.00000000000E+00 -0.00000000000E+00 -0.11858629667E+03  0.11858629667E+03  0.00000000000E+00 0.  1.
         23    2    1    2    0    0 -0.48176024913E+03  0.38309490696E+03  0.21189913491E+04  0.22084301642E+04  0.90469923652E+02 0.  0.
         11    1    3    3    0    0 -0.42092785418E+03  0.29688575921E+03  0.16972525126E+04  0.17736931820E+04  0.00000000000E+00 0. -1.
        -11    1    3    3    0    0 -0.60832394951E+02  0.86209147754E+02  0.42173883654E+03  0.43473698218E+03  0.00000000000E+00 0.  1.
         22    1    1    2    0    0  0.48176024913E+03 -0.38309490696E+03  0.12083539064E+04  0.13560876847E+04  0.00000000000E+00 0.  1.
<mgrwt>
<rscale>  0 0.12784995E+04</rscale>
<asrwt>0</asrwt>
<pdfrwt beam="1">  1        2 0.53014324E+00 0.12784995E+04</pdfrwt>
<pdfrwt beam="2">  1       -2 0.18244048E-01 0.12784995E+04</pdfrwt>
<totfact> 0.22297610E+01</totfact>
</mgrwt>
</event>
<event>
 6    1  0.1773638E-005  0.1490783E+04  0.7818608E-02  0.8890606E-01
          2   -1    0    0  501    0  0.00000000000E+00  0.00000000000E+00  0.53020180310E+03  0.53020180310E+03  0.00000000000E+00 0. -1.
         -2   -1    0    0    0  501 -0.00000000000E+00 -0.00000000000E+00 -0.10479182995E+04  0.10479182995E+04  0.00000000000E+00 0.  1.
         23    2    1    2    0    0 -0.68849799124E+03  0.78988148300E+02  0.22845126654E+02  0.69921426020E+03  0.90055929015E+02 0.  0.
         13    1    3    3    0    0 -0.35139415270E+03  0.27052300142E+02  0.54680827733E+02  0.35665062795E+03  0.00000000000E+00 0.  1.
        -13    1    3    3    0    0 -0.33710383853E+03  0.51935848158E+02 -0.31835701079E+02  0.34256363225E+03  0.00000000000E+00 0. -1.
         22    1    1    2    0    0  0.68849799124E+03 -0.78988148300E+02 -0.54056162310E+03  0.87890584244E+03  0.00000000000E+00 0. -1.
<mgrwt>
<rscale>  0 0.14907826E+04</rscale>
<asrwt>0</asrwt>
<pdfrwt beam="1">  1        2 0.81569509E-01 0.14907826E+04</pdfrwt>
<pdfrwt beam="2">  1       -2 0.16121820E+00 0.14907826E+04</pdfrwt>
<totfact> 0.13701470E+01</totfact>
</mgrwt>
</event>
<event>
 6    1  0.1773638E-005  0.3188458E+04  0.7818608E-02  0.8191872E-01
         -1   -1    0    0    0  501 -0.00000000000E+00  0.00000000000E+00  0.13472702287E+04  0.13472702287E+04  0.00000000000E+00 0.  1.
          1   -1    0    0  501    0  0.00000000000E+00 -0.00000000000E+00 -0.18864564859E+04  0.18864564859E+04  0.00000000000E+00 0. -1.
         23    2    1    2    0    0 -0.11185824500E+04 -0.10665141272E+04 -0.66101037527E+03  0.16833976537E+04  0.90630367120E+02 0.  0.
         13    1    3    3    0    0 -0.61174993806E+03 -0.55135124425E+03 -0.39427513216E+03  0.91306027243E+03  0.00000000000E+00 0. -1.
        -13    1    3    3    0    0 -0.50683251196E+03 -0.51516288294E+03 -0.26673524311E+03  0.77033738132E+03  0.00000000000E+00 0.  1.
         22    1    1    2    0    0  0.11185824500E+04  0.10665141272E+04  0.12182411809E+03  0.15503290608E+04  0.00000000000E+00 0.  1.
<mgrwt>
<rscale>  0 0.31884583E+04</rscale>
<asrwt>0</asrwt>
<pdfrwt beam="1">  1        1 0.29022407E+00 0.31884583E+04</pdfrwt>
<pdfrwt beam="2">  1       -1 0.20727234E+00 0.31884583E+04</pdfrwt>
<totfact> 0.39989416E-01</totfact>
</mgrwt>
</event>
<event>
 6    1  0.1773638E-005  0.5708625E+04  0.7818608E-02  0.7727617E-01
         -1   -1    0    0    0  501 -0.00000000000E+00  0.00000000000E+00  0.25390413183E+04  0.25390413183E+04  0.00000000000E+00 0.  1.
          1   -1    0    0  501    0  0.00000000000E+00 -0.00000000000E+00 -0.32087312643E+04  0.32087312643E+04  0.00000000000E+00 0. -1.
         23    2    1    2    0    0 -0.21893374810E+04 -0.10802016315E+04  0.11526871176E+04  0.27012840576E+04  0.90630007520E+02 0.  0.
         13    1    3    3    0    0 -0.66078974331E+03 -0.37183056751E+03  0.36706612987E+03  0.84240049827E+03  0.00000000000E+00 0. -1.
        -13    1    3    3    0    0 -0.15285477377E+04 -0.70837106401E+03  0.78562098768E+03  0.18588835593E+04  0.00000000000E+00 0.  1.
         22    1    1    2    0    0  0.21893374810E+04  0.10802016315E+04 -0.18223770636E+04  0.30464885249E+04  0.00000000000E+00 0. -1.
<mgrwt>
<rscale>  0 0.57086255E+04</rscale>
<asrwt>0</asrwt>
<pdfrwt beam="1">  1        1 0.49365096E+00 0.57086255E+04</pdfrwt>
<pdfrwt beam="2">  1       -1 0.39062174E+00 0.57086255E+04</pdfrwt>
<totfact> 0.23708591E-03</totfact>
</mgrwt>
</event>
<event>
 6    1  0.1773638E-005  0.2040063E+04  0.7818608E-02  0.8588116E-01
         -2   -1    0    0    0  501 -0.00000000000E+00  0.00000000000E+00  0.45338703490E+03  0.45338703490E+03  0.00000000000E+00 0. -1.
          2   -1    0    0  501    0  0.00000000000E+00 -0.00000000000E+00 -0.22948702176E+04  0.22948702176E+04  0.00000000000E+00 0.  1.
         23    2    1    2    0    0  0.10152882031E+04 -0.66797138964E+02 -0.87825267992E+03  0.13471559019E+04  0.90715276133E+02 0.  0.
         13    1    3    3    0    0  0.26293069945E+03 -0.25329288109E+02 -0.28099271700E+03  0.38565662520E+03  0.00000000000E+00 0.  1.
        -13    1    3    3    0    0  0.75235750361E+03 -0.41467850856E+02 -0.59725996292E+03  0.96149927675E+03  0.00000000000E+00 0. -1.
         22    1    1    2    0    0 -0.10152882031E+04  0.66797138964E+02 -0.96323050284E+03  0.14011013506E+04  0.00000000000E+00 0.  1.
<mgrwt>
<rscale>  0 0.20400631E+04</rscale>
<asrwt>0</asrwt>
<pdfrwt beam="1">  1        2 0.35305696E+00 0.20400631E+04</pdfrwt>
<pdfrwt beam="2">  1       -2 0.69751851E-01 0.20400631E+04</pdfrwt>
<totfact> 0.79188386E+00</totfact>
</mgrwt>
</event>
<event>
 6    1  0.1773638E-005  0.1124757E+04  0.7818608E-02  0.9181392E-01
         -2   -1    0    0    0  501 -0.00000000000E+00  0.00000000000E+00  0.40652749046E+03  0.40652749046E+03  0.00000000000E+00 0.  1.
          2   -1    0    0  501    0  0.00000000000E+00 -0.00000000000E+00 -0.77797850388E+03  0.77797850388E+03  0.00000000000E+00 0. -1.
         23    2    1    2    0    0  0.23978809982E+03  0.43151865359E+02  0.34259501684E+03  0.43003787066E+03  0.90558314564E+02 0.  0.
         13    1    3    3    0    0  0.14195719726E+03 -0.29925294617E+01  0.13484993286E+03  0.19581957379E+03  0.00000000000E+00 0. -1.
        -13    1    3    3    0    0  0.97830902555E+02  0.46144394821E+02  0.20774508399E+03  0.23421829687E+03  0.00000000000E+00 0.  1.
         22    1    1    2    0    0 -0.23978809982E+03 -0.43151865359E+02 -0.71404603027E+03  0.75446812368E+03  0.00000000000E+00 0. -1.
<mgrwt>
<rscale>  0 0.11247571E+04</rscale>
<asrwt>0</asrwt>
<pdfrwt beam="1">  1        2 0.11968900E+00 0.11247571E+04</pdfrwt>
<pdfrwt beam="2">  1       -2 0.62542692E-01 0.11247571E+04</pdfrwt>
<totfact> 0.84062814E+01</totfact>
</mgrwt>
</event>
<event>
 6    1  0.1773638E-005  0.1082080E+04  0.7818608E-02  0.9222836E-01
          2   -1    0    0  501    0  0.00000000000E+00  0.00000000000E+00  0.29735969163E+04  0.29735969163E+04  0.00000000000E+00 0.  1.
         -2   -1    0    0    0  501 -0.00000000000E+00 -0.00000000000E+00 -0.98441078754E+02  0.98441078754E+02  0.00000000000E+00 0. -1.
         23    2    1    2    0    0 -0.18931041247E+03 -0.28513295228E+03  0.26234022248E+04  0.26471625847E+04  0.89951566402E+02 0.  0.
         13    1    3    3    0    0 -0.85149865530E+02 -0.79576510367E+02  0.65162624092E+03  0.66196652367E+03  0.00000000000E+00 0. -1.
        -13    1    3    3    0    0 -0.10416054694E+03 -0.20555644192E+03  0.19717759838E+04  0.19851960610E+04  0.00000000000E+00 0.  1.
         22    1    1    2    0    0  0.18931041247E+03  0.28513295228E+03  0.25175361276E+03  0.42487541031E+03  0.00000000000E+00 0. -1.
<mgrwt>
<rscale>  0 0.10820796E+04</rscale>
<asrwt>0</asrwt>
<pdfrwt beam="1">  1        2 0.45747638E+00 0.10820796E+04</pdfrwt>
<pdfrwt beam="2">  1       -2 0.15144784E-01 0.10820796E+04</pdfrwt>
<totfact> 0.63297393E+01</totfact>
</mgrwt>
</event>
<event>
 6    1  0.1773638E-005  0.1911446E+04  0.7818608E-02  0.8649180E-01
          2   -1    0    0  501    0  0.00000000000E+00  0.00000000000E+00  0.15756148665E+04  0.15756148665E+04  0.00000000000E+00 0. -1.
         -2   -1    0    0    0  501 -0.00000000000E+00 -0.00000000000E+00 -0.57971423683E+03  0.57971423683E+03  0.00000000000E+00 0.  1.
         23    2    1    2    0    0 -0.83888549923E+03  0.15329923213E+03  0.18094124596E+02  0.85789506002E+03  0.91798699715E+02 0.  0.
         13    1    3    3    0    0 -0.25288187926E+02  0.44668065019E+01 -0.15713967897E+02  0.30106039194E+02  0.00000000000E+00 0.  1.
        -13    1    3    3    0    0 -0.81359731130E+03  0.14883242563E+03  0.33808092493E+02  0.82778902082E+03  0.00000000000E+00 0. -1.
         22    1    1    2    0    0  0.83888549923E+03 -0.15329923213E+03  0.97780650503E+03  0.12974340433E+04  0.00000000000E+00 0.  1.
<mgrwt>
<rscale>  0 0.19114459E+04</rscale>
<asrwt>0</asrwt>
<pdfrwt beam="1">  1        2 0.24240229E+00 0.19114459E+04</pdfrwt>
<pdfrwt beam="2">  1       -2 0.89186806E-01 0.19114459E+04</pdfrwt>
<totfact> 0.11621391E+01</totfact>
</mgrwt>
</event>
<event>
 6    1  0.1773638E-005  0.7449087E+03  0.7818608E-02  0.9643372E-01
         -1   -1    0    0    0  501 -0.00000000000E+00  0.00000000000E+00  0.29631324663E+03  0.29631324663E+03  0.00000000000E+00 0.  1.
          1   -1    0    0  501    0  0.00000000000E+00 -0.00000000000E+00 -0.46816079706E+03  0.46816079706E+03  0.00000000000E+00 0. -1.
         23    2    1    2    0    0 -0.29492206031E+03 -0.17432703844E+03  0.47730007408E+02  0.35755483562E+03  0.90544844556E+02 0.  0.
         11    1    3    3    0    0 -0.28573250474E+03 -0.14098811958E+03  0.51534786038E+02  0.32276392039E+03  0.00000000000E+00 0. -1.
        -11    1    3    3    0    0 -0.91895555682E+01 -0.33338918860E+02 -0.38047786296E+01  0.34790915232E+02  0.00000000000E+00 0.  1.
         22    1    1    2    0    0  0.29492206031E+03  0.17432703844E+03 -0.21957755783E+03  0.40691920807E+03  0.00000000000E+00 0. -1.
<mgrwt>
<rscale>  0 0.74490871E+03</rscale>
<asrwt>0</asrwt>
<pdfrwt beam="1">  1        1 0.72024738E-01 0.74490871E+03</pdfrwt>
<pdfrwt beam="2">  1       -1 0.45586653E-01 0.74490871E+03</pdfrwt>
<totfact> 0.23484559E+02</totfact>
</mgrwt>
</event>
<event>
 6    1  0.1773638E-005  0.7811994E+03  0.7818608E-02  0.9587636E-01
         -1   -1    0    0    0  501 -0.00000000000E+00  0.00000000000E+00  0.17494427063E+03  0.17494427063E+03  0.00000000000E+00 0.  1.
          1   -1    0    0  501    0  0.00000000000E+00 -0.00000000000E+00 -0.87209560123E+03  0.87209560123E+03  0.00000000000E+00 0. -1.
         23    2    1    2    0    0  0.28341569267E+03  0.81718662193E+02 -0.68780476223E+03  0.75193014152E+03  0.72946227963E+02 0.  0.
         11    1    3    3    0    0  0.14870547901E+02  0.15376344898E+02 -0.20780589963E+02  0.29822778149E+02  0.00000000000E+00 0.  1.
        -11    1    3    3    0    0  0.26854514477E+03  0.66342317295E+02 -0.66702417226E+03  0.72210736337E+03  0.00000000000E+00 0. -1.
         22    1    1    2    0    0 -0.28341569267E+03 -0.81718662193E+02 -0.93465683749E+01  0.29510973035E+03  0.00000000000E+00 0.  1.
<mgrwt>
<rscale>  0 0.78119941E+03</rscale>
<asrwt>0</asrwt>
<pdfrwt beam="1">  1        1 0.13416856E+00 0.78119941E+03</pdfrwt>
<pdfrwt beam="2">  1       -1 0.26914503E-01 0.78119941E+03</pdfrwt>
<totfact> 0.23904286E+02</totfact>
</mgrwt>
</event>
<event>
 6    1  0.1773638E-005  0.3671023E+04  0.7818608E-02  0.8074414E-01
         -2   -1    0    0    0  501 -0.00000000000E+00  0.00000000000E+00  0.23435181192E+04  0.23435181192E+04  0.00000000000E+00 0.  1.
          2   -1    0    0  501    0  0.00000000000E+00 -0.00000000000E+00 -0.14376255884E+04  0.14376255884E+04  0.00000000000E+00 0. -1.
         23    2    1    2    0    0  0.13846991394E+04  0.39946579935E+03  0.16221734538E+04  0.21717888703E+04  0.90860065497E+02 0.  0.
         13    1    3    3    0    0  0.40181331689E+03  0.15864703744E+03  0.49534215819E+03  0.65725693438E+03  0.00000000000E+00 0. -1.
        -13    1    3    3    0    0  0.98288582252E+03  0.24081876191E+03  0.11268312956E+04  0.15145319359E+04  0.00000000000E+00 0.  1.
         22    1    1    2    0    0 -0.13846991394E+04 -0.39946579935E+03 -0.71628092300E+03  0.16093548373E+04  0.00000000000E+00 0. -1.
<mgrwt>
<rscale>  0 0.36710225E+04</rscale>
<asrwt>0</asrwt>
<pdfrwt beam="1">  1        2 0.22117317E+00 0.36710225E+04</pdfrwt>
<pdfrwt beam="2">  1       -2 0.36054125E+00 0.36710225E+04</pdfrwt>
<totfact> 0.14881119E-01</totfact>
</mgrwt>
</event>
<event>
 6    1  0.1773638E-005  0.2016068E+04  0.7818608E-02  0.8599145E-01
          3   -1    0    0  501    0  0.00000000000E+00  0.00000000000E+00  0.10853807791E+04  0.10853807791E+04  0.00000000000E+00 0. -1.
         -3   -1    0    0    0  501 -0.00000000000E+00 -0.00000000000E+00 -0.93619931382E+03  0.93619931382E+03  0.00000000000E+00 0.  1.
         23    2    1    2    0    0  0.30328671225E+03  0.11527260184E+03 -0.88009084738E+03  0.94238034488E+03  0.90830678826E+02 0.  0.
         11    1    3    3    0    0  0.12837893913E+03  0.83027801417E+02 -0.31841204329E+03  0.35321522777E+03  0.00000000000E+00 0. -1.
        -11    1    3    3    0    0  0.17490777312E+03  0.32244800426E+02 -0.56167880409E+03  0.58916511711E+03  0.00000000000E+00 0.  1.
         22    1    1    2    0    0 -0.30328671225E+03 -0.11527260184E+03  0.10292723126E+04  0.10791997480E+04  0.00000000000E+00 0. -1.
<mgrwt>
<rscale>  0 0.20160682E+04</rscale>
<asrwt>0</asrwt>
<pdfrwt beam="1">  1        3 0.16698166E+00 0.20160682E+04</pdfrwt>
<pdfrwt beam="2">  1       -3 0.14403066E+00 0.20160682E+04</pdfrwt>
<totfact> 0.21164641E-01</totfact>
</mgrwt>
</event>
<event>
 6    1  0.1773638E-005  0.7162953E+03  0.7818608E-02  0.9689764E-01
         -1   -1    0    0    0  501 -0.00000000000E+00  0.00000000000E+00  0.63406043863E+02  0.63406043863E+02  0.00000000000E+00 0.  1.
          1   -1    0    0  501    0  0.00000000000E+00 -0.00000000000E+00 -0.20229894265E+04  0.20229894265E+04  0.00000000000E+00 0. -1.
         23    2    1    2    0    0 -0.22350089512E+03 -0.22304167422E+03 -0.14510057114E+04  0.14877708081E+04  0.91346398031E+02 0.  0.
         11    1    3    3    0    0 -0.12572192719E+03 -0.81479880222E+02 -0.52687042478E+03  0.54775671457E+03  0.00000000000E+00 0.  1.
        -11    1    3    3    0    0 -0.97778967931E+02 -0.14156179400E+03 -0.92413528662E+03  0.94001409354E+03  0.00000000000E+00 0. -1.
         22    1    1    2    0    0  0.22350089512E+03  0.22304167422E+03 -0.50857767125E+03  0.59862466225E+03  0.00000000000E+00 0. -1.
<mgrwt>
<rscale>  0 0.71629535E+03</rscale>
<asrwt>0</asrwt>
<pdfrwt beam="1">  1        1 0.31122908E+00 0.71629535E+03</pdfrwt>
<pdfrwt beam="2">  1       -1 0.97547781E-02 0.71629535E+03</pdfrwt>
<totfact> 0.19486750E+02</totfact>
</mgrwt>
</event>
<event>
 6    1  0.1910465E-005  0.4066750E+04  0.7818608E-02  0.7991215E-01
         -2   -1    0    0    0  501 -0.00000000000E+00  0.00000000000E+00  0.12707532403E+04  0.12707532403E+04  0.00000000000E+00 0.  1.
          2   -1    0    0  501    0  0.00000000000E+00 -0.00000000000E+00 -0.32536711448E+04  0.32536711448E+04  0.00000000000E+00 0. -1.
         23    2    1    2    0    0  0.80251016451E+02  0.12124035517E+04 -0.28044480439E+04  0.30577020639E+04  0.90832168354E+02 0.  0.
         11    1    3    3    0    0  0.55200460515E+02  0.39896262121E+03 -0.10093136732E+04  0.10867071155E+04  0.00000000000E+00 0.  1.
        -11    1    3    3    0    0  0.25050555937E+02  0.81344093046E+03 -0.17951343707E+04  0.19709949484E+04  0.00000000000E+00 0. -1.
         22    1    1    2    0    0 -0.80251016451E+02 -0.12124035517E+04  0.82153013936E+03  0.14667223212E+04  0.00000000000E+00 0.  1.
<mgrwt>
<rscale>  0 0.40667496E+04</rscale>
<asrwt>0</asrwt>
<pdfrwt beam="1">  1        2 0.50056478E+00 0.40667496E+04</pdfrwt>
<pdfrwt beam="2">  1       -2 0.19550050E+00 0.40667496E+04</pdfrwt>
<totfact> 0.13346408E-01</totfact>
</mgrwt>
</event>
<event>
 6    1  0.1773638E-005  0.3039247E+04  0.7818608E-02  0.8232612E-01
         -1   -1    0    0    0  501 -0.00000000000E+00  0.00000000000E+00  0.93255454500E+03  0.93255454500E+03  0.00000000000E+00 0.  1.
          1   -1    0    0  501    0  0.00000000000E+00 -0.00000000000E+00 -0.24762682652E+04  0.24762682652E+04  0.00000000000E+00 0. -1.
         23    2    1    2    0    0  0.54503906895E+03 -0.10031058923E+03  0.81292955217E+03  0.98789379138E+03  0.89162129064E+02 0.  0.
         13    1    3    3    0    0  0.41594230751E+03 -0.10910120794E+03  0.58901614201E+03  0.72928121620E+03  0.00000000000E+00 0.  1.
        -13    1    3    3    0    0  0.12909676144E+03  0.87906187157E+01  0.22391341016E+03  0.25861257517E+03  0.00000000000E+00 0. -1.
         22    1    1    2    0    0 -0.54503906895E+03  0.10031058923E+03 -0.23566432724E+04  0.24209290189E+04  0.00000000000E+00 0. -1.
<mgrwt>
<rscale>  0 0.30392468E+04</rscale>
<asrwt>0</asrwt>
<pdfrwt beam="1">  1        1 0.38096434E+00 0.30392468E+04</pdfrwt>
<pdfrwt beam="2">  1       -1 0.14346993E+00 0.30392468E+04</pdfrwt>
<totfact> 0.46886203E-01</totfact>
</mgrwt>
</event>
<event>
 6    1  0.1773638E-005  0.4114158E+04  0.7818608E-02  0.7981905E-01
          2   -1    0    0  501    0  0.00000000000E+00  0.00000000000E+00  0.30234626132E+04  0.30234626132E+04  0.00000000000E+00 0.  1.
         -2   -1    0    0    0  501 -0.00000000000E+00 -0.00000000000E+00 -0.13995788451E+04  0.13995788451E+04  0.00000000000E+00 0. -1.
         23    2    1    2    0    0  0.13408878189E+04 -0.14384741503E+04  0.16609876962E+03  0.19751188439E+04  0.79483472704E+02 0.  0.
         11    1    3    3    0    0  0.12943311366E+04 -0.14069726491E+04  0.15742392139E+03  0.19182407090E+04  0.00000000000E+00 0. -1.
        -11    1    3    3    0    0  0.46556682351E+02 -0.31501501166E+02  0.86748482286E+01  0.56878134982E+02  0.00000000000E+00 0.  1.
         22    1    1    2    0    0 -0.13408878189E+04  0.14384741503E+04  0.14577849985E+04  0.24479226143E+04  0.00000000000E+00 0.  1.
<mgrwt>
<rscale>  0 0.41141581E+04</rscale>
<asrwt>0</asrwt>
<pdfrwt beam="1">  1        2 0.46514809E+00 0.41141581E+04</pdfrwt>
<pdfrwt beam="2">  1       -2 0.21531982E+00 0.41141581E+04</pdfrwt>
<totfact> 0.13916396E-01</totfact>
</mgrwt>
</event>
<event>
 6    1  0.1773638E-005  0.3791081E+04  0.7818608E-02  0.8048071E-01
         -1   -1    0    0    0  501 -0.00000000000E+00  0.00000000000E+00  0.25556449376E+04  0.25556449376E+04  0.00000000000E+00 0.  1.
          1   -1    0    0  501    0  0.00000000000E+00 -0.00000000000E+00 -0.14059365626E+04  0.14059365626E+04  0.00000000000E+00 0. -1.
         23    2    1    2    0    0  0.23287248587E+03  0.18118492453E+04  0.10997766229E+04  0.21341460123E+04  0.89684442694E+02 0.  0.
         11    1    3    3    0    0  0.15205588413E+03  0.10101158405E+04  0.56953726216E+03  0.11695416607E+04  0.00000000000E+00 0. -1.
        -11    1    3    3    0    0  0.80816601736E+02  0.80173340486E+03  0.53023936075E+03  0.96460435167E+03  0.00000000000E+00 0.  1.
         22    1    1    2    0    0 -0.23287248587E+03 -0.18118492453E+04  0.49931752016E+02  0.18274354879E+04  0.00000000000E+00 0. -1.
<mgrwt>
<rscale>  0 0.37910815E+04</rscale>
<asrwt>0</asrwt>
<pdfrwt beam="1">  1        1 0.21629793E+00 0.37910815E+04</pdfrwt>
<pdfrwt beam="2">  1       -1 0.39317614E+00 0.37910815E+04</pdfrwt>
<totfact> 0.48215664E-02</totfact>
</mgrwt>
</event>
<event>
 6    1  0.1773638E-005  0.8497539E+03  0.7818608E-02  0.9490667E-01
         -2   -1    0    0    0  501 -0.00000000000E+00  0.00000000000E+00  0.14448010604E+03  0.14448010604E+03  0.00000000000E+00 0.  1.
          2   -1    0    0  501    0  0.00000000000E+00 -0.00000000000E+00 -0.12494482748E+04  0.12494482748E+04  0.00000000000E+00 0. -1.
         23    2    1    2    0    0 -0.24247854270E+03  0.84137479230E+02 -0.13312596599E+02  0.27250658361E+03  0.90596102571E+02 0.  0.
         11    1    3    3    0    0 -0.16016448342E+03  0.10143164305E+02  0.36748116672E+01  0.16052741127E+03  0.00000000000E+00 0.  1.
        -11    1    3    3    0    0 -0.82314059286E+02  0.73994314925E+02 -0.16987408266E+02  0.11197917234E+03  0.00000000000E+00 0. -1.
         22    1    1    2    0    0  0.24247854270E+03 -0.84137479230E+02 -0.10916555721E+04  0.11214217972E+04  0.00000000000E+00 0. -1.
<mgrwt>
<rscale>  0 0.84975389E+03</rscale>
<asrwt>0</asrwt>
<pdfrwt beam="1">  1        2 0.19222281E+00 0.84975389E+03</pdfrwt>
<pdfrwt beam="2">  1       -2 0.22227709E-01 0.84975389E+03</pdfrwt>
<totfact> 0.31473999E+02</totfact>
</mgrwt>
</event>
<event>
 6    1  0.1773638E-005  0.3093446E+04  0.7818608E-02  0.8217539E-01
          1   -1    0    0  501    0  0.00000000000E+00  0.00000000000E+00  0.32292637129E+04  0.32292637129E+04  0.00000000000E+00 0. -1.
         -1   -1    0    0    0  501 -0.00000000000E+00 -0.00000000000E+00 -0.74083529865E+03  0.74083529865E+03  0.00000000000E+00 0.  1.
         23    2    1    2    0    0  0.10898176299E+04  0.10887147953E+04  0.14036568524E+04  0.20860258406E+04  0.90823325318E+02 0.  0.
         11    1    3    3    0    0  0.41688118964E+03  0.47135824656E+03  0.54300335838E+03  0.83115652563E+03  0.00000000000E+00 0.  1.
        -11    1    3    3    0    0  0.67293644028E+03  0.61735654875E+03  0.86065349405E+03  0.12548693150E+04  0.00000000000E+00 0. -1.
         22    1    1    2    0    0 -0.10898176299E+04 -0.10887147953E+04  0.10847715618E+04  0.18840731709E+04  0.00000000000E+00 0.  1.
<mgrwt>
<rscale>  0 0.30934463E+04</rscale>
<asrwt>0</asrwt>
<pdfrwt beam="1">  1        1 0.49680979E+00 0.30934463E+04</pdfrwt>
<pdfrwt beam="2">  1       -1 0.11397466E+00 0.30934463E+04</pdfrwt>
<totfact> 0.23902314E-01</totfact>
</mgrwt>
</event>
<event>
 6    1  0.1773638E-005  0.2211157E+04  0.7818608E-02  0.8513799E-01
          2   -1    0    0  501    0  0.00000000000E+00  0.00000000000E+00  0.37012603490E+04  0.37012603490E+04  0.00000000000E+00 0. -1.
         -2   -1    0    0    0  501 -0.00000000000E+00 -0.00000000000E+00 -0.33023999123E+03  0.33023999123E+03  0.00000000000E+00 0.  1.
         23    2    1    2    0    0 -0.10722475218E+04 -0.23844194259E+03  0.14927337351E+04  0.18556028369E+04  0.91861725176E+02 0.  0.
         11    1    3    3    0    0 -0.41567444810E+03 -0.74770385924E+02  0.64407918646E+03  0.77020377554E+03  0.00000000000E+00 0.  1.
        -11    1    3    3    0    0 -0.65657307368E+03 -0.16367155667E+03  0.84865454860E+03  0.10853990614E+04  0.00000000000E+00 0. -1.
         22    1    1    2    0    0  0.10722475218E+04  0.23844194259E+03  0.18782866227E+04  0.21758975034E+04  0.00000000000E+00 0. -1.
<mgrwt>
<rscale>  0 0.22111573E+04</rscale>
<asrwt>0</asrwt>
<pdfrwt beam="1">  1        2 0.56942464E+00 0.22111573E+04</pdfrwt>
<pdfrwt beam="2">  1       -2 0.50806155E-01 0.22111573E+04</pdfrwt>
<totfact> 0.19571582E+00</totfact>
</mgrwt>
</event>
<event>
 6    1  0.1773638E-005  0.3158381E+03  0.7818608E-02  0.1077581E+00
         -1   -1    0    0    0  501 -0.00000000000E+00  0.00000000000E+00  0.10850999314E+03  0.10850999314E+03  0.00000000000E+00 0.  1.
          1   -1    0    0  501    0  0.00000000000E+00 -0.00000000000E+00 -0.22982611815E+03  0.22982611815E+03  0.00000000000E+00 0. -1.
         23    2    1    2    0    0  0.12486305642E+03  0.72246336320E+02 -0.79731833347E+02  0.18820427162E+03  0.90848041455E+02 0.  0.
         11    1    3    3    0    0  0.44760910632E+02  0.18087881687E+01  0.13233250853E+02  0.46711131044E+02  0.00000000000E+00 0. -1.
        -11    1    3    3    0    0  0.80102145791E+02  0.70437548151E+02 -0.92965084200E+02  0.14149314058E+03  0.00000000000E+00 0.  1.
         22    1    1    2    0    0 -0.12486305642E+03 -0.72246336320E+02 -0.41584291664E+02  0.15013183968E+03  0.00000000000E+00 0.  1.
<mgrwt>
<rscale>  0 0.31583813E+03</rscale>
<asrwt>0</asrwt>
<pdfrwt beam="1">  1        1 0.35357864E-01 0.31583813E+03</pdfrwt>
<pdfrwt beam="2">  1       -1 0.16693845E-01 0.31583813E+03</pdfrwt>
<totfact> 0.33250238E+03</totfact>
</mgrwt>
</event>
<event>
 6    1  0.1773638E-005  0.3186307E+04  0.7818608E-02  0.8192443E-01
          2   -1    0    0  501    0  0.00000000000E+00  0.00000000000E+00  0.14166556929E+04  0.14166556929E+04  0.00000000000E+00 0. -1.
         -2   -1    0    0    0  501 -0.00000000000E+00 -0.00000000000E+00 -0.17916412553E+04  0.17916412553E+04  0.00000000000E+00 0.  1.
         23    2    1    2    0    0 -0.94216041387E+03 -0.12742912411E+03  0.10978831213E+04  0.14552291839E+04  0.91870575484E+02 0.  0.
         11    1    3    3    0    0 -0.87569486357E+03 -0.12220981348E+03  0.10523795705E+04  0.13745106376E+04  0.00000000000E+00 0.  1.
        -11    1    3    3    0    0 -0.66465550297E+02 -0.52193106320E+01  0.45503550748E+02  0.80718546260E+02  0.00000000000E+00 0. -1.
         22    1    1    2    0    0  0.94216041387E+03  0.12742912411E+03 -0.14728686837E+04  0.17530677644E+04  0.00000000000E+00 0.  1.
<mgrwt>
<rscale>  0 0.31863074E+04</rscale>
<asrwt>0</asrwt>
<pdfrwt beam="1">  1        2 0.21794703E+00 0.31863074E+04</pdfrwt>
<pdfrwt beam="2">  1       -2 0.27563712E+00 0.31863074E+04</pdfrwt>
<totfact> 0.53432270E-01</totfact>
</mgrwt>
</event>
<event>
 6    1  0.1773638E-005  0.1955035E+04  0.7818608E-02  0.8627937E-01
         -1   -1    0    0    0  501 -0.00000000000E+00  0.00000000000E+00  0.87484887783E+03  0.87484887783E+03  0.00000000000E+00 0.  1.
          1   -1    0    0  501    0  0.00000000000E+00 -0.00000000000E+00 -0.10922350863E+04  0.10922350863E+04  0.00000000000E+00 0. -1.
         23    2    1    2    0    0 -0.83482501292E+03  0.42114440340E+03 -0.38828297213E+03  0.10165572077E+04  0.91265981963E+02 0.  0.
         13    1    3    3    0    0 -0.45988665484E+03  0.19107220447E+03 -0.23554519838E+03  0.55089551014E+03  0.00000000000E+00 0.  1.
        -13    1    3    3    0    0 -0.37493835809E+03  0.23007219894E+03 -0.15273777375E+03  0.46566169761E+03  0.00000000000E+00 0. -1.
         22    1    1    2    0    0  0.83482501292E+03 -0.42114440340E+03  0.17089676369E+03  0.95052675636E+03  0.00000000000E+00 0. -1.
<mgrwt>
<rscale>  0 0.19550352E+04</rscale>
<asrwt>0</asrwt>
<pdfrwt beam="1">  1        1 0.16803617E+00 0.19550352E+04</pdfrwt>
<pdfrwt beam="2">  1       -1 0.13459214E+00 0.19550352E+04</pdfrwt>
<totfact> 0.55562365E+00</totfact>
</mgrwt>
</event>
<event>
 6    1  0.1773638E-005  0.2988044E+04  0.7818608E-02  0.8247153E-01
          1   -1    0    0  501    0  0.00000000000E+00  0.00000000000E+00  0.23459430175E+04  0.23459430175E+04  0.00000000000E+00 0. -1.
         -1   -1    0    0    0  501 -0.00000000000E+00 -0.00000000000E+00 -0.95147294285E+03  0.95147294285E+03  0.00000000000E+00 0.  1.
         23    2    1    2    0    0 -0.17853539216E+03 -0.48219596314E+03  0.22441741503E+04  0.23042468663E+04  0.94064717297E+02 0.  0.
         13    1    3    3    0    0 -0.62209802975E+02 -0.82944291257E+02  0.55792283056E+03  0.56747484517E+03  0.00000000000E+00 0.  1.
        -13    1    3    3    0    0 -0.11632558918E+03 -0.39925167188E+03  0.16862513197E+04  0.17367720212E+04  0.00000000000E+00 0. -1.
         22    1    1    2    0    0  0.17853539216E+03  0.48219596314E+03 -0.84970407565E+03  0.99316909401E+03  0.00000000000E+00 0.  1.
<mgrwt>
<rscale>  0 0.29880437E+04</rscale>
<asrwt>0</asrwt>
<pdfrwt beam="1">  1        1 0.36091431E+00 0.29880437E+04</pdfrwt>
<pdfrwt beam="2">  1       -1 0.14638045E+00 0.29880437E+04</pdfrwt>
<totfact> 0.54918985E-01</totfact>
</mgrwt>
</event>
<event>
 6    1  0.1773638E-005  0.2105443E+04  0.7818608E-02  0.8558850E-01
          2   -1    0    0  501    0  0.00000000000E+00  0.00000000000E+00  0.13094513554E+04  0.13094513554E+04  0.00000000000E+00 0.  1.
         -2   -1    0    0    0  501 -0.00000000000E+00 -0.00000000000E+00 -0.84632550376E+03  0.84632550376E+03  0.00000000000E+00 0. -1.
         23    2    1    2    0    0  0.53240841911E+03  0.35288393226E+03  0.10861504738E+04  0.12635070153E+04  0.93495088902E+02 0.  0.
         13    1    3    3    0    0  0.38157936252E+03  0.20956792009E+03  0.68549749344E+03  0.81205192971E+03  0.00000000000E+00 0. -1.
        -13    1    3    3    0    0  0.15082905660E+03  0.14331601217E+03  0.40065298037E+03  0.45145508562E+03  0.00000000000E+00 0.  1.
         22    1    1    2    0    0 -0.53240841911E+03 -0.35288393226E+03 -0.62302462216E+03  0.89226984383E+03  0.00000000000E+00 0.  1.
<mgrwt>
<rscale>  0 0.21054425E+04</rscale>
<asrwt>0</asrwt>
<pdfrwt beam="1">  1        2 0.20145406E+00 0.21054425E+04</pdfrwt>
<pdfrwt beam="2">  1       -2 0.13020392E+00 0.21054425E+04</pdfrwt>
<totfact> 0.65052319E+00</totfact>
</mgrwt>
</event>
<event>
 6    1  0.1773638E-005  0.1250292E+04  0.7818608E-02  0.9069941E-01
          1   -1    0    0  501    0  0.00000000000E+00  0.00000000000E+00  0.21551571095E+04  0.21551571095E+04  0.00000000000E+00 0. -1.
         -1   -1    0    0    0  501 -0.00000000000E+00 -0.00000000000E+00 -0.18133585269E+03  0.18133585269E+03  0.00000000000E+00 0.  1.
         23    2    1    2    0    0 -0.54379153853E+03 -0.11986361799E+03  0.47502627906E+03  0.73759868501E+03  0.91243246483E+02 0.  0.
         11    1    3    3    0    0 -0.18508050041E+03  0.27784927905E+01  0.15031487227E+03  0.23844721110E+03  0.00000000000E+00 0. -1.
        -11    1    3    3    0    0 -0.35871103813E+03 -0.12264211078E+03  0.32471140678E+03  0.49915147391E+03  0.00000000000E+00 0.  1.
         22    1    1    2    0    0  0.54379153853E+03  0.11986361799E+03  0.14987949778E+04  0.15988942772E+04  0.00000000000E+00 0. -1.
<mgrwt>
<rscale>  0 0.12502916E+04</rscale>
<asrwt>0</asrwt>
<pdfrwt beam="1">  1        1 0.33156262E+00 0.12502916E+04</pdfrwt>
<pdfrwt beam="2">  1       -1 0.27897825E-01 0.12502916E+04</pdfrwt>
<totfact> 0.26775391E+01</totfact>
</mgrwt>
</event>
<event>
 6    1  0.1773638E-005  0.1491912E+04  0.7818608E-02  0.8889850E-01
         -1   -1    0    0    0  501 -0.00000000000E+00  0.00000000000E+00  0.10483383623E+04  0.10483383623E+04  0.00000000000E+00 0.  1.
          1   -1    0    0  501    0  0.00000000000E+00 -0.00000000000E+00 -0.53079240420E+03  0.53079240420E+03  0.00000000000E+00 0. -1.
         23    2    1    2    0    0 -0.41098407520E+03 -0.18489936052E+03 -0.36569959975E+03  0.58755706826E+03  0.91604735742E+02 0.  0.
         13    1    3    3    0    0 -0.11536012840E+03 -0.36704200454E+02 -0.52024174649E+02  0.13176369873E+03  0.00000000000E+00 0.  1.
        -13    1    3    3    0    0 -0.29562394680E+03 -0.14819516006E+03 -0.31367542511E+03  0.45579336952E+03  0.00000000000E+00 0. -1.
         22    1    1    2    0    0  0.41098407520E+03  0.18489936052E+03  0.88324555790E+03  0.99157369829E+03  0.00000000000E+00 0.  1.
<mgrwt>
<rscale>  0 0.14919116E+04</rscale>
<asrwt>0</asrwt>
<pdfrwt beam="1">  1        1 0.81660370E-01 0.14919116E+04</pdfrwt>
<pdfrwt beam="2">  1       -1 0.16128282E+00 0.14919116E+04</pdfrwt>
<totfact> 0.11281386E+01</totfact>
</mgrwt>
</event>
<event>
 6    1  0.1773638E-005  0.9612359E+03  0.7818608E-02  0.9352113E-01
          1   -1    0    0  501    0  0.00000000000E+00  0.00000000000E+00  0.23225375086E+04  0.23225375086E+04  0.00000000000E+00 0. -1.
         -1   -1    0    0    0  501 -0.00000000000E+00 -0.00000000000E+00 -0.99457441000E+02  0.99457441000E+02  0.00000000000E+00 0.  1.
         23    2    1    2    0    0 -0.31080484160E+03  0.26819766745E+03  0.50982904801E+03  0.66024618928E+03  0.86427622167E+02 0.  0.
         11    1    3    3    0    0 -0.15709237373E+03  0.19138226280E+03  0.29434871266E+03  0.38463794540E+03  0.00000000000E+00 0.  1.
        -11    1    3    3    0    0 -0.15371246787E+03  0.76815404651E+02  0.21548033535E+03  0.27560824388E+03  0.00000000000E+00 0. -1.
         22    1    1    2    0    0  0.31080484160E+03 -0.26819766745E+03  0.17132510196E+04  0.17617487604E+04  0.00000000000E+00 0. -1.
<mgrwt>
<rscale>  0 0.96123595E+03</rscale>
<asrwt>0</asrwt>
<pdfrwt beam="1">  1        1 0.35731342E+00 0.96123595E+03</pdfrwt>
<pdfrwt beam="2">  1       -1 0.15301146E-01 0.96123595E+03</pdfrwt>
<totfact> 0.58130929E+01</totfact>
</mgrwt>
</event>
<event>
 6    1  0.1773638E-005  0.4038084E+04  0.7818608E-02  0.7996908E-01
          2   -1    0    0  501    0  0.00000000000E+00  0.00000000000E+00  0.22144967637E+04  0.22144967637E+04  0.00000000000E+00 0. -1.
         -2   -1    0    0    0  501 -0.00000000000E+00 -0.00000000000E+00 -0.18408380449E+04  0.18408380449E+04  0.00000000000E+00 0.  1.
         23    2    1    2    0    0 -0.71120088820E+03 -0.17984553089E+04  0.76582108088E+03  0.20820027232E+04  0.89471839141E+02 0.  0.
         13    1    3    3    0    0 -0.50447880939E+03 -0.13582584443E+04  0.54722002418E+03  0.15488107133E+04  0.00000000000E+00 0.  1.
        -13    1    3    3    0    0 -0.20672207881E+03 -0.44019686452E+03  0.21860105671E+03  0.53319200988E+03  0.00000000000E+00 0. -1.
         22    1    1    2    0    0  0.71120088820E+03  0.17984553089E+04 -0.39216236209E+03  0.19733320855E+04  0.00000000000E+00 0. -1.
<mgrwt>
<rscale>  0 0.40380837E+04</rscale>
<asrwt>0</asrwt>
<pdfrwt beam="1">  1        2 0.34069181E+00 0.40380837E+04</pdfrwt>
<pdfrwt beam="2">  1       -2 0.28320586E+00 0.40380837E+04</pdfrwt>
<totfact> 0.16045961E-01</totfact>
</mgrwt>
</event>
<event>
 6    1  0.1773638E-005  0.2772737E+04  0.7818608E-02  0.8311783E-01
          2   -1    0    0  501    0  0.00000000000E+00  0.00000000000E+00  0.20008902661E+04  0.20008902661E+04  0.00000000000E+00 0. -1.
         -2   -1    0    0    0  501 -0.00000000000E+00 -0.00000000000E+00 -0.96058118195E+03  0.96058118195E+03  0.00000000000E+00 0.  1.
         23    2    1    2    0    0  0.80432714326E+03  0.28240329100E+03 -0.64495487722E+03  0.10728718633E+04  0.91615878413E+02 0.  0.
         11    1    3    3    0    0  0.56964695884E+03  0.15526420449E+03 -0.44884414492E+03  0.74166414052E+03  0.00000000000E+00 0. -1.
        -11    1    3    3    0    0  0.23468018442E+03  0.12713908651E+03 -0.19611073231E+03  0.33120772274E+03  0.00000000000E+00 0.  1.
         22    1    1    2    0    0 -0.80432714326E+03 -0.28240329100E+03  0.16852639614E+04  0.18885995848E+04  0.00000000000E+00 0. -1.
<mgrwt>
<rscale>  0 0.27727369E+04</rscale>
<asrwt>0</asrwt>
<pdfrwt beam="1">  1        2 0.30782927E+00 0.27727369E+04</pdfrwt>
<pdfrwt beam="2">  1       -2 0.14778172E+00 0.27727369E+04</pdfrwt>
<totfact> 0.18140798E+00</totfact>
</mgrwt>
</event>
<event>
 6    1  0.1773638E-005  0.4364610E+03  0.7818608E-02  0.1031838E+00
         -1   -1    0    0    0  501 -0.00000000000E+00  0.00000000000E+00  0.27139656027E+03  0.27139656027E+03  0.00000000000E+00 0.  1.
          1   -1    0    0  501    0  0.00000000000E+00 -0.00000000000E+00 -0.17547957217E+03  0.17547957217E+03  0.00000000000E+00 0. -1.
         23    2    1    2    0    0 -0.15466536247E+03 -0.87260154627E+02  0.16227073185E+03  0.25730153435E+03  0.91304875161E+02 0.  0.
         11    1    3    3    0    0 -0.82671858270E+02  0.28639355726E+01  0.84069266462E+02  0.11794269727E+03  0.00000000000E+00 0. -1.
        -11    1    3    3    0    0 -0.71993504205E+02 -0.90124090200E+02  0.78201465386E+02  0.13935883707E+03  0.00000000000E+00 0.  1.
         22    1    1    2    0    0  0.15466536247E+03  0.87260154627E+02 -0.66353743747E+02  0.18957459810E+03  0.00000000000E+00 0. -1.
<mgrwt>
<rscale>  0 0.43646101E+03</rscale>
<asrwt>0</asrwt>
<pdfrwt beam="1">  1        1 0.26996857E-01 0.43646101E+03</pdfrwt>
<pdfrwt beam="2">  1       -1 0.41753317E-01 0.43646101E+03</pdfrwt>
<totfact> 0.99501577E+02</totfact>
</mgrwt>
</event>
<event>
 6    1  0.1773638E-005  0.1652478E+04  0.7818608E-02  0.8788942E-01
          1   -1    0    0  501    0  0.00000000000E+00  0.00000000000E+00  0.29201903336E+04  0.29201903336E+04  0.00000000000E+00 0. -1.
         -1   -1    0    0    0  501 -0.00000000000E+00 -0.00000000000E+00 -0.23377618546E+03  0.23377618546E+03  0.00000000000E+00 0.  1.
         23    2    1    2    0    0  0.20622247108E+03  0.78708752850E+03  0.11032796077E+04  0.13739807162E+04  0.92534483981E+02 0.  0.
         13    1    3    3    0    0  0.74701301092E+02  0.46520810401E+03  0.63950019854E+03  0.79432950867E+03  0.00000000000E+00 0.  1.
        -13    1    3    3    0    0  0.13152116999E+03  0.32187942449E+03  0.46377940913E+03  0.57965120754E+03  0.00000000000E+00 0. -1.
         22    1    1    2    0    0 -0.20622247108E+03 -0.78708752850E+03  0.15831345404E+04  0.17799858028E+04  0.00000000000E+00 0. -1.
<mgrwt>
<rscale>  0 0.16524781E+04</rscale>
<asrwt>0</asrwt>
<pdfrwt beam="1">  1        1 0.44926003E+00 0.16524781E+04</pdfrwt>
<pdfrwt beam="2">  1       -1 0.35965569E-01 0.16524781E+04</pdfrwt>
<totfact> 0.48416659E+00</totfact>
</mgrwt>
</event>
<event>
 6    1  0.1773638E-005  0.2708764E+04  0.7818608E-02  0.8332167E-01
          2   -1    0    0  501    0  0.00000000000E+00  0.00000000000E+00  0.16083881376E+04  0.16083881376E+04  0.00000000000E+00 0. -1.
         -2   -1    0    0    0  501 -0.00000000000E+00 -0.00000000000E+00 -0.11404899142E+04  0.11404899142E+04  0.00000000000E+00 0.  1.
         23    2    1    2    0    0  0.75803586451E+03 -0.10202016355E+04 -0.23603850191E+03  0.12959648878E+04  0.91548168675E+02 0.  0.
         13    1    3    3    0    0  0.71468400278E+03 -0.94093719341E+03 -0.23925871450E+03  0.12055624240E+04  0.00000000000E+00 0. -1.
        -13    1    3    3    0    0  0.43351861734E+02 -0.79264442061E+02  0.32202125917E+01  0.90402463795E+02  0.00000000000E+00 0.  1.
         22    1    1    2    0    0 -0.75803586451E+03  0.10202016355E+04  0.70393672525E+03  0.14529131640E+04  0.00000000000E+00 0. -1.
<mgrwt>
<rscale>  0 0.27087639E+04</rscale>
<asrwt>0</asrwt>
<pdfrwt beam="1">  1        2 0.24744433E+00 0.27087639E+04</pdfrwt>
<pdfrwt beam="2">  1       -2 0.17545999E+00 0.27087639E+04</pdfrwt>
<totfact> 0.18864474E+00</totfact>
</mgrwt>
</event>
<event>
 6    1  0.1773638E-005  0.2252488E+04  0.7818608E-02  0.8496894E-01
          2   -1    0    0  501    0  0.00000000000E+00  0.00000000000E+00  0.88319748119E+03  0.88319748119E+03  0.00000000000E+00 0. -1.
         -2   -1    0    0    0  501 -0.00000000000E+00 -0.00000000000E+00 -0.14361738769E+04  0.14361738769E+04  0.00000000000E+00 0.  1.
         23    2    1    2    0    0  0.27099362498E+03  0.61863445279E+03 -0.12025939582E+04  0.13822752540E+04  0.91140103946E+02 0.  0.
         11    1    3    3    0    0  0.13734689971E+02  0.11367633708E+03 -0.21757448691E+03  0.24586502126E+03  0.00000000000E+00 0. -1.
        -11    1    3    3    0    0  0.25725893501E+03  0.50495811570E+03 -0.98501947126E+03  0.11364102327E+04  0.00000000000E+00 0.  1.
         22    1    1    2    0    0 -0.27099362498E+03 -0.61863445279E+03  0.64961756244E+03  0.93709610414E+03  0.00000000000E+00 0. -1.
<mgrwt>
<rscale>  0 0.22524876E+04</rscale>
<asrwt>0</asrwt>
<pdfrwt beam="1">  1        2 0.13587654E+00 0.22524876E+04</pdfrwt>
<pdfrwt beam="2">  1       -2 0.22094983E+00 0.22524876E+04</pdfrwt>
<totfact> 0.26698836E+00</totfact>
</mgrwt>
</event>
<event>
 6    1  0.1773638E-005  0.2310556E+04  0.7818608E-02  0.8473771E-01
         -1   -1    0    0    0  501 -0.00000000000E+00  0.00000000000E+00  0.21751820281E+04  0.21751820281E+04  0.00000000000E+00 0.  1.
          1   -1    0    0  501    0  0.00000000000E+00 -0.00000000000E+00 -0.61358869175E+03  0.61358869175E+03  0.00000000000E+00 0. -1.
         23    2    1    2    0    0 -0.70750861925E+03 -0.30318304508E+03  0.18189617761E+04  0.19771507848E+04  0.89525850555E+02 0.  0.
         13    1    3    3    0    0 -0.34605053932E+03 -0.14959892866E+03  0.77699684130E+03  0.86362891719E+03  0.00000000000E+00 0. -1.
        -13    1    3    3    0    0 -0.36145807993E+03 -0.15358411642E+03  0.10419649348E+04  0.11135218676E+04  0.00000000000E+00 0.  1.
         22    1    1    2    0    0  0.70750861925E+03  0.30318304508E+03 -0.25736843975E+03  0.81161993501E+03  0.00000000000E+00 0. -1.
<mgrwt>
<rscale>  0 0.23105559E+04</rscale>
<asrwt>0</asrwt>
<pdfrwt beam="1">  1        1 0.94398262E-01 0.23105559E+04</pdfrwt>
<pdfrwt beam="2">  1       -1 0.33464338E+00 0.23105559E+04</pdfrwt>
<totfact> 0.58783553E-01</totfact>
</mgrwt>
</event>
<event>
 6    1  0.1773638E-005  0.1050064E+04  0.7818608E-02  0.9255278E-01
         -2   -1    0    0    0  501 -0.00000000000E+00  0.00000000000E+00  0.57145408286E+03  0.57145408286E+03  0.00000000000E+00 0.  1.
          2   -1    0    0  501    0  0.00000000000E+00 -0.00000000000E+00 -0.48238089004E+03  0.48238089004E+03  0.00000000000E+00 0. -1.
         23    2    1    2    0    0 -0.41201954084E+03  0.13238476664E+03  0.33602984761E+03  0.55556454650E+03  0.91924307842E+02 0.  0.
         13    1    3    3    0    0 -0.31112276369E+03  0.59786121578E+02  0.26010153335E+03  0.40990799220E+03  0.00000000000E+00 0. -1.
        -13    1    3    3    0    0 -0.10089677716E+03  0.72598645066E+02  0.75928314262E+02  0.14565655431E+03  0.00000000000E+00 0.  1.
         22    1    1    2    0    0  0.41201954084E+03 -0.13238476664E+03 -0.24695665479E+03  0.49827042640E+03  0.00000000000E+00 0. -1.
<mgrwt>
<rscale>  0 0.10500639E+04</rscale>
<asrwt>0</asrwt>
<pdfrwt beam="1">  1        2 0.74212445E-01 0.10500639E+04</pdfrwt>
<pdfrwt beam="2">  1       -2 0.87916012E-01 0.10500639E+04</pdfrwt>
<totfact> 0.71341701E+01</totfact>
</mgrwt>
</event>
<event>
 6    1  0.1773638E-005  0.5742352E+04  0.7818608E-02  0.7723194E-01
         -2   -1    0    0    0  501 -0.00000000000E+00  0.00000000000E+00  0.20653704356E+04  0.20653704356E+04  0.00000000000E+00 0.  1.
          2   -1    0    0  501    0  0.00000000000E+00 -0.00000000000E+00 -0.39913673641E+04  0.39913673641E+04  0.00000000000E+00 0. -1.
         23    2    1    2    0    0 -0.21472798067E+04 -0.14573586037E+03  0.10400763306E+04  0.23920904650E+04  0.91041255886E+02 0.  0.
         11    1    3    3    0    0 -0.10348071691E+04 -0.25022711853E+02  0.50630234749E+03  0.11522994752E+04  0.00000000000E+00 0. -1.
        -11    1    3    3    0    0 -0.11124726375E+04 -0.12071314852E+03  0.53377398306E+03  0.12397909898E+04  0.00000000000E+00 0.  1.
         22    1    1    2    0    0  0.21472798067E+04  0.14573586037E+03 -0.29660732591E+04  0.36646473347E+04  0.00000000000E+00 0. -1.
<mgrwt>
<rscale>  0 0.57423522E+04</rscale>
<asrwt>0</asrwt>
<pdfrwt beam="1">  1        2 0.61405651E+00 0.57423522E+04</pdfrwt>
<pdfrwt beam="2">  1       -2 0.31774930E+00 0.57423522E+04</pdfrwt>
<totfact> 0.58710710E-03</totfact>
</mgrwt>
</event>
<event>
 6    1  0.1773638E-005  0.6502364E+03  0.7818608E-02  0.9806336E-01
          4   -1    0    0  501    0  0.00000000000E+00  0.00000000000E+00  0.10375221532E+03  0.10375221532E+03  0.00000000000E+00 0. -1.
         -4   -1    0    0    0  501 -0.00000000000E+00 -0.00000000000E+00 -0.10187911440E+04  0.10187911440E+04  0.00000000000E+00 0.  1.
         23    2    1    2    0    0 -0.21121222517E+03  0.22544728667E+03 -0.60293512492E+03  0.68340116430E+03  0.89829301314E+02 0.  0.
         11    1    3    3    0    0 -0.19392374143E+03  0.21818231371E+03 -0.50168437294E+03  0.58042841898E+03  0.00000000000E+00 0.  1.
        -11    1    3    3    0    0 -0.17288483743E+02  0.72649729544E+01 -0.10125075197E+03  0.10297274531E+03  0.00000000000E+00 0. -1.
         22    1    1    2    0    0  0.21121222517E+03 -0.22544728667E+03 -0.31210380376E+03  0.43914219503E+03  0.00000000000E+00 0. -1.
<mgrwt>
<rscale>  0 0.65023638E+03</rscale>
<asrwt>0</asrwt>
<pdfrwt beam="1">  1        4 0.15961880E-01 0.65023638E+03</pdfrwt>
<pdfrwt beam="2">  1       -4 0.15673709E+00 0.65023638E+03</pdfrwt>
<totfact> 0.18361132E+01</totfact>
</mgrwt>
</event>
<event>
 6    1  0.1773638E-005  0.1760701E+04  0.7818608E-02  0.8727482E-01
          1   -1    0    0  501    0  0.00000000000E+00  0.00000000000E+00  0.21710607942E+04  0.21710607942E+04  0.00000000000E+00 0. -1.
         -1   -1    0    0    0  501 -0.00000000000E+00 -0.00000000000E+00 -0.35697637937E+03  0.35697637937E+03  0.00000000000E+00 0.  1.
         23    2    1    2    0    0  0.56650039517E+02  0.84948625381E+03  0.12168559281E+04  0.14880766033E+04  0.93795016078E+02 0.  0.
         13    1    3    3    0    0  0.36141782309E+02  0.14990227415E+03  0.17863218979E+03  0.23597961661E+03  0.00000000000E+00 0.  1.
        -13    1    3    3    0    0  0.20508257208E+02  0.69958397966E+03  0.10382237383E+04  0.12520969867E+04  0.00000000000E+00 0. -1.
         22    1    1    2    0    0 -0.56650039517E+02 -0.84948625381E+03  0.59722848669E+03  0.10399605703E+04  0.00000000000E+00 0.  1.
<mgrwt>
<rscale>  0 0.17607015E+04</rscale>
<asrwt>0</asrwt>
<pdfrwt beam="1">  1        1 0.33400934E+00 0.17607015E+04</pdfrwt>
<pdfrwt beam="2">  1       -1 0.54919445E-01 0.17607015E+04</pdfrwt>
<totfact> 0.72352653E+00</totfact>
</mgrwt>
</event>
<event>
 6    1  0.1773638E-005  0.5108601E+03  0.7818608E-02  0.1010983E+00
         -2   -1    0    0    0  501 -0.00000000000E+00  0.00000000000E+00  0.31139049682E+03  0.31139049682E+03  0.00000000000E+00 0. -1.
          2   -1    0    0  501    0  0.00000000000E+00 -0.00000000000E+00 -0.20952636316E+03  0.20952636316E+03  0.00000000000E+00 0.  1.
         23    2    1    2    0    0  0.17001947155E+03 -0.16020337006E+03 -0.29958985044E+02  0.25268361239E+03  0.91540847162E+02 0.  0.
         11    1    3    3    0    0  0.44284182600E+02 -0.64360095176E+02 -0.50843107004E+02  0.93211223624E+02  0.00000000000E+00 0. -1.
        -11    1    3    3    0    0  0.12573528895E+03 -0.95843274887E+02  0.20884121960E+02  0.15947238876E+03  0.00000000000E+00 0.  1.
         22    1    1    2    0    0 -0.17001947155E+03  0.16020337006E+03  0.13182311871E+03  0.26823324759E+03  0.00000000000E+00 0. -1.
<mgrwt>
<rscale>  0 0.51086013E+03</rscale>
<asrwt>0</asrwt>
<pdfrwt beam="1">  1        2 0.32234825E-01 0.51086013E+03</pdfrwt>
<pdfrwt beam="2">  1       -2 0.47906230E-01 0.51086013E+03</pdfrwt>
<totfact> 0.68134537E+02</totfact>
</mgrwt>
</event>
<event>
 6    1  0.1773638E-005  0.1929559E+04  0.7818608E-02  0.8640281E-01
         -2   -1    0    0    0  501 -0.00000000000E+00  0.00000000000E+00  0.47796861880E+03  0.47796861880E+03  0.00000000000E+00 0. -1.
          2   -1    0    0  501    0  0.00000000000E+00 -0.00000000000E+00 -0.19474063573E+04  0.19474063573E+04  0.00000000000E+00 0.  1.
         23    2    1    2    0    0  0.21274876553E+03  0.30106698219E+03  0.38139982128E+03  0.53818048753E+03  0.90934308660E+02 0.  0.
         13    1    3    3    0    0  0.82206451337E+02  0.19439183449E+03  0.20743480501E+03  0.29593121547E+03  0.00000000000E+00 0. -1.
        -13    1    3    3    0    0  0.13054231419E+03  0.10667514770E+03  0.17396501627E+03  0.24224927206E+03  0.00000000000E+00 0.  1.
         22    1    1    2    0    0 -0.21274876553E+03 -0.30106698219E+03 -0.18508375598E+04  0.18871944886E+04  0.00000000000E+00 0.  1.
<mgrwt>
<rscale>  0 0.19295586E+04</rscale>
<asrwt>0</asrwt>
<pdfrwt beam="1">  1        2 0.29960097E+00 0.19295586E+04</pdfrwt>
<pdfrwt beam="2">  1       -2 0.73533635E-01 0.19295586E+04</pdfrwt>
<totfact> 0.11138371E+01</totfact>
</mgrwt>
</event>
<event>
 6    1  0.1773638E-005  0.8262190E+03  0.7818608E-02  0.9522823E-01
          1   -1    0    0  501    0  0.00000000000E+00  0.00000000000E+00  0.12225354549E+04  0.12225354549E+04  0.00000000000E+00 0. -1.
         -1   -1    0    0    0  501 -0.00000000000E+00 -0.00000000000E+00 -0.13959469527E+03  0.13959469527E+03  0.00000000000E+00 0.  1.
         23    2    1    2    0    0 -0.33255780051E+03  0.22358928238E+03  0.42199761685E+03  0.58919244513E+03  0.92080893235E+02 0.  0.
         13    1    3    3    0    0 -0.23376576609E+03  0.12448369956E+03  0.32341547635E+03  0.41801937180E+03  0.00000000000E+00 0. -1.
        -13    1    3    3    0    0 -0.98792034420E+02  0.99105582819E+02  0.98582140498E+02  0.17117307334E+03  0.00000000000E+00 0.  1.
         22    1    1    2    0    0  0.33255780051E+03 -0.22358928238E+03  0.66094314276E+03  0.77293770502E+03  0.00000000000E+00 0. -1.
<mgrwt>
<rscale>  0 0.82621901E+03</rscale>
<asrwt>0</asrwt>
<pdfrwt beam="1">  1        1 0.18808237E+00 0.82621901E+03</pdfrwt>
<pdfrwt beam="2">  1       -1 0.21476108E-01 0.82621901E+03</pdfrwt>
<totfact> 0.18856980E+02</totfact>
</mgrwt>
</event>
<event>
 6    1  0.1773638E-005  0.2057038E+04  0.7818608E-02  0.8580408E-01
         -3   -1    0    0    0  501 -0.00000000000E+00  0.00000000000E+00  0.16092744794E+04  0.16092744794E+04  0.00000000000E+00 0.  1.
          3   -1    0    0  501    0  0.00000000000E+00 -0.00000000000E+00 -0.65734683031E+03  0.65734683031E+03  0.00000000000E+00 0. -1.
         23    2    1    2    0    0 -0.15502262516E+03 -0.54740543379E+02  0.15933416734E+04  0.16044729184E+04  0.92558717568E+02 0.  0.
         13    1    3    3    0    0 -0.83043908248E+02 -0.61897550227E+02  0.63364780644E+03  0.64205696011E+03  0.00000000000E+00 0. -1.
        -13    1    3    3    0    0 -0.71978716908E+02  0.71570068479E+01  0.95969386698E+03  0.96241595828E+03  0.00000000000E+00 0.  1.
         22    1    1    2    0    0  0.15502262516E+03  0.54740543379E+02 -0.64141402437E+03  0.66214839127E+03  0.00000000000E+00 0. -1.
<mgrwt>
<rscale>  0 0.20570381E+04</rscale>
<asrwt>0</asrwt>
<pdfrwt beam="1">  1        3 0.10113028E+00 0.20570381E+04</pdfrwt>
<pdfrwt beam="2">  1       -3 0.24758069E+00 0.20570381E+04</pdfrwt>
<totfact> 0.15550054E-01</totfact>
</mgrwt>
</event>
<event>
 6    1  0.1773638E-005  0.9213520E+03  0.7818608E-02  0.9399277E-01
         -2   -1    0    0    0  501 -0.00000000000E+00  0.00000000000E+00  0.22859711150E+03  0.22859711150E+03  0.00000000000E+00 0.  1.
          2   -1    0    0  501    0  0.00000000000E+00 -0.00000000000E+00 -0.92836867732E+03  0.92836867732E+03  0.00000000000E+00 0. -1.
         23    2    1    2    0    0  0.30470710540E+03  0.30543281994E+03 -0.16813118739E+03  0.47229278691E+03  0.93041672445E+02 0.  0.
         11    1    3    3    0    0  0.21009140894E+03  0.17503205856E+03 -0.14504724044E+03  0.30953727336E+03  0.00000000000E+00 0. -1.
        -11    1    3    3    0    0  0.94615696453E+02  0.13040076138E+03 -0.23083946951E+02  0.16275551355E+03  0.00000000000E+00 0.  1.
         22    1    1    2    0    0 -0.30470710540E+03 -0.30543281994E+03 -0.53164037843E+03  0.68467300191E+03  0.00000000000E+00 0. -1.
<mgrwt>
<rscale>  0 0.92135205E+03</rscale>
<asrwt>0</asrwt>
<pdfrwt beam="1">  1        2 0.14282595E+00 0.92135205E+03</pdfrwt>
<pdfrwt beam="2">  1       -2 0.35168786E-01 0.92135205E+03</pdfrwt>
<totfact> 0.21316336E+02</totfact>
</mgrwt>
</event>
<event>
 6    1  0.1773638E-005  0.8934378E+03  0.7818608E-02  0.9433822E-01
          2   -1    0    0  501    0  0.00000000000E+00  0.00000000000E+00  0.10368885090E+04  0.10368885090E+04  0.00000000000E+00 0. -1.
         -2   -1    0    0    0  501 -0.00000000000E+00 -0.00000000000E+00 -0.19245825647E+03  0.19245825647E+03  0.00000000000E+00 0.  1.
         23    2    1    2    0    0  0.92846568331E+01  0.31984289835E+03  0.84735859276E+03  0.90935573484E+03  0.80781082470E+02 0.  0.
         13    1    3    3    0    0 -0.23084333422E+02  0.15767491924E+03  0.33498273628E+03  0.37095511887E+03  0.00000000000E+00 0. -1.
        -13    1    3    3    0    0  0.32368990255E+02  0.16216797911E+03  0.51237585647E+03  0.53840061597E+03  0.00000000000E+00 0.  1.
         22    1    1    2    0    0 -0.92846568331E+01 -0.31984289835E+03 -0.29283402668E+01  0.31999103058E+03  0.00000000000E+00 0.  1.
<mgrwt>
<rscale>  0 0.89343775E+03</rscale>
<asrwt>0</asrwt>
<pdfrwt beam="1">  1        2 0.15952131E+00 0.89343775E+03</pdfrwt>
<pdfrwt beam="2">  1       -2 0.29608963E-01 0.89343775E+03</pdfrwt>
<totfact> 0.25105903E+02</totfact>
</mgrwt>
</event>
<event>
 6    1  0.1773638E-005  0.3189713E+04  0.7818608E-02  0.8191539E-01
          2   -1    0    0  501    0  0.00000000000E+00  0.00000000000E+00  0.25173582942E+04  0.25173582942E+04  0.00000000000E+00 0. -1.
         -2   -1    0    0    0  501 -0.00000000000E+00 -0.00000000000E+00 -0.10104109835E+04  0.10104109835E+04  0.00000000000E+00 0.  1.
         23    2    1    2    0    0  0.34661787904E+03  0.65430953563E+03  0.23147236075E+04  0.24319739190E+04  0.91032089201E+02 0.  0.
         13    1    3    3    0    0  0.54330078608E+02  0.18762434302E+03  0.59637562386E+03  0.62754962853E+03  0.00000000000E+00 0.  1.
        -13    1    3    3    0    0  0.29228780043E+03  0.46668519262E+03  0.17183479836E+04  0.18044242905E+04  0.00000000000E+00 0. -1.
         22    1    1    2    0    0 -0.34661787904E+03 -0.65430953563E+03 -0.80777629683E+03  0.10957953587E+04  0.00000000000E+00 0.  1.
<mgrwt>
<rscale>  0 0.31897125E+04</rscale>
<asrwt>0</asrwt>
<pdfrwt beam="1">  1        2 0.38728589E+00 0.31897125E+04</pdfrwt>
<pdfrwt beam="2">  1       -2 0.15544784E+00 0.31897125E+04</pdfrwt>
<totfact> 0.78066805E-01</totfact>
</mgrwt>
</event>
<event>
 6    1  0.1773638E-005  0.2834664E+04  0.7818608E-02  0.8292587E-01
          2   -1    0    0  501    0  0.00000000000E+00  0.00000000000E+00  0.23401595812E+04  0.23401595812E+04  0.00000000000E+00 0.  1.
         -2   -1    0    0    0  501 -0.00000000000E+00 -0.00000000000E+00 -0.85841585185E+03  0.85841585185E+03  0.00000000000E+00 0. -1.
         23    2    1    2    0    0 -0.89211545105E+03  0.10304303753E+04  0.11742150991E+04  0.18013529759E+04  0.91840668572E+02 0.  0.
         13    1    3    3    0    0 -0.30428596736E+03  0.34566063509E+03  0.34050970605E+03  0.57272863077E+03  0.00000000000E+00 0. -1.
        -13    1    3    3    0    0 -0.58782948369E+03  0.68476974024E+03  0.83370539308E+03  0.12286243451E+04  0.00000000000E+00 0.  1.
         22    1    1    2    0    0  0.89211545105E+03 -0.10304303753E+04  0.30752863025E+03  0.13972224572E+04  0.00000000000E+00 0.  1.
<mgrwt>
<rscale>  0 0.28346641E+04</rscale>
<asrwt>0</asrwt>
<pdfrwt beam="1">  1        2 0.36002455E+00 0.28346641E+04</pdfrwt>
<pdfrwt beam="2">  1       -2 0.13206398E+00 0.28346641E+04</pdfrwt>
<totfact> 0.15571467E+00</totfact>
</mgrwt>
</event>
<event>
 6    1  0.2365650E-005  0.4740677E+04  0.7818608E-02  0.7869805E-01
         -2   -1    0    0    0  501 -0.00000000000E+00  0.00000000000E+00  0.18122656833E+04  0.18122656833E+04  0.00000000000E+00 0.  1.
          2   -1    0    0  501    0  0.00000000000E+00 -0.00000000000E+00 -0.31002654461E+04  0.31002654461E+04  0.00000000000E+00 0. -1.
         23    2    1    2    0    0  0.22275816577E+04 -0.90545826738E+02 -0.14760431894E+04  0.26751936675E+04  0.87401793286E+02 0.  0.
         13    1    3    3    0    0  0.54701088309E+03 -0.34654318416E+02 -0.32076110827E+03  0.63506654500E+03  0.00000000000E+00 0.  1.
        -13    1    3    3    0    0  0.16805707746E+04 -0.55891508323E+02 -0.11552820811E+04  0.20401271225E+04  0.00000000000E+00 0. -1.
         22    1    1    2    0    0 -0.22275816577E+04  0.90545826738E+02  0.18804342651E+03  0.22373374619E+04  0.00000000000E+00 0. -1.
<mgrwt>
<rscale>  0 0.47406770E+04</rscale>
<asrwt>0</asrwt>
<pdfrwt beam="1">  1        2 0.47696391E+00 0.47406770E+04</pdfrwt>
<pdfrwt beam="2">  1       -2 0.27881011E+00 0.47406770E+04</pdfrwt>
<totfact> 0.47836401E-02</totfact>
</mgrwt>
</event>
<event>
 6    1  0.1773638E-005  0.3514619E+04  0.7818608E-02  0.8110334E-01
         -2   -1    0    0    0  501 -0.00000000000E+00  0.00000000000E+00  0.76717862845E+03  0.76717862845E+03  0.00000000000E+00 0.  1.
          2   -1    0    0  501    0  0.00000000000E+00 -0.00000000000E+00 -0.40253160178E+04  0.40253160178E+04  0.00000000000E+00 0. -1.
         23    2    1    2    0    0  0.80049230007E+03 -0.59220526080E+03 -0.36026725131E+04  0.37388346229E+04  0.90222543270E+02 0.  0.
         13    1    3    3    0    0  0.50296996107E+03 -0.33249855212E+03 -0.22896019379E+04  0.23676594144E+04  0.00000000000E+00 0.  1.
        -13    1    3    3    0    0  0.29752233899E+03 -0.25970670868E+03 -0.13130705753E+04  0.13711752085E+04  0.00000000000E+00 0. -1.
         22    1    1    2    0    0 -0.80049230007E+03  0.59220526080E+03  0.34453512372E+03  0.10536600234E+04  0.00000000000E+00 0.  1.
<mgrwt>
<rscale>  0 0.35146189E+04</rscale>
<asrwt>0</asrwt>
<pdfrwt beam="1">  1        2 0.61927938E+00 0.35146189E+04</pdfrwt>
<pdfrwt beam="2">  1       -2 0.11802748E+00 0.35146189E+04</pdfrwt>
<totfact> 0.14774568E-01</totfact>
</mgrwt>
</event>
<event>
 6    1  0.1773638E-005  0.4626631E+04  0.7818608E-02  0.7888835E-01
          1   -1    0    0  501    0  0.00000000000E+00  0.00000000000E+00  0.21790628891E+04  0.21790628891E+04  0.00000000000E+00 0. -1.
         -1   -1    0    0    0  501 -0.00000000000E+00 -0.00000000000E+00 -0.24558393721E+04  0.24558393721E+04  0.00000000000E+00 0.  1.
         23    2    1    2    0    0  0.26428921267E+03 -0.50148943221E+03 -0.23842318294E+04  0.24525392126E+04  0.95114321505E+02 0.  0.
         11    1    3    3    0    0  0.11701884822E+03 -0.19086730018E+03 -0.75806924813E+03  0.79043831011E+03  0.00000000000E+00 0.  1.
        -11    1    3    3    0    0  0.14727036445E+03 -0.31062213203E+03 -0.16261625813E+04  0.16621009024E+04  0.00000000000E+00 0. -1.
         22    1    1    2    0    0 -0.26428921267E+03  0.50148943221E+03  0.21074553464E+04  0.21823630486E+04  0.00000000000E+00 0. -1.
<mgrwt>
<rscale>  0 0.46266309E+04</rscale>
<asrwt>0</asrwt>
<pdfrwt beam="1">  1        1 0.33524044E+00 0.46266309E+04</pdfrwt>
<pdfrwt beam="2">  1       -1 0.37782144E+00 0.46266309E+04</pdfrwt>
<totfact> 0.16946829E-02</totfact>
</mgrwt>
</event>
<event>
 6    1  0.1773638E-005  0.2398769E+04  0.7818608E-02  0.8439964E-01
         -2   -1    0    0    0  501 -0.00000000000E+00  0.00000000000E+00  0.53791697980E+03  0.53791697980E+03  0.00000000000E+00 0. -1.
          2   -1    0    0  501    0  0.00000000000E+00 -0.00000000000E+00 -0.26742480564E+04  0.26742480564E+04  0.00000000000E+00 0.  1.
         23    2    1    2    0    0 -0.10434660622E+04 -0.26806247745E+03 -0.36901259465E+03  0.11423598445E+04  0.90204238314E+02 0.  0.
         13    1    3    3    0    0 -0.56847958427E+03 -0.11954071018E+03 -0.15966468352E+03  0.60245483672E+03  0.00000000000E+00 0. -1.
        -13    1    3    3    0    0 -0.47498647794E+03 -0.14852176726E+03 -0.20934791112E+03  0.53990500782E+03  0.00000000000E+00 0.  1.
         22    1    1    2    0    0  0.10434660622E+04  0.26806247745E+03 -0.17673184820E+04  0.20698051917E+04  0.00000000000E+00 0.  1.
<mgrwt>
<rscale>  0 0.23987692E+04</rscale>
<asrwt>0</asrwt>
<pdfrwt beam="1">  1        2 0.41142278E+00 0.23987692E+04</pdfrwt>
<pdfrwt beam="2">  1       -2 0.82756458E-01 0.23987692E+04</pdfrwt>
<totfact> 0.31677260E+00</totfact>
</mgrwt>
</event>
<event>
 6    1  0.1773638E-005  0.2178525E+04  0.7818608E-02  0.8527420E-01
          2   -1    0    0  501    0  0.00000000000E+00  0.00000000000E+00  0.22092014003E+04  0.22092014003E+04  0.00000000000E+00 0. -1.
         -2   -1    0    0    0  501 -0.00000000000E+00 -0.00000000000E+00 -0.53706885284E+03  0.53706885284E+03  0.00000000000E+00 0.  1.
         23    2    1    2    0    0  0.10893822970E+02  0.98050957667E+03  0.24498885246E+03  0.10147227281E+04  0.90138625316E+02 0.  0.
         11    1    3    3    0    0  0.11824360191E+02  0.80724124783E+03  0.23645161111E+03  0.84124170848E+03  0.00000000000E+00 0.  1.
        -11    1    3    3    0    0 -0.93053722087E+00  0.17326832883E+03  0.85372413521E+01  0.17348101962E+03  0.00000000000E+00 0. -1.
         22    1    1    2    0    0 -0.10893822970E+02 -0.98050957667E+03  0.14271436950E+04  0.17315475250E+04  0.00000000000E+00 0. -1.
<mgrwt>
<rscale>  0 0.21785254E+04</rscale>
<asrwt>0</asrwt>
<pdfrwt beam="1">  1        2 0.33987713E+00 0.21785254E+04</pdfrwt>
<pdfrwt beam="2">  1       -2 0.82625978E-01 0.21785254E+04</pdfrwt>
<totfact> 0.60032748E+00</totfact>
</mgrwt>
</event>
<event>
 6    1  0.1773638E-005  0.2191581E+04  0.7818608E-02  0.8521941E-01
          2   -1    0    0  501    0  0.00000000000E+00  0.00000000000E+00  0.74154129320E+03  0.74154129320E+03  0.00000000000E+00 0. -1.
         -2   -1    0    0    0  501 -0.00000000000E+00 -0.00000000000E+00 -0.16192711916E+04  0.16192711916E+04  0.00000000000E+00 0.  1.
         23    2    1    2    0    0 -0.51356478389E+03 -0.71484745589E+03 -0.11392380620E+04  0.14425847396E+04  0.91824269691E+02 0.  0.
         13    1    3    3    0    0 -0.17430754225E+03 -0.31013622298E+03 -0.49438896519E+03  0.60908787953E+03  0.00000000000E+00 0.  1.
        -13    1    3    3    0    0 -0.33925724164E+03 -0.40471123291E+03 -0.64484909679E+03  0.83349686003E+03  0.00000000000E+00 0. -1.
         22    1    1    2    0    0  0.51356478389E+03  0.71484745589E+03  0.26150816361E+03  0.91822774521E+03  0.00000000000E+00 0. -1.
<mgrwt>
<rscale>  0 0.21915807E+04</rscale>
<asrwt>0</asrwt>
<pdfrwt beam="1">  1        2 0.11408328E+00 0.21915807E+04</pdfrwt>
<pdfrwt beam="2">  1       -2 0.24911864E+00 0.21915807E+04</pdfrwt>
<totfact> 0.22645057E+00</totfact>
</mgrwt>
</event>
<event>
 6    1  0.1773638E-005  0.3251842E+04  0.7818608E-02  0.8175259E-01
         -2   -1    0    0    0  501 -0.00000000000E+00  0.00000000000E+00  0.90851511228E+03  0.90851511228E+03  0.00000000000E+00 0. -1.
          2   -1    0    0  501    0  0.00000000000E+00 -0.00000000000E+00 -0.29098232945E+04  0.29098232945E+04  0.00000000000E+00 0.  1.
         23    2    1    2    0    0 -0.11089290047E+04 -0.70543785312E+03 -0.21228524816E+04  0.24984372291E+04  0.91213086128E+02 0.  0.
         13    1    3    3    0    0 -0.46946034996E+03 -0.32081023231E+03 -0.84059081613E+03  0.10148424240E+04  0.00000000000E+00 0.  1.
        -13    1    3    3    0    0 -0.63946865479E+03 -0.38462762081E+03 -0.12822616655E+04  0.14835948051E+04  0.00000000000E+00 0. -1.
         22    1    1    2    0    0  0.11089290047E+04  0.70543785312E+03  0.12154429933E+03  0.13199011777E+04  0.00000000000E+00 0. -1.
<mgrwt>
<rscale>  0 0.32518416E+04</rscale>
<asrwt>0</asrwt>
<pdfrwt beam="1">  1        2 0.44766512E+00 0.32518416E+04</pdfrwt>
<pdfrwt beam="2">  1       -2 0.13977156E+00 0.32518416E+04</pdfrwt>
<totfact> 0.59882474E-01</totfact>
</mgrwt>
</event>
<event>
 6    1  0.1773638E-005  0.2726342E+04  0.7818608E-02  0.8326508E-01
         -2   -1    0    0    0  501 -0.00000000000E+00  0.00000000000E+00  0.53488385238E+03  0.53488385238E+03  0.00000000000E+00 0.  1.
          2   -1    0    0  501    0  0.00000000000E+00 -0.00000000000E+00 -0.34740907679E+04  0.34740907679E+04  0.00000000000E+00 0. -1.
         23    2    1    2    0    0 -0.93461717585E+03  0.88610114710E+03 -0.21210964166E+04  0.24831996380E+04  0.92444173011E+02 0.  0.
         11    1    3    3    0    0 -0.25465578465E+03  0.30000800355E+03 -0.64345309661E+03  0.75424548947E+03  0.00000000000E+00 0. -1.
        -11    1    3    3    0    0 -0.67996139120E+03  0.58609314355E+03 -0.14776433200E+04  0.17289541485E+04  0.00000000000E+00 0.  1.
         22    1    1    2    0    0  0.93461717585E+03 -0.88610114710E+03 -0.81811049895E+03  0.15257749824E+04  0.00000000000E+00 0.  1.
<mgrwt>
<rscale>  0 0.27263419E+04</rscale>
<asrwt>0</asrwt>
<pdfrwt beam="1">  1        2 0.53447550E+00 0.27263419E+04</pdfrwt>
<pdfrwt beam="2">  1       -2 0.82289824E-01 0.27263419E+04</pdfrwt>
<totfact> 0.96236602E-01</totfact>
</mgrwt>
</event>
<event>
 6    1  0.1773638E-005  0.4395426E+04  0.7818608E-02  0.7929205E-01
         -2   -1    0    0    0  501 -0.00000000000E+00  0.00000000000E+00  0.29705803255E+04  0.29705803255E+04  0.00000000000E+00 0.  1.
          2   -1    0    0  501    0  0.00000000000E+00 -0.00000000000E+00 -0.16259254081E+04  0.16259254081E+04  0.00000000000E+00 0. -1.
         23    2    1    2    0    0  0.20995725175E+04  0.27846555507E+03  0.63239139982E+02  0.21210715866E+04  0.95904456989E+02 0.  0.
         11    1    3    3    0    0  0.13808547161E+04  0.22492206919E+03  0.60404263401E+02  0.14003565114E+04  0.00000000000E+00 0. -1.
        -11    1    3    3    0    0  0.71871780145E+03  0.53543485888E+02  0.28348765813E+01  0.72071507513E+03  0.00000000000E+00 0.  1.
         22    1    1    2    0    0 -0.20995725175E+04 -0.27846555507E+03  0.12814157775E+04  0.24754341470E+04  0.00000000000E+00 0.  1.
<mgrwt>
<rscale>  0 0.43954258E+04</rscale>
<asrwt>0</asrwt>
<pdfrwt beam="1">  1        2 0.25014237E+00 0.43954258E+04</pdfrwt>
<pdfrwt beam="2">  1       -2 0.45701236E+00 0.43954258E+04</pdfrwt>
<totfact> 0.25745651E-02</totfact>
</mgrwt>
</event>
<event>
 6    1  0.1773638E-005  0.2553529E+04  0.7818608E-02  0.8384160E-01
         -3   -1    0    0    0  501 -0.00000000000E+00  0.00000000000E+00  0.15735100283E+04  0.15735100283E+04  0.00000000000E+00 0.  1.
          3   -1    0    0  501    0  0.00000000000E+00 -0.00000000000E+00 -0.10359815416E+04  0.10359815416E+04  0.00000000000E+00 0. -1.
         23    2    1    2    0    0  0.49069834982E+03  0.10794286728E+04 -0.21019139476E+03  0.12076940984E+04  0.91615952028E+02 0.  0.
         11    1    3    3    0    0  0.43553512637E+03  0.90239908649E+03 -0.15279048878E+03  0.10135876336E+04  0.00000000000E+00 0.  1.
        -11    1    3    3    0    0  0.55163223454E+02  0.17702958632E+03 -0.57400905974E+02  0.19410646475E+03  0.00000000000E+00 0. -1.
         22    1    1    2    0    0 -0.49069834982E+03 -0.10794286728E+04  0.74771988140E+03  0.14017974715E+04  0.00000000000E+00 0.  1.
<mgrwt>
<rscale>  0 0.25535288E+04</rscale>
<asrwt>0</asrwt>
<pdfrwt beam="1">  1        3 0.15938178E+00 0.25535288E+04</pdfrwt>
<pdfrwt beam="2">  1       -3 0.24207847E+00 0.25535288E+04</pdfrwt>
<totfact> 0.51885002E-02</totfact>
</mgrwt>
</event>
<event>
 6    1  0.1773638E-005  0.1408481E+04  0.7818608E-02  0.8947702E-01
         -2   -1    0    0    0  501 -0.00000000000E+00  0.00000000000E+00  0.47210292833E+03  0.47210292833E+03  0.00000000000E+00 0.  1.
          2   -1    0    0  501    0  0.00000000000E+00 -0.00000000000E+00 -0.10505223545E+04  0.10505223545E+04  0.00000000000E+00 0. -1.
         23    2    1    2    0    0 -0.28103476818E+03 -0.63636900357E+03 -0.36881262934E+03  0.79607104608E+03  0.11730432732E+03 0.  0.
         11    1    3    3    0    0 -0.15388111973E+03 -0.38180809393E+03 -0.28048931743E+03  0.49812757080E+03  0.00000000000E+00 0.  1.
        -11    1    3    3    0    0 -0.12715364845E+03 -0.25456090964E+03 -0.88323311905E+02  0.29794347527E+03  0.00000000000E+00 0. -1.
         22    1    1    2    0    0  0.28103476818E+03  0.63636900357E+03 -0.20960679679E+03  0.72655423672E+03  0.00000000000E+00 0.  1.
<mgrwt>
<rscale>  0 0.14084810E+04</rscale>
<asrwt>0</asrwt>
<pdfrwt beam="1">  1        2 0.16161882E+00 0.14084810E+04</pdfrwt>
<pdfrwt beam="2">  1       -2 0.72631221E-01 0.14084810E+04</pdfrwt>
<totfact> 0.39011922E+01</totfact>
</mgrwt>
</event>
<event>
 6    1  0.1773638E-005  0.1172338E+04  0.7818608E-02  0.9137419E-01
         -2   -1    0    0    0  501 -0.00000000000E+00  0.00000000000E+00  0.87771827329E+03  0.87771827329E+03  0.00000000000E+00 0.  1.
          2   -1    0    0  501    0  0.00000000000E+00 -0.00000000000E+00 -0.39146301760E+03  0.39146301760E+03  0.00000000000E+00 0. -1.
         23    2    1    2    0    0  0.24041648060E+03 -0.21831913612E+03  0.76840072968E+03  0.83898436176E+03  0.89396580294E+02 0.  0.
         11    1    3    3    0    0  0.83332512249E+02 -0.25075185326E+02  0.22471719103E+03  0.24097902079E+03  0.00000000000E+00 0. -1.
        -11    1    3    3    0    0  0.15708396836E+03 -0.19324395079E+03  0.54368353864E+03  0.59800534097E+03  0.00000000000E+00 0.  1.
         22    1    1    2    0    0 -0.24041648060E+03  0.21831913612E+03 -0.28214547398E+03  0.43019692913E+03  0.00000000000E+00 0. -1.
<mgrwt>
<rscale>  0 0.11723383E+04</rscale>
<asrwt>0</asrwt>
<pdfrwt beam="1">  1        2 0.60225080E-01 0.11723383E+04</pdfrwt>
<pdfrwt beam="2">  1       -2 0.13503358E+00 0.11723383E+04</pdfrwt>
<totfact> 0.31729669E+01</totfact>
</mgrwt>
</event>
<event>
 6    1  0.1773638E-005  0.2930587E+04  0.7818608E-02  0.8263835E-01
         -2   -1    0    0    0  501 -0.00000000000E+00  0.00000000000E+00  0.78481386871E+03  0.78481386871E+03  0.00000000000E+00 0.  1.
          2   -1    0    0  501    0  0.00000000000E+00 -0.00000000000E+00 -0.27357884357E+04  0.27357884357E+04  0.00000000000E+00 0. -1.
         23    2    1    2    0    0 -0.79585856870E+03  0.35329821530E+03 -0.23900571946E+04  0.25454079422E+04  0.92291430672E+02 0.  0.
         13    1    3    3    0    0 -0.26773364943E+03  0.73667936236E+02 -0.72462897461E+03  0.77601251453E+03  0.00000000000E+00 0. -1.
        -13    1    3    3    0    0 -0.52812491928E+03  0.27963027906E+03 -0.16654282200E+04  0.17693954276E+04  0.00000000000E+00 0.  1.
         22    1    1    2    0    0  0.79585856870E+03 -0.35329821530E+03  0.43908262762E+03  0.97519436226E+03  0.00000000000E+00 0.  1.
<mgrwt>
<rscale>  0 0.29305868E+04</rscale>
<asrwt>0</asrwt>
<pdfrwt beam="1">  1        2 0.42089053E+00 0.29305868E+04</pdfrwt>
<pdfrwt beam="2">  1       -2 0.12074059E+00 0.29305868E+04</pdfrwt>
<totfact> 0.11375877E+00</totfact>
</mgrwt>
</event>
<event>
 6    1  0.2414391E-005  0.5017717E+04  0.7818608E-02  0.7825780E-01
          1   -1    0    0  501    0  0.00000000000E+00  0.00000000000E+00  0.30480352318E+04  0.30480352318E+04  0.00000000000E+00 0. -1.
         -1   -1    0    0    0  501 -0.00000000000E+00 -0.00000000000E+00 -0.20650582330E+04  0.20650582330E+04  0.00000000000E+00 0.  1.
         23    2    1    2    0    0  0.73344402775E+02 -0.20546092998E+04 -0.97250590617E+03  0.22757157726E+04  0.79471782737E+02 0.  0.
         11    1    3    3    0    0  0.60726673955E+02 -0.11231125843E+04 -0.49453953427E+03  0.12286736576E+04  0.00000000000E+00 0. -1.
        -11    1    3    3    0    0  0.12617728820E+02 -0.93149671543E+03 -0.47796637190E+03  0.10470421150E+04  0.00000000000E+00 0.  1.
         22    1    1    2    0    0 -0.73344402775E+02  0.20546092998E+04  0.19554829050E+04  0.28373776922E+04  0.00000000000E+00 0. -1.
<mgrwt>
<rscale>  0 0.50177167E+04</rscale>
<asrwt>0</asrwt>
<pdfrwt beam="1">  1        1 0.46892850E+00 0.50177167E+04</pdfrwt>
<pdfrwt beam="2">  1       -1 0.31770127E+00 0.50177167E+04</pdfrwt>
<totfact> 0.10066723E-02</totfact>
</mgrwt>
</event>
<event>
 6    1  0.1773638E-005  0.1337455E+04  0.7818608E-02  0.9000380E-01
          2   -1    0    0  501    0  0.00000000000E+00  0.00000000000E+00  0.12444893542E+04  0.12444893542E+04  0.00000000000E+00 0. -1.
         -2   -1    0    0    0  501 -0.00000000000E+00 -0.00000000000E+00 -0.35934107496E+03  0.35934107496E+03  0.00000000000E+00 0.  1.
         23    2    1    2    0    0  0.64321455773E+03 -0.12656879339E+03  0.30501113749E+03  0.72844266940E+03  0.88613214994E+02 0.  0.
         13    1    3    3    0    0  0.29381870195E+03 -0.78201375703E+02  0.97976853370E+02  0.31944381130E+03  0.00000000000E+00 0. -1.
        -13    1    3    3    0    0  0.34939585578E+03 -0.48367417687E+02  0.20703428412E+03  0.40899885810E+03  0.00000000000E+00 0.  1.
         22    1    1    2    0    0 -0.64321455773E+03  0.12656879339E+03  0.58013714178E+03  0.87538775980E+03  0.00000000000E+00 0. -1.
<mgrwt>
<rscale>  0 0.13374545E+04</rscale>
<asrwt>0</asrwt>
<pdfrwt beam="1">  1        2 0.19145990E+00 0.13374545E+04</pdfrwt>
<pdfrwt beam="2">  1       -2 0.55283243E-01 0.13374545E+04</pdfrwt>
<totfact> 0.53582629E+01</totfact>
</mgrwt>
</event>
<event>
 6    1  0.1773638E-005  0.3298494E+04  0.7818608E-02  0.8163279E-01
          1   -1    0    0  501    0  0.00000000000E+00  0.00000000000E+00  0.13743582298E+04  0.13743582298E+04  0.00000000000E+00 0. -1.
         -1   -1    0    0    0  501 -0.00000000000E+00 -0.00000000000E+00 -0.19791172649E+04  0.19791172649E+04  0.00000000000E+00 0.  1.
         23    2    1    2    0    0 -0.72834592087E+03 -0.11338565263E+04 -0.12670015530E+04  0.18519151213E+04  0.90433833818E+02 0.  0.
         13    1    3    3    0    0 -0.16159712928E+02 -0.38441904079E+02 -0.60590215800E+02  0.73553317816E+02  0.00000000000E+00 0. -1.
        -13    1    3    3    0    0 -0.71218620794E+03 -0.10954146222E+04 -0.12064113372E+04  0.17783618034E+04  0.00000000000E+00 0.  1.
         22    1    1    2    0    0  0.72834592087E+03  0.11338565263E+04  0.66224251790E+03  0.15015603735E+04  0.00000000000E+00 0. -1.
<mgrwt>
<rscale>  0 0.32984943E+04</rscale>
<asrwt>0</asrwt>
<pdfrwt beam="1">  1        1 0.21143973E+00 0.32984943E+04</pdfrwt>
<pdfrwt beam="2">  1       -1 0.30447958E+00 0.32984943E+04</pdfrwt>
<totfact> 0.20521939E-01</totfact>
</mgrwt>
</event>
<event>
 6    1  0.1773638E-005  0.1037561E+04  0.7818608E-02  0.9268282E-01
         -2   -1    0    0    0  501 -0.00000000000E+00  0.00000000000E+00  0.51078080361E+03  0.51078080361E+03  0.00000000000E+00 0.  1.
          2   -1    0    0  501    0  0.00000000000E+00 -0.00000000000E+00 -0.52690514730E+03  0.52690514730E+03  0.00000000000E+00 0. -1.
         23    2    1    2    0    0  0.46038696250E+03  0.21305269228E+03  0.79864368457E+02  0.52139006890E+03  0.90120373201E+02 0.  0.
         13    1    3    3    0    0  0.19560796372E+03  0.11462506911E+03 -0.38946408089E+01  0.22675217787E+03  0.00000000000E+00 0.  1.
        -13    1    3    3    0    0  0.26477899878E+03  0.98427623167E+02  0.83759009265E+02  0.29463789103E+03  0.00000000000E+00 0. -1.
         22    1    1    2    0    0 -0.46038696250E+03 -0.21305269228E+03 -0.95988712149E+02  0.51629588202E+03  0.00000000000E+00 0.  1.
<mgrwt>
<rscale>  0 0.10375607E+04</rscale>
<asrwt>0</asrwt>
<pdfrwt beam="1">  1        2 0.81062331E-01 0.10375607E+04</pdfrwt>
<pdfrwt beam="2">  1       -2 0.78581661E-01 0.10375607E+04</pdfrwt>
<totfact> 0.83097224E+01</totfact>
</mgrwt>
</event>
<event>
 6    1  0.1773638E-005  0.1050632E+04  0.7818608E-02  0.9254692E-01
          1   -1    0    0  501    0  0.00000000000E+00  0.00000000000E+00  0.21147210820E+04  0.21147210820E+04  0.00000000000E+00 0. -1.
         -1   -1    0    0    0  501 -0.00000000000E+00 -0.00000000000E+00 -0.13049317972E+03  0.13049317972E+03  0.00000000000E+00 0.  1.
         23    2    1    2    0    0 -0.30066510230E+03  0.39861833057E+03  0.67803447065E+03  0.84684472614E+03  0.90106434796E+02 0.  0.
         13    1    3    3    0    0 -0.22376645913E+03  0.22895494764E+03  0.40344003580E+03  0.51502976493E+03  0.00000000000E+00 0. -1.
        -13    1    3    3    0    0 -0.76898643165E+02  0.16966338294E+03  0.27459443485E+03  0.33181496121E+03  0.00000000000E+00 0.  1.
         22    1    1    2    0    0  0.30066510230E+03 -0.39861833057E+03  0.13061934316E+04  0.13983695356E+04  0.00000000000E+00 0.  1.
<mgrwt>
<rscale>  0 0.10506316E+04</rscale>
<asrwt>0</asrwt>
<pdfrwt beam="1">  1        1 0.32534168E+00 0.10506316E+04</pdfrwt>
<pdfrwt beam="2">  1       -1 0.20075875E-01 0.10506316E+04</pdfrwt>
<totfact> 0.50851130E+01</totfact>
</mgrwt>
</event>
<event>
 6    1  0.1773638E-005  0.3064070E+04  0.7818608E-02  0.8225668E-01
         -2   -1    0    0    0  501 -0.00000000000E+00  0.00000000000E+00  0.10271278618E+04  0.10271278618E+04  0.00000000000E+00 0.  1.
          2   -1    0    0  501    0  0.00000000000E+00 -0.00000000000E+00 -0.22851398545E+04  0.22851398545E+04  0.00000000000E+00 0. -1.
         23    2    1    2    0    0  0.41144051913E+03  0.62655652017E+03 -0.20722472076E+04  0.22055449151E+04  0.91452223472E+02 0.  0.
         11    1    3    3    0    0  0.21975437909E+03  0.26052801710E+03 -0.87741491439E+03  0.94128835477E+03  0.00000000000E+00 0.  1.
        -11    1    3    3    0    0  0.19168614004E+03  0.36602850307E+03 -0.11948322932E+04  0.12642565603E+04  0.00000000000E+00 0. -1.
         22    1    1    2    0    0 -0.41144051913E+03 -0.62655652017E+03  0.81423521488E+03  0.11067228013E+04  0.00000000000E+00 0.  1.
<mgrwt>
<rscale>  0 0.30640697E+04</rscale>
<asrwt>0</asrwt>
<pdfrwt beam="1">  1        2 0.35155997E+00 0.30640697E+04</pdfrwt>
<pdfrwt beam="2">  1       -2 0.15801967E+00 0.30640697E+04</pdfrwt>
<totfact> 0.10255851E+00</totfact>
</mgrwt>
</event>
<event>
 6    1  0.1773638E-005  0.3600849E+04  0.7818608E-02  0.8090297E-01
          1   -1    0    0  501    0  0.00000000000E+00  0.00000000000E+00  0.22282348068E+04  0.22282348068E+04  0.00000000000E+00 0. -1.
         -1   -1    0    0    0  501 -0.00000000000E+00 -0.00000000000E+00 -0.14547514535E+04  0.14547514535E+04  0.00000000000E+00 0.  1.
         23    2    1    2    0    0 -0.17685766844E+04 -0.17647328951E+03  0.67363073509E+03  0.19028242296E+04  0.89192886863E+02 0.  0.
         13    1    3    3    0    0 -0.57754715992E+02 -0.16590353705E+02  0.10360958571E+02  0.60977016308E+02  0.00000000000E+00 0. -1.
        -13    1    3    3    0    0 -0.17108219684E+04 -0.15988293581E+03  0.66326977652E+03  0.18418472133E+04  0.00000000000E+00 0.  1.
         22    1    1    2    0    0  0.17685766844E+04  0.17647328951E+03  0.99852618246E+02  0.17801620307E+04  0.00000000000E+00 0.  1.
<mgrwt>
<rscale>  0 0.36008487E+04</rscale>
<asrwt>0</asrwt>
<pdfrwt beam="1">  1        1 0.34280536E+00 0.36008487E+04</pdfrwt>
<pdfrwt beam="2">  1       -1 0.22380792E+00 0.36008487E+04</pdfrwt>
<totfact> 0.17497637E-01</totfact>
</mgrwt>
</event>
<event>
 6    1  0.1773638E-005  0.1780662E+04  0.7818608E-02  0.8716651E-01
          2   -1    0    0  501    0  0.00000000000E+00  0.00000000000E+00  0.16496330757E+04  0.16496330757E+04  0.00000000000E+00 0. -1.
         -2   -1    0    0    0  501 -0.00000000000E+00 -0.00000000000E+00 -0.48052478229E+03  0.48052478229E+03  0.00000000000E+00 0.  1.
         23    2    1    2    0    0 -0.26714210794E+03 -0.68308877652E+03 -0.13999612660E+02  0.73813792285E+03  0.81709372419E+02 0.  0.
         13    1    3    3    0    0 -0.67093036261E+02 -0.23178794085E+03 -0.36117099876E+02  0.24399092184E+03  0.00000000000E+00 0.  1.
        -13    1    3    3    0    0 -0.20004907168E+03 -0.45130083567E+03  0.22117487216E+02  0.49414700100E+03  0.00000000000E+00 0. -1.
         22    1    1    2    0    0  0.26714210794E+03  0.68308877652E+03  0.11831079061E+04  0.13920199352E+04  0.00000000000E+00 0. -1.
<mgrwt>
<rscale>  0 0.17806623E+04</rscale>
<asrwt>0</asrwt>
<pdfrwt beam="1">  1        2 0.25378970E+00 0.17806623E+04</pdfrwt>
<pdfrwt beam="2">  1       -2 0.73926890E-01 0.17806623E+04</pdfrwt>
<totfact> 0.16306549E+01</totfact>
</mgrwt>
</event>
<event>
 6    1  0.1773638E-005  0.6260017E+04  0.7818608E-02  0.7658973E-01
          1   -1    0    0  501    0  0.00000000000E+00  0.00000000000E+00  0.44700707467E+04  0.44700707467E+04  0.00000000000E+00 0. -1.
         -1   -1    0    0    0  501 -0.00000000000E+00 -0.00000000000E+00 -0.21916776022E+04  0.21916776022E+04  0.00000000000E+00 0.  1.
         23    2    1    2    0    0 -0.21695884905E+04 -0.15903894367E+04  0.28408962765E+04  0.39135011708E+04  0.91361818248E+02 0.  0.
         11    1    3    3    0    0 -0.11235856080E+04 -0.86801876070E+03  0.14577746472E+04  0.20349467092E+04  0.00000000000E+00 0.  1.
        -11    1    3    3    0    0 -0.10460028825E+04 -0.72237067598E+03  0.13831216293E+04  0.18785544616E+04  0.00000000000E+00 0. -1.
         22    1    1    2    0    0  0.21695884905E+04  0.15903894367E+04 -0.56250313200E+03  0.27482471781E+04  0.00000000000E+00 0.  1.
<mgrwt>
<rscale>  0 0.62600172E+04</rscale>
<asrwt>0</asrwt>
<pdfrwt beam="1">  1        1 0.68770319E+00 0.62600172E+04</pdfrwt>
<pdfrwt beam="2">  1       -1 0.33718117E+00 0.62600172E+04</pdfrwt>
<totfact> 0.42388350E-04</totfact>
</mgrwt>
</event>
<event>
 6    1  0.1773638E-005  0.1160978E+04  0.7818608E-02  0.9147715E-01
          1   -1    0    0  501    0  0.00000000000E+00  0.00000000000E+00  0.10850897749E+04  0.10850897749E+04  0.00000000000E+00 0. -1.
         -1   -1    0    0    0  501 -0.00000000000E+00 -0.00000000000E+00 -0.31054365555E+03  0.31054365555E+03  0.00000000000E+00 0.  1.
         23    2    1    2    0    0 -0.15089320634E+03  0.24822025677E+03  0.98870998986E+03  0.10347342491E+04  0.93517199979E+02 0.  0.
         13    1    3    3    0    0 -0.56257802564E+02  0.17977461366E+03  0.60800966146E+03  0.63652148471E+03  0.00000000000E+00 0.  1.
        -13    1    3    3    0    0 -0.94635403774E+02  0.68445643112E+02  0.38070032840E+03  0.39821276443E+03  0.00000000000E+00 0. -1.
         22    1    1    2    0    0  0.15089320634E+03 -0.24822025677E+03 -0.21416387055E+03  0.36089918127E+03  0.00000000000E+00 0.  1.
<mgrwt>
<rscale>  0 0.11609785E+04</rscale>
<asrwt>0</asrwt>
<pdfrwt beam="1">  1        1 0.16693689E+00 0.11609785E+04</pdfrwt>
<pdfrwt beam="2">  1       -1 0.47775948E-01 0.11609785E+04</pdfrwt>
<totfact> 0.56488384E+01</totfact>
</mgrwt>
</event>
<event>
 6    1  0.1773638E-005  0.1725754E+04  0.7818608E-02  0.8746811E-01
         -2   -1    0    0    0  501 -0.00000000000E+00  0.00000000000E+00  0.90304947825E+03  0.90304947825E+03  0.00000000000E+00 0.  1.
          2   -1    0    0  501    0  0.00000000000E+00 -0.00000000000E+00 -0.82449125834E+03  0.82449125834E+03  0.00000000000E+00 0. -1.
         23    2    1    2    0    0 -0.84708512020E+03 -0.22679438889E+02 -0.11050033231E+03  0.85931801517E+03  0.90274968550E+02 0.  0.
         11    1    3    3    0    0 -0.24477200606E+03 -0.31221910419E+02 -0.65308304786E+02  0.25525147858E+03  0.00000000000E+00 0. -1.
        -11    1    3    3    0    0 -0.60231311414E+03  0.85424715301E+01 -0.45192027526E+02  0.60406653660E+03  0.00000000000E+00 0.  1.
         22    1    1    2    0    0  0.84708512020E+03  0.22679438889E+02  0.18905855222E+03  0.86822272141E+03  0.00000000000E+00 0.  1.
<mgrwt>
<rscale>  0 0.17257536E+04</rscale>
<asrwt>0</asrwt>
<pdfrwt beam="1">  1        2 0.12684481E+00 0.17257536E+04</pdfrwt>
<pdfrwt beam="2">  1       -2 0.13893069E+00 0.17257536E+04</pdfrwt>
<totfact> 0.11506806E+01</totfact>
</mgrwt>
</event>
<event>
 6    1  0.1773638E-005  0.1235045E+04  0.7818608E-02  0.9082723E-01
          2   -1    0    0  501    0  0.00000000000E+00  0.00000000000E+00  0.74511032525E+03  0.74511032525E+03  0.00000000000E+00 0. -1.
         -2   -1    0    0    0  501 -0.00000000000E+00 -0.00000000000E+00 -0.51178212825E+03  0.51178212825E+03  0.00000000000E+00 0.  1.
         23    2    1    2    0    0 -0.12137950562E+03  0.60031456041E+03  0.16335108186E+03  0.64044508959E+03  0.91519293043E+02 0.  0.
         11    1    3    3    0    0 -0.74144777473E+01  0.20111867479E+03  0.24734872314E+02  0.20276959766E+03  0.00000000000E+00 0. -1.
        -11    1    3    3    0    0 -0.11396502788E+03  0.39919588563E+03  0.13861620954E+03  0.43767549192E+03  0.00000000000E+00 0.  1.
         22    1    1    2    0    0  0.12137950562E+03 -0.60031456041E+03  0.69977115152E+02  0.61644736391E+03  0.00000000000E+00 0.  1.
<mgrwt>
<rscale>  0 0.12350452E+04</rscale>
<asrwt>0</asrwt>
<pdfrwt beam="1">  1        2 0.11463236E+00 0.12350452E+04</pdfrwt>
<pdfrwt beam="2">  1       -2 0.78735712E-01 0.12350452E+04</pdfrwt>
<totfact> 0.53368139E+01</totfact>
</mgrwt>
</event>
<event>
 6    1  0.1773638E-005  0.1212542E+04  0.7818608E-02  0.9101949E-01
         -1   -1    0    0    0  501 -0.00000000000E+00  0.00000000000E+00  0.32992785722E+03  0.32992785722E+03  0.00000000000E+00 0.  1.
          1   -1    0    0  501    0  0.00000000000E+00 -0.00000000000E+00 -0.11140755274E+04  0.11140755274E+04  0.00000000000E+00 0. -1.
         23    2    1    2    0    0 -0.11117918666E+03 -0.18790937011E+03 -0.10635232667E+04  0.10894311538E+04  0.90043085950E+02 0.  0.
         11    1    3    3    0    0 -0.83490700252E+02 -0.57590895355E+02 -0.52176838653E+03  0.53153518928E+03  0.00000000000E+00 0. -1.
        -11    1    3    3    0    0 -0.27688486413E+02 -0.13031847476E+03 -0.54175488013E+03  0.55789596457E+03  0.00000000000E+00 0.  1.
         22    1    1    2    0    0  0.11117918666E+03  0.18790937011E+03  0.27937559648E+03  0.35457223077E+03  0.00000000000E+00 0.  1.
<mgrwt>
<rscale>  0 0.12125420E+04</rscale>
<asrwt>0</asrwt>
<pdfrwt beam="1">  1        1 0.17139623E+00 0.12125420E+04</pdfrwt>
<pdfrwt beam="2">  1       -1 0.50758132E-01 0.12125420E+04</pdfrwt>
<totfact> 0.47706726E+01</totfact>
</mgrwt>
</event>
<event>
 6    1  0.1773638E-005  0.7119423E+03  0.7818608E-02  0.9697024E-01
         -2   -1    0    0    0  501 -0.00000000000E+00  0.00000000000E+00  0.94018984486E+02  0.94018984486E+02  0.00000000000E+00 0.  1.
          2   -1    0    0  501    0  0.00000000000E+00 -0.00000000000E+00 -0.13477645638E+04  0.13477645638E+04  0.00000000000E+00 0. -1.
         23    2    1    2    0    0  0.29003635237E+03 -0.19552651656E+03 -0.66457460738E+03  0.75660171947E+03  0.91842521548E+02 0.  0.
         11    1    3    3    0    0  0.26381425685E+03 -0.13760610730E+03 -0.56240428462E+03  0.63626408216E+03  0.00000000000E+00 0.  1.
        -11    1    3    3    0    0  0.26222095517E+02 -0.57920409262E+02 -0.10217032276E+03  0.12033763731E+03  0.00000000000E+00 0. -1.
         22    1    1    2    0    0 -0.29003635237E+03  0.19552651656E+03 -0.58917097197E+03  0.68518182884E+03  0.00000000000E+00 0.  1.
<mgrwt>
<rscale>  0 0.71194229E+03</rscale>
<asrwt>0</asrwt>
<pdfrwt beam="1">  1        2 0.20734839E+00 0.71194229E+03</pdfrwt>
<pdfrwt beam="2">  1       -2 0.14464459E-01 0.71194229E+03</pdfrwt>
<totfact> 0.58437348E+02</totfact>
</mgrwt>
</event>
<event>
 6    1  0.1773638E-005  0.1782558E+04  0.7818608E-02  0.8715630E-01
         -1   -1    0    0    0  501 -0.00000000000E+00  0.00000000000E+00  0.71002477017E+03  0.71002477017E+03  0.00000000000E+00 0.  1.
          1   -1    0    0  501    0  0.00000000000E+00 -0.00000000000E+00 -0.11188031063E+04  0.11188031063E+04  0.00000000000E+00 0. -1.
         23    2    1    2    0    0 -0.49757061944E+03  0.68745034832E+03  0.66579539519E+02  0.85613593515E+03  0.91495363945E+02 0.  0.
         11    1    3    3    0    0 -0.30323827651E+03  0.42256339255E+03 -0.39466491412E+01  0.52012387861E+03  0.00000000000E+00 0.  1.
        -11    1    3    3    0    0 -0.19433234293E+03  0.26488695577E+03  0.70526188660E+02  0.33601205653E+03  0.00000000000E+00 0. -1.
         22    1    1    2    0    0  0.49757061944E+03 -0.68745034832E+03 -0.47535787561E+03  0.97269194129E+03  0.00000000000E+00 0. -1.
<mgrwt>
<rscale>  0 0.17825576E+04</rscale>
<asrwt>0</asrwt>
<pdfrwt beam="1">  1        1 0.17212355E+00 0.17825576E+04</pdfrwt>
<pdfrwt beam="2">  1       -1 0.10923458E+00 0.17825576E+04</pdfrwt>
<totfact> 0.89999352E+00</totfact>
</mgrwt>
</event>
<event>
 6    1  0.1773638E-005  0.2303335E+04  0.7818608E-02  0.8476607E-01
          2   -1    0    0  501    0  0.00000000000E+00  0.00000000000E+00  0.78016842526E+03  0.78016842526E+03  0.00000000000E+00 0. -1.
         -2   -1    0    0    0  501 -0.00000000000E+00 -0.00000000000E+00 -0.17000665017E+04  0.17000665017E+04  0.00000000000E+00 0.  1.
         23    2    1    2    0    0  0.19582785154E+03 -0.75790220931E+03 -0.13676953879E+04  0.15784108097E+04  0.89586292271E+02 0.  0.
         13    1    3    3    0    0  0.10696806132E+03 -0.52544338323E+03 -0.99445337245E+03  0.11298099066E+04  0.00000000000E+00 0.  1.
        -13    1    3    3    0    0  0.88859790219E+02 -0.23245882608E+03 -0.37324201543E+03  0.44860090305E+03  0.00000000000E+00 0. -1.
         22    1    1    2    0    0 -0.19582785154E+03  0.75790220931E+03  0.44779731147E+03  0.90182411726E+03  0.00000000000E+00 0. -1.
<mgrwt>
<rscale>  0 0.23033352E+04</rscale>
<asrwt>0</asrwt>
<pdfrwt beam="1">  1        2 0.12002591E+00 0.23033352E+04</pdfrwt>
<pdfrwt beam="2">  1       -2 0.26154869E+00 0.23033352E+04</pdfrwt>
<totfact> 0.17618598E+00</totfact>
</mgrwt>
</event>
<event>
 6    1  0.1773638E-005  0.7841730E+03  0.7818608E-02  0.9583213E-01
          4   -1    0    0  501    0  0.00000000000E+00  0.00000000000E+00  0.86067038269E+02  0.86067038269E+02  0.00000000000E+00 0. -1.
         -4   -1    0    0    0  501 -0.00000000000E+00 -0.00000000000E+00 -0.17861869749E+04  0.17861869749E+04  0.00000000000E+00 0.  1.
         23    2    1    2    0    0 -0.66532916193E+02 -0.35258057661E+03 -0.51644037563E+03  0.63538821808E+03  0.90927631403E+02 0.  0.
         13    1    3    3    0    0 -0.35466807855E+02 -0.12205527791E+03 -0.11490520357E+03  0.17134348874E+03  0.00000000000E+00 0.  1.
        -13    1    3    3    0    0 -0.31066108338E+02 -0.23052529869E+03 -0.40153517206E+03  0.46404472934E+03  0.00000000000E+00 0. -1.
         22    1    1    2    0    0  0.66532916193E+02  0.35258057661E+03 -0.11836795610E+04  0.12368657951E+04  0.00000000000E+00 0.  1.
<mgrwt>
<rscale>  0 0.78417300E+03</rscale>
<asrwt>0</asrwt>
<pdfrwt beam="1">  1        4 0.13241083E-01 0.78417300E+03</pdfrwt>
<pdfrwt beam="2">  1       -4 0.27479799E+00 0.78417300E+03</pdfrwt>
<totfact> 0.43971643E+00</totfact>
</mgrwt>
</event>
<event>
 6    1  0.1773638E-005  0.2748051E+04  0.7818608E-02  0.8319580E-01
          2   -1    0    0  501    0  0.00000000000E+00  0.00000000000E+00  0.11781947706E+04  0.11781947706E+04  0.00000000000E+00 0. -1.
         -2   -1    0    0    0  501 -0.00000000000E+00 -0.00000000000E+00 -0.16024061607E+04  0.16024061607E+04  0.00000000000E+00 0.  1.
         23    2    1    2    0    0  0.12299454379E+04  0.52181273591E+03 -0.52826105939E+03  0.14404962170E+04  0.10447627825E+03 0.  0.
         13    1    3    3    0    0  0.76705983250E+03  0.27003008129E+03 -0.32225918456E+03  0.87472739380E+03  0.00000000000E+00 0.  1.
        -13    1    3    3    0    0  0.46288560542E+03  0.25178265462E+03 -0.20600187483E+03  0.56576882320E+03  0.00000000000E+00 0. -1.
         22    1    1    2    0    0 -0.12299454379E+04 -0.52181273591E+03  0.10404966931E+03  0.13401047143E+04  0.00000000000E+00 0.  1.
<mgrwt>
<rscale>  0 0.27480514E+04</rscale>
<asrwt>0</asrwt>
<pdfrwt beam="1">  1        2 0.18126073E+00 0.27480514E+04</pdfrwt>
<pdfrwt beam="2">  1       -2 0.24652402E+00 0.27480514E+04</pdfrwt>
<totfact> 0.11515744E+00</totfact>
</mgrwt>
</event>
<event>
 6    1  0.1773638E-005  0.3144715E+04  0.7818608E-02  0.8203572E-01
          2   -1    0    0  501    0  0.00000000000E+00  0.00000000000E+00  0.38817669859E+04  0.38817669859E+04  0.00000000000E+00 0. -1.
         -2   -1    0    0    0  501 -0.00000000000E+00 -0.00000000000E+00 -0.63690288415E+03  0.63690288415E+03  0.00000000000E+00 0.  1.
         23    2    1    2    0    0 -0.15527343265E+04  0.22079367273E+00  0.12784738573E+04  0.20131410773E+04  0.85191877140E+02 0.  0.
         13    1    3    3    0    0 -0.97019920338E+03  0.92919160097E+01  0.74628351808E+03  0.12240555230E+04  0.00000000000E+00 0.  1.
        -13    1    3    3    0    0 -0.58253512316E+03 -0.90711223369E+01  0.53219033919E+03  0.78908555436E+03  0.00000000000E+00 0. -1.
         22    1    1    2    0    0  0.15527343265E+04 -0.22079367273E+00  0.19663902444E+04  0.25055287927E+04  0.00000000000E+00 0.  1.
<mgrwt>
<rscale>  0 0.31447153E+04</rscale>
<asrwt>0</asrwt>
<pdfrwt beam="1">  1        2 0.59719491E+00 0.31447153E+04</pdfrwt>
<pdfrwt beam="2">  1       -2 0.97985061E-01 0.31447153E+04</pdfrwt>
<totfact> 0.31102170E-01</totfact>
</mgrwt>
</event>
<event>
 6    1  0.1773638E-005  0.1949526E+04  0.7818608E-02  0.8630589E-01
         -1   -1    0    0    0  501 -0.00000000000E+00  0.00000000000E+00  0.71507124670E+03  0.71507124670E+03  0.00000000000E+00 0.  1.
          1   -1    0    0  501    0  0.00000000000E+00 -0.00000000000E+00 -0.13287671040E+04  0.13287671040E+04  0.00000000000E+00 0. -1.
         23    2    1    2    0    0 -0.48459432886E+03  0.46848957627E+03  0.42750219819E+03  0.80351277353E+03  0.92522976192E+02 0.  0.
         11    1    3    3    0    0 -0.11749448619E+03  0.80108728210E+02  0.56890986328E+02  0.15316313834E+03  0.00000000000E+00 0.  1.
        -11    1    3    3    0    0 -0.36709984267E+03  0.38838084806E+03  0.37061121186E+03  0.65034963519E+03  0.00000000000E+00 0. -1.
         22    1    1    2    0    0  0.48459432886E+03 -0.46848957627E+03 -0.10411980555E+04  0.12403255772E+04  0.00000000000E+00 0. -1.
<mgrwt>
<rscale>  0 0.19495262E+04</rscale>
<asrwt>0</asrwt>
<pdfrwt beam="1">  1        1 0.20442571E+00 0.19495262E+04</pdfrwt>
<pdfrwt beam="2">  1       -1 0.11001096E+00 0.19495262E+04</pdfrwt>
<totfact> 0.61335856E+00</totfact>
</mgrwt>
</event>
<event>
 6    1  0.1773638E-005  0.4127436E+04  0.7818608E-02  0.7979321E-01
          2   -1    0    0  501    0  0.00000000000E+00  0.00000000000E+00  0.20504407130E+04  0.20504407130E+04  0.00000000000E+00 0.  1.
         -2   -1    0    0    0  501 -0.00000000000E+00 -0.00000000000E+00 -0.20770809958E+04  0.20770809958E+04  0.00000000000E+00 0. -1.
         23    2    1    2    0    0  0.11492440460E+04  0.16994582694E+04  0.20160429883E+03  0.20632988826E+04  0.87393928198E+02 0.  0.
         11    1    3    3    0    0  0.78883283785E+03  0.12244394068E+04  0.16594005731E+03  0.14659622129E+04  0.00000000000E+00 0.  1.
        -11    1    3    3    0    0  0.36041120820E+03  0.47501886261E+03  0.35664241523E+02  0.59733666969E+03  0.00000000000E+00 0. -1.
         22    1    1    2    0    0 -0.11492440460E+04 -0.16994582694E+04 -0.22824458164E+03  0.20642228261E+04  0.00000000000E+00 0. -1.
<mgrwt>
<rscale>  0 0.41274357E+04</rscale>
<asrwt>0</asrwt>
<pdfrwt beam="1">  1        2 0.31545242E+00 0.41274357E+04</pdfrwt>
<pdfrwt beam="2">  1       -2 0.31955092E+00 0.41274357E+04</pdfrwt>
<totfact> 0.11783197E-01</totfact>
</mgrwt>
</event>
<event>
 6    1  0.1773638E-005  0.1753412E+04  0.7818608E-02  0.8731475E-01
          1   -1    0    0  501    0  0.00000000000E+00  0.00000000000E+00  0.12526889154E+04  0.12526889154E+04  0.00000000000E+00 0. -1.
         -1   -1    0    0    0  501 -0.00000000000E+00 -0.00000000000E+00 -0.61357071139E+03  0.61357071139E+03  0.00000000000E+00 0.  1.
         23    2    1    2    0    0 -0.72138322569E+03 -0.48947583690E+03  0.38686518828E+03  0.95872894565E+03  0.97550828347E+02 0.  0.
         11    1    3    3    0    0 -0.30243855798E+03 -0.15084956174E+03  0.16575776166E+03  0.37643101251E+03  0.00000000000E+00 0. -1.
        -11    1    3    3    0    0 -0.41894466771E+03 -0.33862627517E+03  0.22110742662E+03  0.58229793314E+03  0.00000000000E+00 0.  1.
         22    1    1    2    0    0  0.72138322569E+03  0.48947583690E+03  0.25225301570E+03  0.90753068111E+03  0.00000000000E+00 0.  1.
<mgrwt>
<rscale>  0 0.17534118E+04</rscale>
<asrwt>0</asrwt>
<pdfrwt beam="1">  1        1 0.19272137E+00 0.17534118E+04</pdfrwt>
<pdfrwt beam="2">  1       -1 0.94395494E-01 0.17534118E+04</pdfrwt>
<totfact> 0.10067747E+01</totfact>
</mgrwt>
</event>
<event>
 6    1  0.2131345E-005  0.3473020E+04  0.7818608E-02  0.8120214E-01
          4   -1    0    0  501    0  0.00000000000E+00  0.00000000000E+00  0.24479884499E+04  0.24479884499E+04  0.00000000000E+00 0. -1.
         -4   -1    0    0    0  501 -0.00000000000E+00 -0.00000000000E+00 -0.12318139270E+04  0.12318139270E+04  0.00000000000E+00 0.  1.
         23    2    1    2    0    0 -0.85881465221E+03 -0.11728359407E+04 -0.39563545927E+03  0.15093097671E+04  0.91552202618E+02 0.  0.
         11    1    3    3    0    0 -0.36490341744E+03 -0.57291365545E+03 -0.17208686448E+03  0.70071281534E+03  0.00000000000E+00 0. -1.
        -11    1    3    3    0    0 -0.49391123476E+03 -0.59992228530E+03 -0.22354859479E+03  0.80859695180E+03  0.00000000000E+00 0.  1.
         22    1    1    2    0    0  0.85881465221E+03  0.11728359407E+04  0.16118099822E+04  0.21704926098E+04  0.00000000000E+00 0. -1.
<mgrwt>
<rscale>  0 0.34730196E+04</rscale>
<asrwt>0</asrwt>
<pdfrwt beam="1">  1        4 0.37661361E+00 0.34730196E+04</pdfrwt>
<pdfrwt beam="2">  1       -4 0.18950984E+00 0.34730196E+04</pdfrwt>
<totfact> 0.24779987E-03</totfact>
</mgrwt>
</event>
<event>
 6    1  0.1773638E-005  0.3687644E+04  0.7818608E-02  0.8070706E-01
          1   -1    0    0  501    0  0.00000000000E+00  0.00000000000E+00  0.16205860903E+04  0.16205860903E+04  0.00000000000E+00 0. -1.
         -1   -1    0    0    0  501 -0.00000000000E+00 -0.00000000000E+00 -0.20978082432E+04  0.20978082432E+04  0.00000000000E+00 0.  1.
         23    2    1    2    0    0  0.81563644332E+03  0.16460634957E+04 -0.92324651776E+02  0.18414462986E+04  0.87251303365E+02 0.  0.
         13    1    3    3    0    0  0.53052560640E+03  0.11539747472E+04 -0.47682923027E+02  0.12709794638E+04  0.00000000000E+00 0. -1.
        -13    1    3    3    0    0  0.28511083692E+03  0.49208874843E+03 -0.44641728749E+02  0.57046683480E+03  0.00000000000E+00 0.  1.
         22    1    1    2    0    0 -0.81563644332E+03 -0.16460634957E+04 -0.38489750107E+03  0.18769480349E+04  0.00000000000E+00 0. -1.
<mgrwt>
<rscale>  0 0.36876436E+04</rscale>
<asrwt>0</asrwt>
<pdfrwt beam="1">  1        1 0.24932094E+00 0.36876436E+04</pdfrwt>
<pdfrwt beam="2">  1       -1 0.32273973E+00 0.36876436E+04</pdfrwt>
<totfact> 0.10186629E-01</totfact>
</mgrwt>
</event>
<event>
 6    1  0.1773638E-005  0.3032211E+04  0.7818608E-02  0.8234592E-01
         -2   -1    0    0    0  501 -0.00000000000E+00  0.00000000000E+00  0.11606107823E+04  0.11606107823E+04  0.00000000000E+00 0. -1.
          2   -1    0    0  501    0  0.00000000000E+00 -0.00000000000E+00 -0.19804876701E+04  0.19804876701E+04  0.00000000000E+00 0.  1.
         23    2    1    2    0    0 -0.13113270019E+04 -0.46396073016E+03 -0.10314179599E+04  0.17341202400E+04  0.92260141431E+02 0.  0.
         11    1    3    3    0    0 -0.21490605531E+03 -0.41397198591E+02 -0.15268736277E+03  0.26685533798E+03  0.00000000000E+00 0. -1.
        -11    1    3    3    0    0 -0.10964209466E+04 -0.42256353157E+03 -0.87873059708E+03  0.14672649020E+04  0.00000000000E+00 0.  1.
         22    1    1    2    0    0  0.13113270019E+04  0.46396073016E+03  0.21154107202E+03  0.14069782124E+04  0.00000000000E+00 0. -1.
<mgrwt>
<rscale>  0 0.30322106E+04</rscale>
<asrwt>0</asrwt>
<pdfrwt beam="1">  1        2 0.30469041E+00 0.30322106E+04</pdfrwt>
<pdfrwt beam="2">  1       -2 0.17855551E+00 0.30322106E+04</pdfrwt>
<totfact> 0.10853306E+00</totfact>
</mgrwt>
</event>
<event>
 6    1  0.1773638E-005  0.3174833E+04  0.7818608E-02  0.8195495E-01
          2   -1    0    0  501    0  0.00000000000E+00  0.00000000000E+00  0.10811903164E+04  0.10811903164E+04  0.00000000000E+00 0. -1.
         -2   -1    0    0    0  501 -0.00000000000E+00 -0.00000000000E+00 -0.23306643245E+04  0.23306643245E+04  0.00000000000E+00 0.  1.
         23    2    1    2    0    0  0.27961511264E+03 -0.13346428216E+04 -0.14958640218E+04  0.20261547775E+04  0.90763088918E+02 0.  0.
         11    1    3    3    0    0  0.24427467202E+03 -0.12529142306E+04 -0.13772712657E+04  0.18778552458E+04  0.00000000000E+00 0. -1.
        -11    1    3    3    0    0  0.35340440615E+02 -0.81728591007E+02 -0.11859275603E+03  0.14829953174E+03  0.00000000000E+00 0.  1.
         22    1    1    2    0    0 -0.27961511264E+03  0.13346428216E+04  0.24639001373E+03  0.13856998634E+04  0.00000000000E+00 0. -1.
<mgrwt>
<rscale>  0 0.31748333E+04</rscale>
<asrwt>0</asrwt>
<pdfrwt beam="1">  1        2 0.16633697E+00 0.31748333E+04</pdfrwt>
<pdfrwt beam="2">  1       -2 0.35856374E+00 0.31748333E+04</pdfrwt>
<totfact> 0.25921523E-01</totfact>
</mgrwt>
</event>
<event>
 6    1  0.1773638E-005  0.1595589E+04  0.7818608E-02  0.8823262E-01
          1   -1    0    0  501    0  0.00000000000E+00  0.00000000000E+00  0.15116634336E+04  0.15116634336E+04  0.00000000000E+00 0. -1.
         -1   -1    0    0    0  501 -0.00000000000E+00 -0.00000000000E+00 -0.42104361492E+03  0.42104361492E+03  0.00000000000E+00 0.  1.
         23    2    1    2    0    0 -0.41517983688E+03 -0.41481051465E+03  0.11969514920E+04  0.13362605004E+04  0.91962984881E+02 0.  0.
         11    1    3    3    0    0 -0.13528888210E+03 -0.19241586949E+03  0.51958603380E+03  0.57034778423E+03  0.00000000000E+00 0.  1.
        -11    1    3    3    0    0 -0.27989095478E+03 -0.22239464516E+03  0.67736545821E+03  0.76591271613E+03  0.00000000000E+00 0. -1.
         22    1    1    2    0    0  0.41517983688E+03  0.41481051465E+03 -0.10633167335E+03  0.59644654813E+03  0.00000000000E+00 0. -1.
<mgrwt>
<rscale>  0 0.15955892E+04</rscale>
<asrwt>0</asrwt>
<pdfrwt beam="1">  1        1 0.23256360E+00 0.15955892E+04</pdfrwt>
<pdfrwt beam="2">  1       -1 0.64775942E-01 0.15955892E+04</pdfrwt>
<totfact> 0.14892845E+01</totfact>
</mgrwt>
</event>
<event>
 6    1  0.1773638E-005  0.2968419E+04  0.7818608E-02  0.8252807E-01
          2   -1    0    0  501    0  0.00000000000E+00  0.00000000000E+00  0.34386669326E+04  0.34386669326E+04  0.00000000000E+00 0. -1.
         -2   -1    0    0    0  501 -0.00000000000E+00 -0.00000000000E+00 -0.64061958758E+03  0.64061958758E+03  0.00000000000E+00 0.  1.
         23    2    1    2    0    0 -0.45649326725E+03  0.48847992133E+03 -0.41848131105E+03  0.79400794266E+03  0.91231950070E+02 0.  0.
         11    1    3    3    0    0 -0.87619521907E+02  0.47649260155E+02 -0.69400203739E+02  0.12150728740E+03  0.00000000000E+00 0.  1.
        -11    1    3    3    0    0 -0.36887374534E+03  0.44083066117E+03 -0.34908110731E+03  0.67250065525E+03  0.00000000000E+00 0. -1.
         22    1    1    2    0    0  0.45649326725E+03 -0.48847992133E+03  0.32165286561E+04  0.32852785776E+04  0.00000000000E+00 0. -1.
<mgrwt>
<rscale>  0 0.29684187E+04</rscale>
<asrwt>0</asrwt>
<pdfrwt beam="1">  1        2 0.52902567E+00 0.29684187E+04</pdfrwt>
<pdfrwt beam="2">  1       -2 0.98556862E-01 0.29684187E+04</pdfrwt>
<totfact> 0.65756046E-01</totfact>
</mgrwt>
</event>
<event>
 6    1  0.1773638E-005  0.3675528E+04  0.7818608E-02  0.8073407E-01
         -1   -1    0    0    0  501 -0.00000000000E+00  0.00000000000E+00  0.91085176104E+03  0.91085176104E+03  0.00000000000E+00 0.  1.
          1   -1    0    0  501    0  0.00000000000E+00 -0.00000000000E+00 -0.37079314424E+04  0.37079314424E+04  0.00000000000E+00 0. -1.
         23    2    1    2    0    0 -0.16517900909E+04 -0.34686377431E+03 -0.48921854480E+03  0.17595966044E+04  0.90113502926E+02 0.  0.
         11    1    3    3    0    0 -0.80515406971E+03 -0.17820727043E+03 -0.28498802529E+03  0.87249589212E+03  0.00000000000E+00 0.  1.
        -11    1    3    3    0    0 -0.84663602120E+03 -0.16865650387E+03 -0.20423051951E+03  0.88710071231E+03  0.00000000000E+00 0. -1.
         22    1    1    2    0    0  0.16517900909E+04  0.34686377431E+03 -0.23078611366E+04  0.28591865990E+04  0.00000000000E+00 0. -1.
<mgrwt>
<rscale>  0 0.36755277E+04</rscale>
<asrwt>0</asrwt>
<pdfrwt beam="1">  1        1 0.57045099E+00 0.36755277E+04</pdfrwt>
<pdfrwt beam="2">  1       -1 0.14013104E+00 0.36755277E+04</pdfrwt>
<totfact> 0.57017595E-02</totfact>
</mgrwt>
</event>
<event>
 6    1  0.1773638E-005  0.7182761E+04  0.7818608E-02  0.7558875E-01
         -1   -1    0    0    0  501 -0.00000000000E+00  0.00000000000E+00  0.39372512040E+04  0.39372512040E+04  0.00000000000E+00 0.  1.
          1   -1    0    0  501    0  0.00000000000E+00 -0.00000000000E+00 -0.32758927272E+04  0.32758927272E+04  0.00000000000E+00 0. -1.
         23    2    1    2    0    0 -0.34542255874E+04 -0.39205147324E+03  0.12336866434E+04  0.36899439232E+04  0.91239551048E+02 0.  0.
         11    1    3    3    0    0 -0.29418832880E+04 -0.36510751179E+03  0.10614294803E+04  0.31487478967E+04  0.00000000000E+00 0. -1.
        -11    1    3    3    0    0 -0.51234229936E+03 -0.26943961446E+02  0.17225716315E+03  0.54119602644E+03  0.00000000000E+00 0.  1.
         22    1    1    2    0    0  0.34542255874E+04  0.39205147324E+03 -0.57232816667E+03  0.35232000080E+04  0.00000000000E+00 0.  1.
<mgrwt>
<rscale>  0 0.71827606E+04</rscale>
<asrwt>0</asrwt>
<pdfrwt beam="1">  1        1 0.50398350E+00 0.71827606E+04</pdfrwt>
<pdfrwt beam="2">  1       -1 0.60573095E+00 0.71827606E+04</pdfrwt>
<totfact> 0.98335288E-05</totfact>
</mgrwt>
</event>
<event>
 6    1  0.1773638E-005  0.3417432E+04  0.7818608E-02  0.8133641E-01
          1   -1    0    0  501    0  0.00000000000E+00  0.00000000000E+00  0.12743889187E+04  0.12743889187E+04  0.00000000000E+00 0. -1.
         -1   -1    0    0    0  501 -0.00000000000E+00 -0.00000000000E+00 -0.22910669434E+04  0.22910669434E+04  0.00000000000E+00 0.  1.
         23    2    1    2    0    0 -0.27544681434E+03 -0.16699139796E+04 -0.74437028700E+03  0.18512110865E+04  0.91715407331E+02 0.  0.
         11    1    3    3    0    0 -0.25412564261E+03 -0.13705173705E+04 -0.63561628606E+03  0.15319614121E+04  0.00000000000E+00 0. -1.
        -11    1    3    3    0    0 -0.21321171735E+02 -0.29939660902E+03 -0.10875400094E+03  0.31924967436E+03  0.00000000000E+00 0.  1.
         22    1    1    2    0    0  0.27544681434E+03  0.16699139796E+04 -0.27230773777E+03  0.17142447756E+04  0.00000000000E+00 0.  1.
<mgrwt>
<rscale>  0 0.34174320E+04</rscale>
<asrwt>0</asrwt>
<pdfrwt beam="1">  1        1 0.19605984E+00 0.34174320E+04</pdfrwt>
<pdfrwt beam="2">  1       -1 0.35247183E+00 0.34174320E+04</pdfrwt>
<totfact> 0.11593137E-01</totfact>
</mgrwt>
</event>
<event>
 6    1  0.1773638E-005  0.1176776E+04  0.7818608E-02  0.9133431E-01
          2   -1    0    0  501    0  0.00000000000E+00  0.00000000000E+00  0.10531655017E+04  0.10531655017E+04  0.00000000000E+00 0. -1.
         -2   -1    0    0    0  501 -0.00000000000E+00 -0.00000000000E+00 -0.32872377489E+03  0.32872377489E+03  0.00000000000E+00 0.  1.
         23    2    1    2    0    0 -0.60672703761E+02 -0.55262088948E+03  0.15083625141E+03  0.58308124841E+03  0.90339044896E+02 0.  0.
         11    1    3    3    0    0 -0.66137572610E+02 -0.27761703497E+03  0.10576717325E+03  0.30435520622E+03  0.00000000000E+00 0.  1.
        -11    1    3    3    0    0  0.54648688490E+01 -0.27500385451E+03  0.45069078166E+02  0.27872604219E+03  0.00000000000E+00 0. -1.
         22    1    1    2    0    0  0.60672703761E+02  0.55262088948E+03  0.57360547540E+03  0.79880802818E+03  0.00000000000E+00 0.  1.
<mgrwt>
<rscale>  0 0.11767762E+04</rscale>
<asrwt>0</asrwt>
<pdfrwt beam="1">  1        2 0.16202546E+00 0.11767762E+04</pdfrwt>
<pdfrwt beam="2">  1       -2 0.50572889E-01 0.11767762E+04</pdfrwt>
<totfact> 0.85114279E+01</totfact>
</mgrwt>
</event>
<event>
 6    1  0.1773638E-005  0.3471764E+04  0.7818608E-02  0.8120514E-01
          2   -1    0    0  501    0  0.00000000000E+00  0.00000000000E+00  0.28983006895E+04  0.28983006895E+04  0.00000000000E+00 0. -1.
         -2   -1    0    0    0  501 -0.00000000000E+00 -0.00000000000E+00 -0.10396736283E+04  0.10396736283E+04  0.00000000000E+00 0.  1.
         23    2    1    2    0    0 -0.77821141954E+03  0.43976143665E+03  0.26162654216E+04  0.27662153751E+04  0.89997837943E+02 0.  0.
         13    1    3    3    0    0 -0.40093301796E+03  0.19641002024E+03  0.11919791155E+04  0.12728465708E+04  0.00000000000E+00 0. -1.
        -13    1    3    3    0    0 -0.37727840158E+03  0.24335141642E+03  0.14242863060E+04  0.14933688043E+04  0.00000000000E+00 0.  1.
         22    1    1    2    0    0  0.77821141954E+03 -0.43976143665E+03 -0.75763836034E+03  0.11717589427E+04  0.00000000000E+00 0.  1.
<mgrwt>
<rscale>  0 0.34717643E+04</rscale>
<asrwt>0</asrwt>
<pdfrwt beam="1">  1        2 0.44589241E+00 0.34717643E+04</pdfrwt>
<pdfrwt beam="2">  1       -2 0.15994979E+00 0.34717643E+04</pdfrwt>
<totfact> 0.41792630E-01</totfact>
</mgrwt>
</event>
<event>
 6    1  0.1773638E-005  0.3328489E+04  0.7818608E-02  0.8155684E-01
         -2   -1    0    0    0  501 -0.00000000000E+00  0.00000000000E+00  0.85949106414E+03  0.85949106414E+03  0.00000000000E+00 0.  1.
          2   -1    0    0  501    0  0.00000000000E+00 -0.00000000000E+00 -0.32224991926E+04  0.32224991926E+04  0.00000000000E+00 0. -1.
         23    2    1    2    0    0  0.98908711250E+03 -0.85635820745E+03  0.76707497017E+02  0.13136234045E+04  0.89887224281E+02 0.  0.
         11    1    3    3    0    0  0.56256174362E+03 -0.52887766261E+03  0.14225254727E+02  0.77226268540E+03  0.00000000000E+00 0. -1.
        -11    1    3    3    0    0  0.42652536888E+03 -0.32748054484E+03  0.62482242289E+02  0.54136071907E+03  0.00000000000E+00 0.  1.
         22    1    1    2    0    0 -0.98908711250E+03  0.85635820745E+03 -0.24397156254E+04  0.27683668522E+04  0.00000000000E+00 0. -1.
<mgrwt>
<rscale>  0 0.33284887E+04</rscale>
<asrwt>0</asrwt>
<pdfrwt beam="1">  1        2 0.49576910E+00 0.33284887E+04</pdfrwt>
<pdfrwt beam="2">  1       -2 0.13222940E+00 0.33284887E+04</pdfrwt>
<totfact> 0.43401315E-01</totfact>
</mgrwt>
</event>
<event>
 6    1  0.1773638E-005  0.3684139E+04  0.7818608E-02  0.8071486E-01
         -2   -1    0    0    0  501 -0.00000000000E+00  0.00000000000E+00  0.20386057389E+04  0.20386057389E+04  0.00000000000E+00 0.  1.
          2   -1    0    0  501    0  0.00000000000E+00 -0.00000000000E+00 -0.16644805378E+04  0.16644805378E+04  0.00000000000E+00 0. -1.
         23    2    1    2    0    0  0.70930666717E+03 -0.14216650244E+04 -0.74761823769E+03  0.17582069148E+04  0.90061847534E+02 0.  0.
         13    1    3    3    0    0  0.30615333827E+03 -0.68553572599E+03 -0.31825807948E+03  0.81546140516E+03  0.00000000000E+00 0. -1.
        -13    1    3    3    0    0  0.40315332890E+03 -0.73612929841E+03 -0.42936015821E+03  0.94274550969E+03  0.00000000000E+00 0.  1.
         22    1    1    2    0    0 -0.70930666717E+03  0.14216650244E+04  0.11217434389E+04  0.19448793619E+04  0.00000000000E+00 0.  1.
<mgrwt>
<rscale>  0 0.36841387E+04</rscale>
<asrwt>0</asrwt>
<pdfrwt beam="1">  1        2 0.25607393E+00 0.36841387E+04</pdfrwt>
<pdfrwt beam="2">  1       -2 0.31363165E+00 0.36841387E+04</pdfrwt>
<totfact> 0.21774036E-01</totfact>
</mgrwt>
</event>
<event>
 6    1  0.1773638E-005  0.1336554E+04  0.7818608E-02  0.9001070E-01
         -2   -1    0    0    0  501 -0.00000000000E+00  0.00000000000E+00  0.28270428577E+03  0.28270428577E+03  0.00000000000E+00 0.  1.
          2   -1    0    0  501    0  0.00000000000E+00 -0.00000000000E+00 -0.15797213463E+04  0.15797213463E+04  0.00000000000E+00 0. -1.
         23    2    1    2    0    0  0.35230546735E+03 -0.22408631740E+03 -0.13734673115E+04  0.14379512974E+04  0.83412575722E+02 0.  0.
         13    1    3    3    0    0  0.27513176849E+03 -0.13363557103E+03 -0.94300701248E+03  0.99137186841E+03  0.00000000000E+00 0.  1.
        -13    1    3    3    0    0  0.77173698856E+02 -0.90450746370E+02 -0.43046029905E+03  0.44657942896E+03  0.00000000000E+00 0. -1.
         22    1    1    2    0    0 -0.35230546735E+03  0.22408631740E+03  0.76450250979E+02  0.42447433473E+03  0.00000000000E+00 0.  1.
<mgrwt>
<rscale>  0 0.13365538E+04</rscale>
<asrwt>0</asrwt>
<pdfrwt beam="1">  1        2 0.24303405E+00 0.13365538E+04</pdfrwt>
<pdfrwt beam="2">  1       -2 0.43492967E-01 0.13365538E+04</pdfrwt>
<totfact> 0.56088407E+01</totfact>
</mgrwt>
</event>
<event>
 6    1  0.1773638E-005  0.1348968E+04  0.7818608E-02  0.8991610E-01
          2   -1    0    0  501    0  0.00000000000E+00  0.00000000000E+00  0.21246030800E+04  0.21246030800E+04  0.00000000000E+00 0. -1.
         -2   -1    0    0    0  501 -0.00000000000E+00 -0.00000000000E+00 -0.21412414355E+03  0.21412414355E+03  0.00000000000E+00 0.  1.
         23    2    1    2    0    0  0.38988800001E+03  0.54207727676E+03  0.83416934794E+03  0.10721164874E+04  0.87947911178E+02 0.  0.
         11    1    3    3    0    0  0.25969368339E+03  0.29628480291E+03  0.52226234027E+03  0.65420443723E+03  0.00000000000E+00 0.  1.
        -11    1    3    3    0    0  0.13019431662E+03  0.24579247385E+03  0.31190700766E+03  0.41791205021E+03  0.00000000000E+00 0. -1.
         22    1    1    2    0    0 -0.38988800001E+03 -0.54207727676E+03  0.10763095886E+04  0.12666107362E+04  0.00000000000E+00 0.  1.
<mgrwt>
<rscale>  0 0.13489682E+04</rscale>
<asrwt>0</asrwt>
<pdfrwt beam="1">  1        2 0.32686200E+00 0.13489682E+04</pdfrwt>
<pdfrwt beam="2">  1       -2 0.32942177E-01 0.13489682E+04</pdfrwt>
<totfact> 0.47880321E+01</totfact>
</mgrwt>
</event>
<event>
 6    1  0.1773638E-005  0.1544839E+04  0.7818608E-02  0.8855171E-01
         -2   -1    0    0    0  501 -0.00000000000E+00  0.00000000000E+00  0.47498321280E+03  0.47498321280E+03  0.00000000000E+00 0.  1.
          2   -1    0    0  501    0  0.00000000000E+00 -0.00000000000E+00 -0.12561107133E+04  0.12561107133E+04  0.00000000000E+00 0. -1.
         23    2    1    2    0    0  0.73669456866E+03  0.14770216606E+03 -0.57973668275E+03  0.95321663573E+03  0.89400872290E+02 0.  0.
         13    1    3    3    0    0  0.30018129619E+03  0.77794040256E+02 -0.29061105066E+03  0.42498883050E+03  0.00000000000E+00 0.  1.
        -13    1    3    3    0    0  0.43651327247E+03  0.69908125801E+02 -0.28912563209E+03  0.52822780524E+03  0.00000000000E+00 0. -1.
         22    1    1    2    0    0 -0.73669456866E+03 -0.14770216606E+03 -0.20139081771E+03  0.77787729032E+03  0.00000000000E+00 0.  1.
<mgrwt>
<rscale>  0 0.15448385E+04</rscale>
<asrwt>0</asrwt>
<pdfrwt beam="1">  1        2 0.19324780E+00 0.15448385E+04</pdfrwt>
<pdfrwt beam="2">  1       -2 0.73074341E-01 0.15448385E+04</pdfrwt>
<totfact> 0.28572682E+01</totfact>
</mgrwt>
</event>
<event>
 6    1  0.1773638E-005  0.1044118E+04  0.7818608E-02  0.9261438E-01
         -3   -1    0    0    0  501 -0.00000000000E+00  0.00000000000E+00  0.10016922755E+04  0.10016922755E+04  0.00000000000E+00 0.  1.
          3   -1    0    0  501    0  0.00000000000E+00 -0.00000000000E+00 -0.27208495159E+03  0.27208495159E+03  0.00000000000E+00 0. -1.
         23    2    1    2    0    0 -0.45748116319E+03  0.98826594124E+02  0.63778290860E+03  0.79682079973E+03  0.95397264142E+02 0.  0.
         13    1    3    3    0    0 -0.31781358312E+03  0.10649425323E+03  0.48643921819E+03  0.59073650012E+03  0.00000000000E+00 0.  1.
        -13    1    3    3    0    0 -0.13966758006E+03 -0.76676591051E+01  0.15134369041E+03  0.20608429961E+03  0.00000000000E+00 0. -1.
         22    1    1    2    0    0  0.45748116319E+03 -0.98826594124E+02  0.91824415350E+02  0.47695642739E+03  0.00000000000E+00 0. -1.
<mgrwt>
<rscale>  0 0.10441176E+04</rscale>
<asrwt>0</asrwt>
<pdfrwt beam="1">  1        3 0.41859224E-01 0.10441176E+04</pdfrwt>
<pdfrwt beam="2">  1       -3 0.15410650E+00 0.10441176E+04</pdfrwt>
<totfact> 0.44573080E+00</totfact>
</mgrwt>
</event>
<event>
 6    1  0.1773638E-005  0.4103065E+03  0.7818608E-02  0.1040268E+00
          1   -1    0    0  501    0  0.00000000000E+00  0.00000000000E+00  0.19813605943E+03  0.19813605943E+03  0.00000000000E+00 0. -1.
         -1   -1    0    0    0  501 -0.00000000000E+00 -0.00000000000E+00 -0.21241894278E+03  0.21241894278E+03  0.00000000000E+00 0.  1.
         23    2    1    2    0    0 -0.18132914206E+03 -0.55806105979E+02 -0.52380770933E+02  0.21704523950E+03  0.91489407031E+02 0.  0.
         11    1    3    3    0    0 -0.27545178204E+02 -0.34016755915E+02 -0.43130460663E+02  0.61450086756E+02  0.00000000000E+00 0.  1.
        -11    1    3    3    0    0 -0.15378396386E+03 -0.21789350064E+02 -0.92503102698E+01  0.15559515274E+03  0.00000000000E+00 0. -1.
         22    1    1    2    0    0  0.18132914206E+03  0.55806105979E+02  0.38097887585E+02  0.19350976271E+03  0.00000000000E+00 0. -1.
<mgrwt>
<rscale>  0 0.41030648E+03</rscale>
<asrwt>0</asrwt>
<pdfrwt beam="1">  1        1 0.30482471E-01 0.41030648E+03</pdfrwt>
<pdfrwt beam="2">  1       -1 0.32679837E-01 0.41030648E+03</pdfrwt>
<totfact> 0.13149253E+03</totfact>
</mgrwt>
</event>
<event>
 6    1  0.1773638E-005  0.1987470E+04  0.7818608E-02  0.8612501E-01
         -2   -1    0    0    0  501 -0.00000000000E+00  0.00000000000E+00  0.10431963120E+04  0.10431963120E+04  0.00000000000E+00 0.  1.
          2   -1    0    0  501    0  0.00000000000E+00 -0.00000000000E+00 -0.94661893408E+03  0.94661893408E+03  0.00000000000E+00 0. -1.
         23    2    1    2    0    0  0.10153857744E+03  0.79945582717E+03  0.62698990262E+03  0.10250473212E+04  0.90365759456E+02 0.  0.
         11    1    3    3    0    0 -0.63875351434E+01  0.28157981231E+03  0.23059614082E+03  0.36400902662E+03  0.00000000000E+00 0.  1.
        -11    1    3    3    0    0  0.10792611258E+03  0.51787601486E+03  0.39639376180E+03  0.66103829461E+03  0.00000000000E+00 0. -1.
         22    1    1    2    0    0 -0.10153857744E+03 -0.79945582717E+03 -0.53041252475E+03  0.96476792479E+03  0.00000000000E+00 0. -1.
<mgrwt>
<rscale>  0 0.19874701E+04</rscale>
<asrwt>0</asrwt>
<pdfrwt beam="1">  1        2 0.14563368E+00 0.19874701E+04</pdfrwt>
<pdfrwt beam="2">  1       -2 0.16049174E+00 0.19874701E+04</pdfrwt>
<totfact> 0.63381975E+00</totfact>
</mgrwt>
</event>
<event>
 6    1  0.2680848E-005  0.3212032E+04  0.7818608E-02  0.8185647E-01
         -2   -1    0    0    0  501 -0.00000000000E+00  0.00000000000E+00  0.10980976476E+04  0.10980976476E+04  0.00000000000E+00 0.  1.
          2   -1    0    0  501    0  0.00000000000E+00 -0.00000000000E+00 -0.23488690369E+04  0.23488690369E+04  0.00000000000E+00 0. -1.
         23    2    1    2    0    0 -0.13852090621E+04 -0.45227064441E+03 -0.13471996673E+04  0.19866066966E+04  0.91139135457E+02 0.  0.
         11    1    3    3    0    0 -0.97018996518E+03 -0.36019788182E+03 -0.95887488464E+03  0.14108338410E+04  0.00000000000E+00 0. -1.
        -11    1    3    3    0    0 -0.41501909695E+03 -0.92072762595E+02 -0.38832478262E+03  0.57577285560E+03  0.00000000000E+00 0.  1.
         22    1    1    2    0    0  0.13852090621E+04  0.45227064441E+03  0.96428277961E+02  0.14603599879E+04  0.00000000000E+00 0. -1.
<mgrwt>
<rscale>  0 0.32120321E+04</rscale>
<asrwt>0</asrwt>
<pdfrwt beam="1">  1        2 0.36136446E+00 0.32120321E+04</pdfrwt>
<pdfrwt beam="2">  1       -2 0.16893810E+00 0.32120321E+04</pdfrwt>
<totfact> 0.77578270E-01</totfact>
</mgrwt>
</event>
<event>
 6    1  0.1773638E-005  0.3990432E+04  0.7818608E-02  0.8006480E-01
         -1   -1    0    0    0  501 -0.00000000000E+00  0.00000000000E+00  0.17219261810E+04  0.17219261810E+04  0.00000000000E+00 0.  1.
          1   -1    0    0  501    0  0.00000000000E+00 -0.00000000000E+00 -0.23118799503E+04  0.23118799503E+04  0.00000000000E+00 0. -1.
         23    2    1    2    0    0  0.11583848930E+04  0.15359973454E+02 -0.19359234165E+04  0.22579328869E+04  0.91487474513E+02 0.  0.
         11    1    3    3    0    0  0.96908893873E+03  0.16112805833E+02 -0.15500183038E+04  0.18281000344E+04  0.00000000000E+00 0.  1.
        -11    1    3    3    0    0  0.18929595426E+03 -0.75283237886E+00 -0.38590511268E+03  0.42983285245E+03  0.00000000000E+00 0. -1.
         22    1    1    2    0    0 -0.11583848930E+04 -0.15359973454E+02  0.13459696471E+04  0.17758732444E+04  0.00000000000E+00 0.  1.
<mgrwt>
<rscale>  0 0.39904319E+04</rscale>
<asrwt>0</asrwt>
<pdfrwt beam="1">  1        1 0.35567384E+00 0.39904319E+04</pdfrwt>
<pdfrwt beam="2">  1       -1 0.26491172E+00 0.39904319E+04</pdfrwt>
<totfact> 0.79768170E-02</totfact>
</mgrwt>
</event>
<event>
 6    1  0.1773638E-005  0.1353084E+04  0.7818608E-02  0.8988497E-01
         -2   -1    0    0    0  501 -0.00000000000E+00  0.00000000000E+00  0.74090949802E+03  0.74090949802E+03  0.00000000000E+00 0.  1.
          2   -1    0    0  501    0  0.00000000000E+00 -0.00000000000E+00 -0.61776630914E+03  0.61776630914E+03  0.00000000000E+00 0. -1.
         23    2    1    2    0    0 -0.15908553840E+02 -0.57783806829E+03  0.40880758740E+03  0.71388586941E+03  0.91430168892E+02 0.  0.
         11    1    3    3    0    0 -0.27820556258E+02 -0.52025246296E+03  0.33453659298E+03  0.61915372938E+03  0.00000000000E+00 0. -1.
        -11    1    3    3    0    0  0.11912002419E+02 -0.57585605329E+02  0.74270994418E+02  0.94732140029E+02  0.00000000000E+00 0.  1.
         22    1    1    2    0    0  0.15908553840E+02  0.57783806829E+03 -0.28566439851E+03  0.64478993775E+03  0.00000000000E+00 0. -1.
<mgrwt>
<rscale>  0 0.13530838E+04</rscale>
<asrwt>0</asrwt>
<pdfrwt beam="1">  1        2 0.95040971E-01 0.13530838E+04</pdfrwt>
<pdfrwt beam="2">  1       -2 0.11398608E+00 0.13530838E+04</pdfrwt>
<totfact> 0.28163621E+01</totfact>
</mgrwt>
</event>
<event>
 6    1  0.1773638E-005  0.2457424E+04  0.7818608E-02  0.8418312E-01
         -2   -1    0    0    0  501 -0.00000000000E+00  0.00000000000E+00  0.53396505074E+03  0.53396505074E+03  0.00000000000E+00 0.  1.
          2   -1    0    0  501    0  0.00000000000E+00 -0.00000000000E+00 -0.28274003565E+04  0.28274003565E+04  0.00000000000E+00 0. -1.
         23    2    1    2    0    0 -0.43594408540E+03 -0.62419159800E+03  0.16771983968E+03  0.78513811786E+03  0.93002811172E+02 0.  0.
         13    1    3    3    0    0 -0.81993250306E+02 -0.14760308032E+03  0.73119244301E+02  0.18399996278E+03  0.00000000000E+00 0. -1.
        -13    1    3    3    0    0 -0.35395083510E+03 -0.47658851768E+03  0.94600595384E+02  0.60113815508E+03  0.00000000000E+00 0.  1.
         22    1    1    2    0    0  0.43594408540E+03  0.62419159800E+03 -0.24611551455E+04  0.25762272894E+04  0.00000000000E+00 0. -1.
<mgrwt>
<rscale>  0 0.24574238E+04</rscale>
<asrwt>0</asrwt>
<pdfrwt beam="1">  1        2 0.43498468E+00 0.24574238E+04</pdfrwt>
<pdfrwt beam="2">  1       -2 0.82148467E-01 0.24574238E+04</pdfrwt>
<totfact> 0.25935841E+00</totfact>
</mgrwt>
</event>
<event>
 6    1  0.1773638E-005  0.1752333E+04  0.7818608E-02  0.8732067E-01
          2   -1    0    0  501    0  0.00000000000E+00  0.00000000000E+00  0.32461119287E+04  0.32461119287E+04  0.00000000000E+00 0. -1.
         -2   -1    0    0    0  501 -0.00000000000E+00 -0.00000000000E+00 -0.23648845522E+03  0.23648845522E+03  0.00000000000E+00 0.  1.
         23    2    1    2    0    0 -0.34824487888E+03 -0.73595833038E+03  0.21398472466E+04  0.22912063078E+04  0.88152972042E+02 0.  0.
         11    1    3    3    0    0 -0.22870285189E+03 -0.43996083844E+03  0.11909400256E+04  0.12900421227E+04  0.00000000000E+00 0.  1.
        -11    1    3    3    0    0 -0.11954202699E+03 -0.29599749194E+03  0.94890722097E+03  0.10011641851E+04  0.00000000000E+00 0. -1.
         22    1    1    2    0    0  0.34824487888E+03  0.73595833038E+03  0.86977622692E+03  0.11913940761E+04  0.00000000000E+00 0.  1.
<mgrwt>
<rscale>  0 0.17523333E+04</rscale>
<asrwt>0</asrwt>
<pdfrwt beam="1">  1        2 0.49940180E+00 0.17523333E+04</pdfrwt>
<pdfrwt beam="2">  1       -2 0.36382842E-01 0.17523333E+04</pdfrwt>
<totfact> 0.82025548E+00</totfact>
</mgrwt>
</event>
<event>
 6    1  0.1773638E-005  0.5101041E+04  0.7818608E-02  0.7813107E-01
          2   -1    0    0  501    0  0.00000000000E+00  0.00000000000E+00  0.38143290484E+04  0.38143290484E+04  0.00000000000E+00 0. -1.
         -2   -1    0    0    0  501 -0.00000000000E+00 -0.00000000000E+00 -0.17054520582E+04  0.17054520582E+04  0.00000000000E+00 0.  1.
         23    2    1    2    0    0  0.12805679660E+04 -0.87804271849E+03 -0.11335808691E+04  0.19247364198E+04  0.93762294114E+02 0.  0.
         13    1    3    3    0    0  0.12017163084E+04 -0.79556691447E+03 -0.10584641405E+04  0.17881261527E+04  0.00000000000E+00 0.  1.
        -13    1    3    3    0    0  0.78851657608E+02 -0.82475804013E+02 -0.75116728670E+02  0.13661026712E+03  0.00000000000E+00 0. -1.
         22    1    1    2    0    0 -0.12805679660E+04  0.87804271849E+03  0.32424578593E+04  0.35950446869E+04  0.00000000000E+00 0. -1.
<mgrwt>
<rscale>  0 0.51010412E+04</rscale>
<asrwt>0</asrwt>
<pdfrwt beam="1">  1        2 0.58681985E+00 0.51010412E+04</pdfrwt>
<pdfrwt beam="2">  1       -2 0.26237724E+00 0.51010412E+04</pdfrwt>
<totfact> 0.18596241E-02</totfact>
</mgrwt>
</event>
<event>
 6    1  0.1773638E-005  0.3168424E+04  0.7818608E-02  0.8197207E-01
          2   -1    0    0  501    0  0.00000000000E+00  0.00000000000E+00  0.31313717691E+04  0.31313717691E+04  0.00000000000E+00 0. -1.
         -2   -1    0    0    0  501 -0.00000000000E+00 -0.00000000000E+00 -0.80147847741E+03  0.80147847741E+03  0.00000000000E+00 0.  1.
         23    2    1    2    0    0 -0.11051059402E+04  0.33355872905E+03  0.25103568098E+04  0.27644805934E+04  0.89112705162E+02 0.  0.
         11    1    3    3    0    0 -0.42811792784E+03  0.15634470978E+03  0.90764130536E+03  0.10156482499E+04  0.00000000000E+00 0. -1.
        -11    1    3    3    0    0 -0.67698801239E+03  0.17721401927E+03  0.16027155044E+04  0.17488323435E+04  0.00000000000E+00 0.  1.
         22    1    1    2    0    0  0.11051059402E+04 -0.33355872905E+03 -0.18046351809E+03  0.11683696531E+04  0.00000000000E+00 0.  1.
<mgrwt>
<rscale>  0 0.31684236E+04</rscale>
<asrwt>0</asrwt>
<pdfrwt beam="1">  1        2 0.48174950E+00 0.31684236E+04</pdfrwt>
<pdfrwt beam="2">  1       -2 0.12330438E+00 0.31684236E+04</pdfrwt>
<totfact> 0.60133551E-01</totfact>
</mgrwt>
</event>
<event>
 6    1  0.1773638E-005  0.2582847E+04  0.7818608E-02  0.8374051E-01
          2   -1    0    0  501    0  0.00000000000E+00  0.00000000000E+00  0.15649099649E+04  0.15649099649E+04  0.00000000000E+00 0. -1.
         -2   -1    0    0    0  501 -0.00000000000E+00 -0.00000000000E+00 -0.10657318743E+04  0.10657318743E+04  0.00000000000E+00 0.  1.
         23    2    1    2    0    0 -0.24466099492E+02  0.12447671956E+04  0.59327208918E+03  0.13820836140E+04  0.90218529917E+02 0.  0.
         13    1    3    3    0    0  0.11288010732E+02  0.32560406643E+03  0.19507472071E+03  0.37973618991E+03  0.00000000000E+00 0. -1.
        -13    1    3    3    0    0 -0.35754110224E+02  0.91916312915E+03  0.39819736846E+03  0.10023474241E+04  0.00000000000E+00 0.  1.
         22    1    1    2    0    0  0.24466099492E+02 -0.12447671956E+04 -0.94093998543E+02  0.12485582252E+04  0.00000000000E+00 0.  1.
<mgrwt>
<rscale>  0 0.25828468E+04</rscale>
<asrwt>0</asrwt>
<pdfrwt beam="1">  1        2 0.24075538E+00 0.25828468E+04</pdfrwt>
<pdfrwt beam="2">  1       -2 0.16395875E+00 0.25828468E+04</pdfrwt>
<totfact> 0.24355313E+00</totfact>
</mgrwt>
</event>
<event>
 6    1  0.1931622E-005  0.3101961E+04  0.7818608E-02  0.8215200E-01
          2   -1    0    0  501    0  0.00000000000E+00  0.00000000000E+00  0.90338832753E+03  0.90338832753E+03  0.00000000000E+00 0. -1.
         -2   -1    0    0    0  501 -0.00000000000E+00 -0.00000000000E+00 -0.26627979433E+04  0.26627979433E+04  0.00000000000E+00 0.  1.
         23    2    1    2    0    0 -0.14607473661E+04 -0.30802938794E+03 -0.40036623796E+03  0.15473589196E+04  0.73222470001E+02 0.  0.
         13    1    3    3    0    0 -0.10805487451E+04 -0.21459088422E+03 -0.32571928712E+03  0.11487941035E+04  0.00000000000E+00 0. -1.
        -13    1    3    3    0    0 -0.38019862097E+03 -0.93438503718E+02 -0.74646950846E+02  0.39856481610E+03  0.00000000000E+00 0.  1.
         22    1    1    2    0    0  0.14607473661E+04  0.30802938794E+03 -0.13590433778E+04  0.20188273512E+04  0.00000000000E+00 0.  1.
<mgrwt>
<rscale>  0 0.31019610E+04</rscale>
<asrwt>0</asrwt>
<pdfrwt beam="1">  1        2 0.13898282E+00 0.31019610E+04</pdfrwt>
<pdfrwt beam="2">  1       -2 0.40966122E+00 0.31019610E+04</pdfrwt>
<totfact> 0.15867486E-01</totfact>
</mgrwt>
</event>
<event>
 6    1  0.1773638E-005  0.3385072E+04  0.7818608E-02  0.8141580E-01
          2   -1    0    0  501    0  0.00000000000E+00  0.00000000000E+00  0.14443965385E+04  0.14443965385E+04  0.00000000000E+00 0. -1.
         -2   -1    0    0    0  501 -0.00000000000E+00 -0.00000000000E+00 -0.19833047866E+04  0.19833047866E+04  0.00000000000E+00 0.  1.
         23    2    1    2    0    0  0.34335193770E+03  0.24426956585E+03  0.13889493972E+04  0.14543302818E+04  0.91312466912E+02 0.  0.
         13    1    3    3    0    0  0.22322221486E+02 -0.41888086332E+01  0.11659448942E+03  0.11878595309E+03  0.00000000000E+00 0.  1.
        -13    1    3    3    0    0  0.32102971621E+03  0.24845837449E+03  0.12723549078E+04  0.13355443287E+04  0.00000000000E+00 0. -1.
         22    1    1    2    0    0 -0.34335193770E+03 -0.24426956585E+03 -0.19278576454E+04  0.19733710433E+04  0.00000000000E+00 0.  1.
<mgrwt>
<rscale>  0 0.33850723E+04</rscale>
<asrwt>0</asrwt>
<pdfrwt beam="1">  1        2 0.22221485E+00 0.33850723E+04</pdfrwt>
<pdfrwt beam="2">  1       -2 0.30512381E+00 0.33850723E+04</pdfrwt>
<totfact> 0.33469740E-01</totfact>
</mgrwt>
</event>
<event>
 6    1  0.1773638E-005  0.1690382E+04  0.7818608E-02  0.8766869E-01
         -1   -1    0    0    0  501 -0.00000000000E+00  0.00000000000E+00  0.13218841471E+04  0.13218841471E+04  0.00000000000E+00 0.  1.
          1   -1    0    0  501    0  0.00000000000E+00 -0.00000000000E+00 -0.54040109913E+03  0.54040109913E+03  0.00000000000E+00 0. -1.
         23    2    1    2    0    0  0.70684829675E+03  0.48158994818E+01 -0.11398514932E+03  0.72144301355E+03  0.88485592187E+02 0.  0.
         11    1    3    3    0    0  0.60442773082E+03 -0.99648659450E+01 -0.68404964653E+02  0.60836783242E+03  0.00000000000E+00 0. -1.
        -11    1    3    3    0    0  0.10242056594E+03  0.14780765427E+02 -0.45580184671E+02  0.11307518113E+03  0.00000000000E+00 0.  1.
         22    1    1    2    0    0 -0.70684829675E+03 -0.48158994818E+01  0.89546819734E+03  0.11408422327E+04  0.00000000000E+00 0.  1.
<mgrwt>
<rscale>  0 0.16903818E+04</rscale>
<asrwt>0</asrwt>
<pdfrwt beam="1">  1        1 0.83138631E-01 0.16903818E+04</pdfrwt>
<pdfrwt beam="2">  1       -1 0.20336679E+00 0.16903818E+04</pdfrwt>
<totfact> 0.54029479E+00</totfact>
</mgrwt>
</event>
<event>
 6    1  0.1773638E-005  0.2486048E+04  0.7818608E-02  0.8407973E-01
         -2   -1    0    0    0  501 -0.00000000000E+00  0.00000000000E+00  0.90334148514E+03  0.90334148514E+03  0.00000000000E+00 0.  1.
          2   -1    0    0  501    0  0.00000000000E+00 -0.00000000000E+00 -0.17104371434E+04  0.17104371434E+04  0.00000000000E+00 0. -1.
         23    2    1    2    0    0  0.10949780755E+04 -0.15419697865E+02  0.21060062654E+03  0.11188135852E+04  0.90423789302E+02 0.  0.
         11    1    3    3    0    0  0.68364868815E+03  0.27893438455E+02  0.15424909077E+03  0.70138887554E+03  0.00000000000E+00 0.  1.
        -11    1    3    3    0    0  0.41132938731E+03 -0.43313136320E+02  0.56351535761E+02  0.41742470965E+03  0.00000000000E+00 0. -1.
         22    1    1    2    0    0 -0.10949780755E+04  0.15419697865E+02 -0.10176962848E+04  0.14949650434E+04  0.00000000000E+00 0.  1.
<mgrwt>
<rscale>  0 0.24860481E+04</rscale>
<asrwt>0</asrwt>
<pdfrwt beam="1">  1        2 0.26314417E+00 0.24860481E+04</pdfrwt>
<pdfrwt beam="2">  1       -2 0.13897561E+00 0.24860481E+04</pdfrwt>
<totfact> 0.31634948E+00</totfact>
</mgrwt>
</event>
<event>
 6    1  0.1773638E-005  0.4833889E+03  0.7818608E-02  0.1018208E+00
         -3   -1    0    0    0  501 -0.00000000000E+00  0.00000000000E+00  0.69591024932E+03  0.69591024932E+03  0.00000000000E+00 0.  1.
          3   -1    0    0  501    0  0.00000000000E+00 -0.00000000000E+00 -0.83942145302E+02  0.83942145302E+02  0.00000000000E+00 0. -1.
         23    2    1    2    0    0  0.22791348222E+03 -0.48316436002E+02  0.30690792568E+03  0.39600249457E+03  0.91359003335E+02 0.  0.
         11    1    3    3    0    0  0.75870623444E+02 -0.53553582084E+02  0.15707350759E+03  0.18247307868E+03  0.00000000000E+00 0.  1.
        -11    1    3    3    0    0  0.15204285878E+03  0.52371460818E+01  0.14983441809E+03  0.21352941589E+03  0.00000000000E+00 0. -1.
         22    1    1    2    0    0 -0.22791348222E+03  0.48316436002E+02  0.30506017834E+03  0.38384990006E+03  0.00000000000E+00 0.  1.
<mgrwt>
<rscale>  0 0.48338887E+03</rscale>
<asrwt>0</asrwt>
<pdfrwt beam="1">  1        3 0.12914177E-01 0.48338887E+03</pdfrwt>
<pdfrwt beam="2">  1       -3 0.10706311E+00 0.48338887E+03</pdfrwt>
<totfact> 0.96374691E+01</totfact>
</mgrwt>
</event>
<event>
 6    1  0.1773638E-005  0.2210553E+04  0.7818608E-02  0.8514049E-01
         -1   -1    0    0    0  501 -0.00000000000E+00  0.00000000000E+00  0.46931385370E+03  0.46931385370E+03  0.00000000000E+00 0.  1.
          1   -1    0    0  501    0  0.00000000000E+00 -0.00000000000E+00 -0.26030255797E+04  0.26030255797E+04  0.00000000000E+00 0. -1.
         23    2    1    2    0    0  0.18372911017E+03 -0.36209630911E+03 -0.24946616419E+04  0.25290577709E+04  0.89030208450E+02 0.  0.
         11    1    3    3    0    0  0.50457483934E+02 -0.16032012720E+03 -0.12362879232E+04  0.12476603424E+04  0.00000000000E+00 0. -1.
        -11    1    3    3    0    0  0.13327162624E+03 -0.20177618191E+03 -0.12583737187E+04  0.12813974285E+04  0.00000000000E+00 0.  1.
         22    1    1    2    0    0 -0.18372911017E+03  0.36209630911E+03  0.36094991591E+03  0.54328166248E+03  0.00000000000E+00 0.  1.
<mgrwt>
<rscale>  0 0.22105528E+04</rscale>
<asrwt>0</asrwt>
<pdfrwt beam="1">  1        1 0.40046547E+00 0.22105528E+04</pdfrwt>
<pdfrwt beam="2">  1       -1 0.72202133E-01 0.22105528E+04</pdfrwt>
<totfact> 0.20244541E+00</totfact>
</mgrwt>
</event>
<event>
 6    1  0.1773638E-005  0.6502642E+04  0.7818608E-02  0.7631023E-01
          2   -1    0    0  501    0  0.00000000000E+00  0.00000000000E+00  0.20579024545E+04  0.20579024545E+04  0.00000000000E+00 0. -1.
         -2   -1    0    0    0  501 -0.00000000000E+00 -0.00000000000E+00 -0.51368272824E+04  0.51368272824E+04  0.00000000000E+00 0.  1.
         23    2    1    2    0    0  0.73935383714E+03 -0.27116589649E+02 -0.50420166924E+04  0.50968476919E+04  0.92437341123E+02 0.  0.
         13    1    3    3    0    0  0.28428095121E+03 -0.55427600004E+02 -0.19751651376E+04  0.19962878547E+04  0.00000000000E+00 0.  1.
        -13    1    3    3    0    0  0.45507288593E+03  0.28311010355E+02 -0.30668515548E+04  0.31005598372E+04  0.00000000000E+00 0. -1.
         22    1    1    2    0    0 -0.73935383714E+03  0.27116589649E+02  0.19630918646E+04  0.20978820450E+04  0.00000000000E+00 0. -1.
<mgrwt>
<rscale>  0 0.65026424E+04</rscale>
<asrwt>0</asrwt>
<pdfrwt beam="1">  1        2 0.31660038E+00 0.65026424E+04</pdfrwt>
<pdfrwt beam="2">  1       -2 0.79028111E+00 0.65026424E+04</pdfrwt>
<totfact> 0.36257288E-04</totfact>
</mgrwt>
</event>
<event>
 6    1  0.1773638E-005  0.2280984E+04  0.7818608E-02  0.8485457E-01
          2   -1    0    0  501    0  0.00000000000E+00  0.00000000000E+00  0.13721317422E+04  0.13721317422E+04  0.00000000000E+00 0. -1.
         -2   -1    0    0    0  501 -0.00000000000E+00 -0.00000000000E+00 -0.94795707371E+03  0.94795707371E+03  0.00000000000E+00 0.  1.
         23    2    1    2    0    0  0.77447706383E+03 -0.58847735800E+03 -0.38972458367E+03  0.10518016576E+04  0.91000838165E+02 0.  0.
         13    1    3    3    0    0  0.12700050396E+03 -0.10989041266E+03 -0.10356338042E+03  0.19730789281E+03  0.00000000000E+00 0.  1.
        -13    1    3    3    0    0  0.64747655987E+03 -0.47858694534E+03 -0.28616120326E+03  0.85449376480E+03  0.00000000000E+00 0. -1.
         22    1    1    2    0    0 -0.77447706383E+03  0.58847735800E+03  0.81389925221E+03  0.12682871583E+04  0.00000000000E+00 0. -1.
<mgrwt>
<rscale>  0 0.22809840E+04</rscale>
<asrwt>0</asrwt>
<pdfrwt beam="1">  1        2 0.21109719E+00 0.22809840E+04</pdfrwt>
<pdfrwt beam="2">  1       -2 0.14583955E+00 0.22809840E+04</pdfrwt>
<totfact> 0.44006117E+00</totfact>
</mgrwt>
</event>
<event>
 6    1  0.1773638E-005  0.1918568E+04  0.7818608E-02  0.8645669E-01
         -2   -1    0    0    0  501 -0.00000000000E+00  0.00000000000E+00  0.11182695919E+04  0.11182695919E+04  0.00000000000E+00 0.  1.
          2   -1    0    0  501    0  0.00000000000E+00 -0.00000000000E+00 -0.82290122776E+03  0.82290122776E+03  0.00000000000E+00 0. -1.
         23    2    1    2    0    0  0.13720792456E+03 -0.59374363560E+03 -0.59866656020E+03  0.85920225945E+03  0.92029087615E+02 0.  0.
         11    1    3    3    0    0  0.14308070425E+03 -0.44839650625E+03 -0.44882626821E+03  0.65036646114E+03  0.00000000000E+00 0.  1.
        -11    1    3    3    0    0 -0.58727796843E+01 -0.14534712934E+03 -0.14984029199E+03  0.20883579830E+03  0.00000000000E+00 0. -1.
         22    1    1    2    0    0 -0.13720792456E+03  0.59374363560E+03  0.89403492438E+03  0.10819685603E+04  0.00000000000E+00 0.  1.
<mgrwt>
<rscale>  0 0.19185676E+04</rscale>
<asrwt>0</asrwt>
<pdfrwt beam="1">  1        2 0.12660019E+00 0.19185676E+04</pdfrwt>
<pdfrwt beam="2">  1       -2 0.17204148E+00 0.19185676E+04</pdfrwt>
<totfact> 0.63908665E+00</totfact>
</mgrwt>
</event>
<event>
 6    1  0.1773638E-005  0.2716010E+04  0.7818608E-02  0.8329829E-01
          2   -1    0    0  501    0  0.00000000000E+00  0.00000000000E+00  0.10618782939E+04  0.10618782939E+04  0.00000000000E+00 0. -1.
         -2   -1    0    0    0  501 -0.00000000000E+00 -0.00000000000E+00 -0.17367123164E+04  0.17367123164E+04  0.00000000000E+00 0.  1.
         23    2    1    2    0    0  0.12551729837E+04 -0.14475586612E+02  0.19182232196E+03  0.12732178752E+04  0.92839607900E+02 0.  0.
         13    1    3    3    0    0  0.36113615625E+03 -0.29607659528E+02  0.21572354264E+02  0.36298939836E+03  0.00000000000E+00 0.  1.
        -13    1    3    3    0    0  0.89403682747E+03  0.15132072917E+02  0.17024996770E+03  0.91022847682E+03  0.00000000000E+00 0. -1.
         22    1    1    2    0    0 -0.12551729837E+04  0.14475586612E+02 -0.86665634441E+03  0.15253727351E+04  0.00000000000E+00 0.  1.
<mgrwt>
<rscale>  0 0.27160097E+04</rscale>
<asrwt>0</asrwt>
<pdfrwt beam="1">  1        2 0.16336589E+00 0.27160097E+04</pdfrwt>
<pdfrwt beam="2">  1       -2 0.26718651E+00 0.27160097E+04</pdfrwt>
<totfact> 0.10164955E+00</totfact>
</mgrwt>
</event>
<event>
 6    1  0.1773638E-005  0.9572461E+03  0.7818608E-02  0.9356721E-01
         -2   -1    0    0    0  501 -0.00000000000E+00  0.00000000000E+00  0.17962082825E+03  0.17962082825E+03  0.00000000000E+00 0.  1.
          2   -1    0    0  501    0  0.00000000000E+00 -0.00000000000E+00 -0.12753533529E+04  0.12753533529E+04  0.00000000000E+00 0. -1.
         23    2    1    2    0    0  0.42658777545E+03 -0.98784634349E+02 -0.82984806403E+03  0.94269488181E+03  0.91051066297E+02 0.  0.
         13    1    3    3    0    0  0.16099634319E+03 -0.58932818186E+02 -0.40869773147E+03  0.44320055877E+03  0.00000000000E+00 0.  1.
        -13    1    3    3    0    0  0.26559143226E+03 -0.39851816164E+02 -0.42115033255E+03  0.49949432304E+03  0.00000000000E+00 0. -1.
         22    1    1    2    0    0 -0.42658777545E+03  0.98784634349E+02 -0.26588446066E+03  0.51227929938E+03  0.00000000000E+00 0.  1.
<mgrwt>
<rscale>  0 0.95724610E+03</rscale>
<asrwt>0</asrwt>
<pdfrwt beam="1">  1        2 0.19620821E+00 0.95724610E+03</pdfrwt>
<pdfrwt beam="2">  1       -2 0.27633974E-01 0.95724610E+03</pdfrwt>
<totfact> 0.20389310E+02</totfact>
</mgrwt>
</event>
<event>
 6    1  0.1773638E-005  0.2322691E+04  0.7818608E-02  0.8469028E-01
         -1   -1    0    0    0  501 -0.00000000000E+00  0.00000000000E+00  0.56272024673E+03  0.56272024673E+03  0.00000000000E+00 0.  1.
          1   -1    0    0  501    0  0.00000000000E+00 -0.00000000000E+00 -0.23967922570E+04  0.23967922570E+04  0.00000000000E+00 0. -1.
         23    2    1    2    0    0  0.85281704346E+03  0.78290548216E+03 -0.99727395296E+03  0.15310626823E+04  0.96745523154E+02 0.  0.
         13    1    3    3    0    0  0.52518398392E+03  0.52880504785E+03 -0.59935234463E+03  0.95638707049E+03  0.00000000000E+00 0.  1.
        -13    1    3    3    0    0  0.32763305954E+03  0.25410043431E+03 -0.39792160834E+03  0.57467561180E+03  0.00000000000E+00 0. -1.
         22    1    1    2    0    0 -0.85281704346E+03 -0.78290548216E+03 -0.83679805729E+03  0.14284498214E+04  0.00000000000E+00 0.  1.
<mgrwt>
<rscale>  0 0.23226911E+04</rscale>
<asrwt>0</asrwt>
<pdfrwt beam="1">  1        1 0.36873727E+00 0.23226911E+04</pdfrwt>
<pdfrwt beam="2">  1       -1 0.86572345E-01 0.23226911E+04</pdfrwt>
<totfact> 0.18946605E+00</totfact>
</mgrwt>
</event>
<event>
 6    1  0.1773638E-005  0.2363645E+04  0.7818608E-02  0.8453241E-01
          2   -1    0    0  501    0  0.00000000000E+00  0.00000000000E+00  0.22200256877E+04  0.22200256877E+04  0.00000000000E+00 0. -1.
         -2   -1    0    0    0  501 -0.00000000000E+00 -0.00000000000E+00 -0.62913868418E+03  0.62913868418E+03  0.00000000000E+00 0.  1.
         23    2    1    2    0    0 -0.30022106506E+03  0.76702395434E+03  0.18152049653E+04  0.19954800143E+04  0.92265850707E+02 0.  0.
         11    1    3    3    0    0 -0.91879430114E+02  0.20873862052E+03  0.41031747238E+03  0.46944016607E+03  0.00000000000E+00 0. -1.
        -11    1    3    3    0    0 -0.20834163494E+03  0.55828533382E+03  0.14048874929E+04  0.15260398483E+04  0.00000000000E+00 0.  1.
         22    1    1    2    0    0  0.30022106506E+03 -0.76702395434E+03 -0.22431796171E+03  0.85368435759E+03  0.00000000000E+00 0.  1.
<mgrwt>
<rscale>  0 0.23636447E+04</rscale>
<asrwt>0</asrwt>
<pdfrwt beam="1">  1        2 0.34154241E+00 0.23636447E+04</pdfrwt>
<pdfrwt beam="2">  1       -2 0.96790568E-01 0.23636447E+04</pdfrwt>
<totfact> 0.40476476E+00</totfact>
</mgrwt>
</event>
<event>
 6    1  0.1773638E-005  0.3997739E+04  0.7818608E-02  0.8005003E-01
         -1   -1    0    0    0  501 -0.00000000000E+00  0.00000000000E+00  0.20772298954E+04  0.20772298954E+04  0.00000000000E+00 0.  1.
          1   -1    0    0  501    0  0.00000000000E+00 -0.00000000000E+00 -0.19234652355E+04  0.19234652355E+04  0.00000000000E+00 0. -1.
         23    2    1    2    0    0  0.91105412283E+03  0.79315195931E+02 -0.17006634425E+04  0.19330360434E+04  0.89786889458E+02 0.  0.
         13    1    3    3    0    0  0.40874300589E+03 -0.33016199301E+01 -0.71103333257E+03  0.82015251361E+03  0.00000000000E+00 0. -1.
        -13    1    3    3    0    0  0.50231111695E+03  0.82616815861E+02 -0.98963010993E+03  0.11128835298E+04  0.00000000000E+00 0.  1.
         22    1    1    2    0    0 -0.91105412283E+03 -0.79315195931E+02  0.18544281024E+04  0.20676590875E+04  0.00000000000E+00 0.  1.
<mgrwt>
<rscale>  0 0.39977391E+04</rscale>
<asrwt>0</asrwt>
<pdfrwt beam="1">  1        1 0.29591773E+00 0.39977391E+04</pdfrwt>
<pdfrwt beam="2">  1       -1 0.31957383E+00 0.39977391E+04</pdfrwt>
<totfact> 0.64753731E-02</totfact>
</mgrwt>
</event>
<event>
 6    1  0.1773638E-005  0.1702108E+04  0.7818608E-02  0.8760163E-01
          2   -1    0    0  501    0  0.00000000000E+00  0.00000000000E+00  0.22196229576E+04  0.22196229576E+04  0.00000000000E+00 0.  1.
         -2   -1    0    0    0  501 -0.00000000000E+00 -0.00000000000E+00 -0.32631355128E+03  0.32631355128E+03  0.00000000000E+00 0. -1.
         23    2    1    2    0    0 -0.23601971205E+03  0.12198331459E+03  0.21549200879E+04  0.21730754326E+04  0.89392487766E+02 0.  0.
         13    1    3    3    0    0 -0.21238392738E+03  0.11172211110E+03  0.16350181205E+04  0.16525353300E+04  0.00000000000E+00 0.  1.
        -13    1    3    3    0    0 -0.23635784675E+02  0.10261203483E+02  0.51990196747E+03  0.52054010258E+03  0.00000000000E+00 0. -1.
         22    1    1    2    0    0  0.23601971205E+03 -0.12198331459E+03 -0.26161068158E+03  0.37286107631E+03  0.00000000000E+00 0. -1.
<mgrwt>
<rscale>  0 0.17021082E+04</rscale>
<asrwt>0</asrwt>
<pdfrwt beam="1">  1        2 0.34148045E+00 0.17021082E+04</pdfrwt>
<pdfrwt beam="2">  1       -2 0.50202086E-01 0.17021082E+04</pdfrwt>
<totfact> 0.17985422E+01</totfact>
</mgrwt>
</event>
<event>
 6    1  0.1773638E-005  0.1604228E+04  0.7818608E-02  0.8817955E-01
         -1   -1    0    0    0  501 -0.00000000000E+00  0.00000000000E+00  0.63743394572E+03  0.63743394572E+03  0.00000000000E+00 0.  1.
          1   -1    0    0  501    0  0.00000000000E+00 -0.00000000000E+00 -0.10093390486E+04  0.10093390486E+04  0.00000000000E+00 0. -1.
         23    2    1    2    0    0  0.32897386367E+03 -0.49856926528E+03  0.35892359644E+03  0.70289498153E+03  0.91869971828E+02 0.  0.
         11    1    3    3    0    0  0.12691776041E+03 -0.24555103588E+03  0.12455853851E+03  0.30318024118E+03  0.00000000000E+00 0.  1.
        -11    1    3    3    0    0  0.20205610327E+03 -0.25301822940E+03  0.23436505793E+03  0.39971474035E+03  0.00000000000E+00 0. -1.
         22    1    1    2    0    0 -0.32897386367E+03  0.49856926528E+03 -0.73082869929E+03  0.94387801275E+03  0.00000000000E+00 0. -1.
<mgrwt>
<rscale>  0 0.16042281E+04</rscale>
<asrwt>0</asrwt>
<pdfrwt beam="1">  1        1 0.15528293E+00 0.16042281E+04</pdfrwt>
<pdfrwt beam="2">  1       -1 0.98066761E-01 0.16042281E+04</pdfrwt>
<totfact> 0.14225564E+01</totfact>
</mgrwt>
</event>
<event>
 6    1  0.1773638E-005  0.1626354E+04  0.7818608E-02  0.8804520E-01
         -2   -1    0    0    0  501 -0.00000000000E+00  0.00000000000E+00  0.49105623742E+03  0.49105623742E+03  0.00000000000E+00 0.  1.
          2   -1    0    0  501    0  0.00000000000E+00 -0.00000000000E+00 -0.13466004094E+04  0.13466004094E+04  0.00000000000E+00 0. -1.
         23    2    1    2    0    0  0.53274282577E+02  0.47763748517E+03  0.30939101483E+03  0.57747820474E+03  0.82356301981E+02 0.  0.
         11    1    3    3    0    0  0.33641680992E+02  0.33512527501E+03  0.17047013055E+03  0.37749275233E+03  0.00000000000E+00 0.  1.
        -11    1    3    3    0    0  0.19632601585E+02  0.14251221015E+03  0.13892088428E+03  0.19998545241E+03  0.00000000000E+00 0. -1.
         22    1    1    2    0    0 -0.53274282577E+02 -0.47763748517E+03 -0.11649351868E+04  0.12601784421E+04  0.00000000000E+00 0. -1.
<mgrwt>
<rscale>  0 0.16263536E+04</rscale>
<asrwt>0</asrwt>
<pdfrwt beam="1">  1        2 0.20716929E+00 0.16263536E+04</pdfrwt>
<pdfrwt beam="2">  1       -2 0.75547114E-01 0.16263536E+04</pdfrwt>
<totfact> 0.23355807E+01</totfact>
</mgrwt>
</event>
<event>
 6    1  0.1773638E-005  0.1639405E+04  0.7818608E-02  0.8796699E-01
         -2   -1    0    0    0  501 -0.00000000000E+00  0.00000000000E+00  0.41729007831E+03  0.41729007831E+03  0.00000000000E+00 0.  1.
          2   -1    0    0  501    0  0.00000000000E+00 -0.00000000000E+00 -0.16101798447E+04  0.16101798447E+04  0.00000000000E+00 0. -1.
         23    2    1    2    0    0  0.63005349952E+03  0.36931261297E+03 -0.14570213624E+03  0.75077060402E+03  0.95226934210E+02 0.  0.
         13    1    3    3    0    0  0.30587622424E+03  0.21691537732E+03 -0.39008901794E+02  0.37700694940E+03  0.00000000000E+00 0. -1.
        -13    1    3    3    0    0  0.32417727528E+03  0.15239723565E+03 -0.10669323445E+03  0.37376365462E+03  0.00000000000E+00 0.  1.
         22    1    1    2    0    0 -0.63005349952E+03 -0.36931261297E+03 -0.10471876301E+04  0.12766993190E+04  0.00000000000E+00 0. -1.
<mgrwt>
<rscale>  0 0.16394049E+04</rscale>
<asrwt>0</asrwt>
<pdfrwt beam="1">  1        2 0.24771998E+00 0.16394049E+04</pdfrwt>
<pdfrwt beam="2">  1       -2 0.64198473E-01 0.16394049E+04</pdfrwt>
<totfact> 0.23590849E+01</totfact>
</mgrwt>
</event>
<event>
 6    1  0.1773638E-005  0.2929945E+04  0.7818608E-02  0.8264023E-01
         -2   -1    0    0    0  501 -0.00000000000E+00  0.00000000000E+00  0.18357586357E+04  0.18357586357E+04  0.00000000000E+00 0.  1.
          2   -1    0    0  501    0  0.00000000000E+00 -0.00000000000E+00 -0.11690775117E+04  0.11690775117E+04  0.00000000000E+00 0. -1.
         23    2    1    2    0    0  0.52929411910E+03 -0.97786242283E+03 -0.64206944107E+03  0.12875140389E+04  0.95247313792E+02 0.  0.
         13    1    3    3    0    0  0.26319780167E+03 -0.55063303982E+03 -0.39346860997E+03  0.72614556005E+03  0.00000000000E+00 0. -1.
        -13    1    3    3    0    0  0.26609631743E+03 -0.42722938301E+03 -0.24860083110E+03  0.56136847888E+03  0.00000000000E+00 0.  1.
         22    1    1    2    0    0 -0.52929411910E+03  0.97786242283E+03  0.13087505652E+04  0.17173221085E+04  0.00000000000E+00 0.  1.
<mgrwt>
<rscale>  0 0.29299448E+04</rscale>
<asrwt>0</asrwt>
<pdfrwt beam="1">  1        2 0.17985808E+00 0.29299448E+04</pdfrwt>
<pdfrwt beam="2">  1       -2 0.28242441E+00 0.29299448E+04</pdfrwt>
<totfact> 0.69274727E-01</totfact>
</mgrwt>
</event>
<event>
 6    1  0.1773638E-005  0.2603711E+04  0.7818608E-02  0.8366942E-01
         -2   -1    0    0    0  501 -0.00000000000E+00  0.00000000000E+00  0.83028589304E+03  0.83028589304E+03  0.00000000000E+00 0.  1.
          2   -1    0    0  501    0  0.00000000000E+00 -0.00000000000E+00 -0.20412581100E+04  0.20412581100E+04  0.00000000000E+00 0. -1.
         23    2    1    2    0    0 -0.39959771042E+03 -0.82271059444E+03 -0.16255392551E+04  0.18673543389E+04  0.90018357326E+02 0.  0.
         13    1    3    3    0    0 -0.46755777577E+02 -0.17355573715E+03 -0.29546019657E+03  0.34583872598E+03  0.00000000000E+00 0. -1.
        -13    1    3    3    0    0 -0.35284193284E+03 -0.64915485729E+03 -0.13300790586E+04  0.15215156129E+04  0.00000000000E+00 0.  1.
         22    1    1    2    0    0  0.39959771042E+03  0.82271059444E+03  0.41456703820E+03  0.10041896641E+04  0.00000000000E+00 0.  1.
<mgrwt>
<rscale>  0 0.26037111E+04</rscale>
<asrwt>0</asrwt>
<pdfrwt beam="1">  1        2 0.31403971E+00 0.26037111E+04</pdfrwt>
<pdfrwt beam="2">  1       -2 0.12773629E+00 0.26037111E+04</pdfrwt>
<totfact> 0.25442364E+00</totfact>
</mgrwt>
</event>
<event>
 6    1  0.1773638E-005  0.2106476E+04  0.7818608E-02  0.8558396E-01
         -1   -1    0    0    0  501 -0.00000000000E+00  0.00000000000E+00  0.89607088786E+03  0.89607088786E+03  0.00000000000E+00 0.  1.
          1   -1    0    0  501    0  0.00000000000E+00 -0.00000000000E+00 -0.12379710110E+04  0.12379710110E+04  0.00000000000E+00 0. -1.
         23    2    1    2    0    0 -0.41688267427E+03 -0.72213955235E+03  0.47734141238E+03  0.96509648065E+03  0.90992833893E+02 0.  0.
         13    1    3    3    0    0 -0.79741377590E+02 -0.21534932956E+03  0.11667787980E+03  0.25758056735E+03  0.00000000000E+00 0. -1.
        -13    1    3    3    0    0 -0.33714129668E+03 -0.50679022279E+03  0.36066353258E+03  0.70751591331E+03  0.00000000000E+00 0.  1.
         22    1    1    2    0    0  0.41688267427E+03  0.72213955235E+03 -0.81924153549E+03  0.11689454182E+04  0.00000000000E+00 0. -1.
<mgrwt>
<rscale>  0 0.21064755E+04</rscale>
<asrwt>0</asrwt>
<pdfrwt beam="1">  1        1 0.19045708E+00 0.21064755E+04</pdfrwt>
<pdfrwt beam="2">  1       -1 0.13785706E+00 0.21064755E+04</pdfrwt>
<totfact> 0.40218345E+00</totfact>
</mgrwt>
</event>
<event>
 6    1  0.1893782E-005  0.3439891E+04  0.7818608E-02  0.8128185E-01
          1   -1    0    0  501    0  0.00000000000E+00  0.00000000000E+00  0.17033434647E+04  0.17033434647E+04  0.00000000000E+00 0. -1.
         -1   -1    0    0    0  501 -0.00000000000E+00 -0.00000000000E+00 -0.17367088461E+04  0.17367088461E+04  0.00000000000E+00 0.  1.
         23    2    1    2    0    0 -0.11643067862E+03 -0.11859284135E+04 -0.12554871085E+04  0.17331358451E+04  0.86773688885E+02 0.  0.
         13    1    3    3    0    0 -0.98861729100E+02 -0.76182489197E+03 -0.75878329466E+03  0.10797698346E+04  0.00000000000E+00 0. -1.
        -13    1    3    3    0    0 -0.17568949524E+02 -0.42410352155E+03 -0.49670381386E+03  0.65336601050E+03  0.00000000000E+00 0.  1.
         22    1    1    2    0    0  0.11643067862E+03  0.11859284135E+04  0.12221217271E+04  0.17069164657E+04  0.00000000000E+00 0. -1.
<mgrwt>
<rscale>  0 0.34398905E+04</rscale>
<asrwt>0</asrwt>
<pdfrwt beam="1">  1        1 0.26205284E+00 0.34398905E+04</pdfrwt>
<pdfrwt beam="2">  1       -1 0.26718598E+00 0.34398905E+04</pdfrwt>
<totfact> 0.20948444E-01</totfact>
</mgrwt>
</event>
<event>
 6    1  0.1773638E-005  0.1555789E+04  0.7818608E-02  0.8848179E-01
          1   -1    0    0  501    0  0.00000000000E+00  0.00000000000E+00  0.18138116868E+04  0.18138116868E+04  0.00000000000E+00 0. -1.
         -1   -1    0    0    0  501 -0.00000000000E+00 -0.00000000000E+00 -0.33361777312E+03  0.33361777312E+03  0.00000000000E+00 0.  1.
         23    2    1    2    0    0 -0.10952815492E+03 -0.69995949231E+03  0.11770843123E+04  0.13768354435E+04  0.90601615665E+02 0.  0.
         11    1    3    3    0    0 -0.96927267479E+02 -0.42838635096E+03  0.78877627373E+03  0.90281657654E+03  0.00000000000E+00 0. -1.
        -11    1    3    3    0    0 -0.12600887446E+02 -0.27157314135E+03  0.38830803854E+03  0.47401886699E+03  0.00000000000E+00 0.  1.
         22    1    1    2    0    0  0.10952815492E+03  0.69995949231E+03  0.30310960138E+03  0.77059401636E+03  0.00000000000E+00 0.  1.
<mgrwt>
<rscale>  0 0.15557890E+04</rscale>
<asrwt>0</asrwt>
<pdfrwt beam="1">  1        1 0.27904795E+00 0.15557890E+04</pdfrwt>
<pdfrwt beam="2">  1       -1 0.51325812E-01 0.15557890E+04</pdfrwt>
<totfact> 0.14661040E+01</totfact>
</mgrwt>
</event>
<event>
 6    1  0.1773638E-005  0.1720077E+04  0.7818608E-02  0.8749996E-01
          1   -1    0    0  501    0  0.00000000000E+00  0.00000000000E+00  0.98590452151E+03  0.98590452151E+03  0.00000000000E+00 0. -1.
         -1   -1    0    0    0  501 -0.00000000000E+00 -0.00000000000E+00 -0.75024085009E+03  0.75024085009E+03  0.00000000000E+00 0.  1.
         23    2    1    2    0    0 -0.84016923273E+03 -0.14960371637E+03  0.20389612732E+03  0.88216950049E+03  0.91563012659E+02 0.  0.
         13    1    3    3    0    0 -0.68171244649E+03 -0.15170409946E+03  0.18571667166E+03  0.72265944650E+03  0.00000000000E+00 0. -1.
        -13    1    3    3    0    0 -0.15845678624E+03  0.21003830954E+01  0.18179455662E+02  0.15951005399E+03  0.00000000000E+00 0.  1.
         22    1    1    2    0    0  0.84016923273E+03  0.14960371637E+03  0.31767544094E+02  0.85397587111E+03  0.00000000000E+00 0.  1.
<mgrwt>
<rscale>  0 0.17200766E+04</rscale>
<asrwt>0</asrwt>
<pdfrwt beam="1">  1        1 0.15167762E+00 0.17200766E+04</pdfrwt>
<pdfrwt beam="2">  1       -1 0.11542167E+00 0.17200766E+04</pdfrwt>
<totfact> 0.10034817E+01</totfact>
</mgrwt>
</event>
<event>
 6    1  0.1773638E-005  0.5421588E+03  0.7818608E-02  0.1003325E+00
          1   -1    0    0  501    0  0.00000000000E+00  0.00000000000E+00  0.17948211141E+03  0.17948211141E+03  0.00000000000E+00 0. -1.
         -1   -1    0    0    0  501 -0.00000000000E+00 -0.00000000000E+00 -0.40942263927E+03  0.40942263927E+03  0.00000000000E+00 0.  1.
         23    2    1    2    0    0 -0.10010943087E+03 -0.15556464455E+03  0.85807430152E+02  0.22295525994E+03  0.90132547302E+02 0.  0.
         11    1    3    3    0    0 -0.89476932188E+02 -0.11438429476E+03  0.10197965136E+03  0.17745348002E+03  0.00000000000E+00 0. -1.
        -11    1    3    3    0    0 -0.10632498687E+02 -0.41180349789E+02 -0.16172221206E+02  0.45501779919E+02  0.00000000000E+00 0.  1.
         22    1    1    2    0    0  0.10010943087E+03  0.15556464455E+03 -0.31574795801E+03  0.36594949074E+03  0.00000000000E+00 0.  1.
<mgrwt>
<rscale>  0 0.54215880E+03</rscale>
<asrwt>0</asrwt>
<pdfrwt beam="1">  1        1 0.27612633E-01 0.54215880E+03</pdfrwt>
<pdfrwt beam="2">  1       -1 0.62988098E-01 0.54215880E+03</pdfrwt>
<totfact> 0.44370427E+02</totfact>
</mgrwt>
</event>
<event>
 6    1  0.1773638E-005  0.4172547E+04  0.7818608E-02  0.7970615E-01
         -1   -1    0    0    0  501 -0.00000000000E+00  0.00000000000E+00  0.25987314951E+04  0.25987314951E+04  0.00000000000E+00 0.  1.
          1   -1    0    0  501    0  0.00000000000E+00 -0.00000000000E+00 -0.16748697348E+04  0.16748697348E+04  0.00000000000E+00 0. -1.
         23    2    1    2    0    0  0.83608623971E+03 -0.18967620667E+04  0.22945649162E+03  0.20875213559E+04  0.91370629186E+02 0.  0.
         11    1    3    3    0    0  0.45147833049E+03 -0.10515513301E+04  0.82298220838E+02  0.11473298915E+04  0.00000000000E+00 0. -1.
        -11    1    3    3    0    0  0.38460790922E+03 -0.84521073660E+03  0.14715827078E+03  0.94019146442E+03  0.00000000000E+00 0.  1.
         22    1    1    2    0    0 -0.83608623971E+03  0.18967620667E+04  0.69440526869E+03  0.21860798739E+04  0.00000000000E+00 0. -1.
<mgrwt>
<rscale>  0 0.41725468E+04</rscale>
<asrwt>0</asrwt>
<pdfrwt beam="1">  1        1 0.25767227E+00 0.41725468E+04</pdfrwt>
<pdfrwt beam="2">  1       -1 0.39980485E+00 0.41725468E+04</pdfrwt>
<totfact> 0.27441920E-02</totfact>
</mgrwt>
</event>
<event>
 6    1  0.1773638E-005  0.1248917E+04  0.7818608E-02  0.9071085E-01
          1   -1    0    0  501    0  0.00000000000E+00  0.00000000000E+00  0.19328105401E+04  0.19328105401E+04  0.00000000000E+00 0. -1.
         -1   -1    0    0    0  501 -0.00000000000E+00 -0.00000000000E+00 -0.20175215640E+03  0.20175215640E+03  0.00000000000E+00 0.  1.
         23    2    1    2    0    0 -0.55067362293E+03 -0.18979750127E+03  0.50211610125E+03  0.77457605536E+03  0.92644243890E+02 0.  0.
         11    1    3    3    0    0 -0.33867346149E+03 -0.16310077861E+03  0.31014294700E+03  0.48732968828E+03  0.00000000000E+00 0.  1.
        -11    1    3    3    0    0 -0.21200016144E+03 -0.26696722659E+02  0.19197315425E+03  0.28724636709E+03  0.00000000000E+00 0. -1.
         22    1    1    2    0    0  0.55067362293E+03  0.18979750127E+03  0.12289422825E+04  0.13599866412E+04  0.00000000000E+00 0. -1.
<mgrwt>
<rscale>  0 0.12489174E+04</rscale>
<asrwt>0</asrwt>
<pdfrwt beam="1">  1        1 0.29735545E+00 0.12489174E+04</pdfrwt>
<pdfrwt beam="2">  1       -1 0.31038795E-01 0.12489174E+04</pdfrwt>
<totfact> 0.31407764E+01</totfact>
</mgrwt>
</event>
<event>
 6    1  0.1773638E-005  0.2205920E+04  0.7818608E-02  0.8515968E-01
         -2   -1    0    0    0  501 -0.00000000000E+00  0.00000000000E+00  0.10896160097E+04  0.10896160097E+04  0.00000000000E+00 0.  1.
          2   -1    0    0  501    0  0.00000000000E+00 -0.00000000000E+00 -0.11164676563E+04  0.11164676563E+04  0.00000000000E+00 0. -1.
         23    2    1    2    0    0  0.63007524212E+03 -0.90192363962E+03  0.27637719342E+02  0.11045256088E+04  0.93551667746E+02 0.  0.
         13    1    3    3    0    0  0.34273157233E+03 -0.51015989354E+03 -0.29675940463E+02  0.61531187953E+03  0.00000000000E+00 0. -1.
        -13    1    3    3    0    0  0.28734366979E+03 -0.39176374608E+03  0.57313659806E+02  0.48921372928E+03  0.00000000000E+00 0.  1.
         22    1    1    2    0    0 -0.63007524212E+03  0.90192363962E+03 -0.54489365917E+02  0.11015580572E+04  0.00000000000E+00 0. -1.
<mgrwt>
<rscale>  0 0.22059202E+04</rscale>
<asrwt>0</asrwt>
<pdfrwt beam="1">  1        2 0.17176426E+00 0.22059202E+04</pdfrwt>
<pdfrwt beam="2">  1       -2 0.16763323E+00 0.22059202E+04</pdfrwt>
<totfact> 0.43087239E+00</totfact>
</mgrwt>
</event>
<event>
 6    1  0.1773638E-005  0.2268414E+04  0.7818608E-02  0.8490480E-01
         -2   -1    0    0    0  501 -0.00000000000E+00  0.00000000000E+00  0.83091983606E+03  0.83091983606E+03  0.00000000000E+00 0. -1.
          2   -1    0    0  501    0  0.00000000000E+00 -0.00000000000E+00 -0.15481943854E+04  0.15481943854E+04  0.00000000000E+00 0.  1.
         23    2    1    2    0    0  0.16470157328E+03  0.65502794652E+03 -0.13123747422E+04  0.14789295413E+04  0.93364368080E+02 0.  0.
         11    1    3    3    0    0  0.10787541215E+03  0.28628011029E+03 -0.65852975989E+03  0.72612316500E+03  0.00000000000E+00 0. -1.
        -11    1    3    3    0    0  0.56826161132E+02  0.36874783623E+03 -0.65384498231E+03  0.75280637631E+03  0.00000000000E+00 0.  1.
         22    1    1    2    0    0 -0.16470157328E+03 -0.65502794652E+03  0.59510019281E+03  0.90018468019E+03  0.00000000000E+00 0. -1.
<mgrwt>
<rscale>  0 0.22684139E+04</rscale>
<asrwt>0</asrwt>
<pdfrwt beam="1">  1        2 0.23818375E+00 0.22684139E+04</pdfrwt>
<pdfrwt beam="2">  1       -2 0.12783382E+00 0.22684139E+04</pdfrwt>
<totfact> 0.49123076E+00</totfact>
</mgrwt>
</event>
<event>
 6    1  0.1773638E-005  0.3220402E+04  0.7818608E-02  0.8183450E-01
          1   -1    0    0  501    0  0.00000000000E+00  0.00000000000E+00  0.24738529827E+04  0.24738529827E+04  0.00000000000E+00 0. -1.
         -1   -1    0    0    0  501 -0.00000000000E+00 -0.00000000000E+00 -0.10480602254E+04  0.10480602254E+04  0.00000000000E+00 0.  1.
         23    2    1    2    0    0  0.52627086384E+03  0.11490222971E+03  0.23714708472E+04  0.24335793465E+04  0.90944556100E+02 0.  0.
         13    1    3    3    0    0  0.85423947947E+02  0.41497209325E+02  0.31004259125E+03  0.32426174251E+03  0.00000000000E+00 0. -1.
        -13    1    3    3    0    0  0.44084691589E+03  0.73405020387E+02  0.20614282559E+04  0.21093176040E+04  0.00000000000E+00 0.  1.
         22    1    1    2    0    0 -0.52627086384E+03 -0.11490222971E+03 -0.94567808989E+03  0.10883338616E+04  0.00000000000E+00 0.  1.
<mgrwt>
<rscale>  0 0.32204018E+04</rscale>
<asrwt>0</asrwt>
<pdfrwt beam="1">  1        1 0.38059276E+00 0.32204018E+04</pdfrwt>
<pdfrwt beam="2">  1       -1 0.16124004E+00 0.32204018E+04</pdfrwt>
<totfact> 0.33729463E-01</totfact>
</mgrwt>
</event>
<event>
 6    1  0.1773638E-005  0.2139061E+04  0.7818608E-02  0.8544229E-01
         -2   -1    0    0    0  501 -0.00000000000E+00  0.00000000000E+00  0.63975936429E+03  0.63975936429E+03  0.00000000000E+00 0. -1.
          2   -1    0    0  501    0  0.00000000000E+00 -0.00000000000E+00 -0.17880091307E+04  0.17880091307E+04  0.00000000000E+00 0.  1.
         23    2    1    2    0    0 -0.76605016174E+03 -0.74360957964E+03 -0.57206214486E+03  0.12145989964E+04  0.90595624366E+02 0.  0.
         13    1    3    3    0    0 -0.17691270494E+03 -0.20421455207E+03 -0.10926034763E+03  0.29144384023E+03  0.00000000000E+00 0.  1.
        -13    1    3    3    0    0 -0.58913745680E+03 -0.53939502757E+03 -0.46280179723E+03  0.92315515613E+03  0.00000000000E+00 0. -1.
         22    1    1    2    0    0  0.76605016174E+03  0.74360957964E+03 -0.57618762159E+03  0.12131694987E+04  0.00000000000E+00 0. -1.
<mgrwt>
<rscale>  0 0.21390611E+04</rscale>
<asrwt>0</asrwt>
<pdfrwt beam="1">  1        2 0.27507833E+00 0.21390611E+04</pdfrwt>
<pdfrwt beam="2">  1       -2 0.98424517E-01 0.21390611E+04</pdfrwt>
<totfact> 0.69029614E+00</totfact>
</mgrwt>
</event>
<event>
 6    1  0.1773638E-005  0.2146649E+04  0.7818608E-02  0.8540968E-01
          2   -1    0    0  501    0  0.00000000000E+00  0.00000000000E+00  0.19740342339E+04  0.19740342339E+04  0.00000000000E+00 0. -1.
         -2   -1    0    0    0  501 -0.00000000000E+00 -0.00000000000E+00 -0.58358929693E+03  0.58358929693E+03  0.00000000000E+00 0.  1.
         23    2    1    2    0    0  0.80629875537E+03 -0.34008774056E+03 -0.41068288171E+02  0.87982513175E+03  0.81414396549E+02 0.  0.
         11    1    3    3    0    0  0.61547176525E+03 -0.29249552481E+03 -0.16645224276E+02  0.68164227374E+03  0.00000000000E+00 0. -1.
        -11    1    3    3    0    0  0.19082699012E+03 -0.47592215754E+02 -0.24423063894E+02  0.19818285801E+03  0.00000000000E+00 0.  1.
         22    1    1    2    0    0 -0.80629875537E+03  0.34008774056E+03  0.14315132252E+04  0.16777983991E+04  0.00000000000E+00 0. -1.
<mgrwt>
<rscale>  0 0.21466488E+04</rscale>
<asrwt>0</asrwt>
<pdfrwt beam="1">  1        2 0.30369757E+00 0.21466488E+04</pdfrwt>
<pdfrwt beam="2">  1       -2 0.89782970E-01 0.21466488E+04</pdfrwt>
<totfact> 0.67382731E+00</totfact>
</mgrwt>
</event>
<event>
 6    1  0.1773638E-005  0.3319793E+04  0.7818608E-02  0.8157877E-01
         -1   -1    0    0    0  501 -0.00000000000E+00  0.00000000000E+00  0.29023589060E+04  0.29023589060E+04  0.00000000000E+00 0.  1.
          1   -1    0    0  501    0  0.00000000000E+00 -0.00000000000E+00 -0.94931638396E+03  0.94931638396E+03  0.00000000000E+00 0. -1.
         23    2    1    2    0    0 -0.14825856278E+04  0.72687457138E+03  0.79474384011E+03  0.18347314080E+04  0.90635434671E+02 0.  0.
         13    1    3    3    0    0 -0.70437693007E+03  0.39579151614E+03  0.38760455322E+03  0.89612224252E+03  0.00000000000E+00 0. -1.
        -13    1    3    3    0    0 -0.77820869772E+03  0.33108305524E+03  0.40713928689E+03  0.93860916552E+03  0.00000000000E+00 0.  1.
         22    1    1    2    0    0  0.14825856278E+04 -0.72687457138E+03  0.11582986819E+04  0.20169438819E+04  0.00000000000E+00 0.  1.
<mgrwt>
<rscale>  0 0.33197933E+04</rscale>
<asrwt>0</asrwt>
<pdfrwt beam="1">  1        1 0.14604868E+00 0.33197933E+04</pdfrwt>
<pdfrwt beam="2">  1       -1 0.44651675E+00 0.33197933E+04</pdfrwt>
<totfact> 0.46959572E-02</totfact>
</mgrwt>
</event>
<event>
 6    1  0.1773638E-005  0.1145284E+04  0.7818608E-02  0.9162145E-01
         -2   -1    0    0    0  501 -0.00000000000E+00  0.00000000000E+00  0.65190168262E+03  0.65190168262E+03  0.00000000000E+00 0.  1.
          2   -1    0    0  501    0  0.00000000000E+00 -0.00000000000E+00 -0.50301904701E+03  0.50301904701E+03  0.00000000000E+00 0. -1.
         23    2    1    2    0    0  0.35535135983E+03  0.12379420666E+03  0.50519049666E+03  0.63669791425E+03  0.92559178641E+02 0.  0.
         13    1    3    3    0    0  0.50597890975E+02  0.47783932528E+02  0.12943528028E+03  0.14695898257E+03  0.00000000000E+00 0.  1.
        -13    1    3    3    0    0  0.30475346886E+03  0.76010274127E+02  0.37575521639E+03  0.48973893167E+03  0.00000000000E+00 0. -1.
         22    1    1    2    0    0 -0.35535135983E+03 -0.12379420666E+03 -0.35630786106E+03  0.51822281539E+03  0.00000000000E+00 0. -1.
<mgrwt>
<rscale>  0 0.11452842E+04</rscale>
<asrwt>0</asrwt>
<pdfrwt beam="1">  1        2 0.77387546E-01 0.11452842E+04</pdfrwt>
<pdfrwt beam="2">  1       -2 0.10029257E+00 0.11452842E+04</pdfrwt>
<totfact> 0.49678386E+01</totfact>
</mgrwt>
</event>
<event>
 6    1  0.1773638E-005  0.2694442E+04  0.7818608E-02  0.8336810E-01
         -2   -1    0    0    0  501 -0.00000000000E+00  0.00000000000E+00  0.11625999562E+04  0.11625999562E+04  0.00000000000E+00 0.  1.
          2   -1    0    0  501    0  0.00000000000E+00 -0.00000000000E+00 -0.15611602945E+04  0.15611602945E+04  0.00000000000E+00 0. -1.
         23    2    1    2    0    0 -0.23058922433E+03  0.10806504374E+04  0.57686028495E+03  0.12498463623E+04  0.91495260945E+02 0.  0.
         13    1    3    3    0    0 -0.88163450286E+02  0.52613908197E+03  0.23414303116E+03  0.58259598916E+03  0.00000000000E+00 0. -1.
        -13    1    3    3    0    0 -0.14242577404E+03  0.55451135540E+03  0.34271725379E+03  0.66725037312E+03  0.00000000000E+00 0.  1.
         22    1    1    2    0    0  0.23058922433E+03 -0.10806504374E+04 -0.97542062326E+03  0.14739138884E+04  0.00000000000E+00 0. -1.
<mgrwt>
<rscale>  0 0.26944423E+04</rscale>
<asrwt>0</asrwt>
<pdfrwt beam="1">  1        2 0.24017851E+00 0.26944423E+04</pdfrwt>
<pdfrwt beam="2">  1       -2 0.17886153E+00 0.26944423E+04</pdfrwt>
<totfact> 0.19006129E+00</totfact>
</mgrwt>
</event>
<event>
 6    1  0.1773638E-005  0.1387714E+04  0.7818608E-02  0.8962760E-01
          2   -1    0    0  501    0  0.00000000000E+00  0.00000000000E+00  0.16464750010E+04  0.16464750010E+04  0.00000000000E+00 0. -1.
         -2   -1    0    0    0  501 -0.00000000000E+00 -0.00000000000E+00 -0.29240493679E+03  0.29240493679E+03  0.00000000000E+00 0.  1.
         23    2    1    2    0    0 -0.19562573315E+03  0.17975961394E+03 -0.21148393563E+03  0.35094345522E+03  0.88616631932E+02 0.  0.
         13    1    3    3    0    0 -0.11473154351E+03  0.49573810196E+02 -0.75321719654E+02  0.14592549875E+03  0.00000000000E+00 0. -1.
        -13    1    3    3    0    0 -0.80894189637E+02  0.13018580375E+03 -0.13616221598E+03  0.20501795647E+03  0.00000000000E+00 0.  1.
         22    1    1    2    0    0  0.19562573315E+03 -0.17975961394E+03  0.15655539999E+04  0.15879364826E+04  0.00000000000E+00 0. -1.
<mgrwt>
<rscale>  0 0.13877138E+04</rscale>
<asrwt>0</asrwt>
<pdfrwt beam="1">  1        2 0.25330384E+00 0.13877138E+04</pdfrwt>
<pdfrwt beam="2">  1       -2 0.44985376E-01 0.13877138E+04</pdfrwt>
<totfact> 0.47944973E+01</totfact>
</mgrwt>
</event>
<event>
 6    1  0.1773638E-005  0.1403022E+04  0.7818608E-02  0.8951634E-01
          2   -1    0    0  501    0  0.00000000000E+00  0.00000000000E+00  0.27339661764E+04  0.27339661764E+04  0.00000000000E+00 0. -1.
         -2   -1    0    0    0  501 -0.00000000000E+00 -0.00000000000E+00 -0.18000132404E+03  0.18000132404E+03  0.00000000000E+00 0.  1.
         23    2    1    2    0    0  0.33884291770E+03  0.35707790742E+03  0.23117450174E+04  0.23653423066E+04  0.91433293056E+02 0.  0.
         13    1    3    3    0    0  0.30232108248E+03  0.33300898382E+03  0.19631346747E+04  0.20139987019E+04  0.00000000000E+00 0.  1.
        -13    1    3    3    0    0  0.36521835220E+02  0.24068923600E+02  0.34861034276E+03  0.35134360477E+03  0.00000000000E+00 0. -1.
         22    1    1    2    0    0 -0.33884291770E+03 -0.35707790742E+03  0.24221983493E+03  0.54862519381E+03  0.00000000000E+00 0.  1.
<mgrwt>
<rscale>  0 0.14030218E+04</rscale>
<asrwt>0</asrwt>
<pdfrwt beam="1">  1        2 0.42061015E+00 0.14030218E+04</pdfrwt>
<pdfrwt beam="2">  1       -2 0.27692513E-01 0.14030218E+04</pdfrwt>
<totfact> 0.29512375E+01</totfact>
</mgrwt>
</event>
<event>
 6    1  0.1773638E-005  0.4012954E+04  0.7818608E-02  0.8001938E-01
          2   -1    0    0  501    0  0.00000000000E+00  0.00000000000E+00  0.16135540094E+04  0.16135540094E+04  0.00000000000E+00 0.  1.
         -2   -1    0    0    0  501 -0.00000000000E+00 -0.00000000000E+00 -0.24950826407E+04  0.24950826407E+04  0.00000000000E+00 0. -1.
         23    2    1    2    0    0  0.10836573713E+04  0.10867975786E+04 -0.17626633744E+04  0.23389359096E+04  0.90535863243E+02 0.  0.
         11    1    3    3    0    0  0.66480911190E+03  0.60901872531E+03 -0.10063977680E+04  0.13511888952E+04  0.00000000000E+00 0.  1.
        -11    1    3    3    0    0  0.41884825941E+03  0.47777885325E+03 -0.75626560647E+03  0.98774701445E+03  0.00000000000E+00 0. -1.
         22    1    1    2    0    0 -0.10836573713E+04 -0.10867975786E+04  0.88113474310E+03  0.17697007404E+04  0.00000000000E+00 0.  1.
<mgrwt>
<rscale>  0 0.40129543E+04</rscale>
<asrwt>0</asrwt>
<pdfrwt beam="1">  1        2 0.24823908E+00 0.40129543E+04</pdfrwt>
<pdfrwt beam="2">  1       -2 0.38385887E+00 0.40129543E+04</pdfrwt>
<totfact> 0.81605814E-02</totfact>
</mgrwt>
</event>
<event>
 6    1  0.1783284E-005  0.1872598E+04  0.7818608E-02  0.8668618E-01
          1   -1    0    0  501    0  0.00000000000E+00  0.00000000000E+00  0.11954860345E+04  0.11954860345E+04  0.00000000000E+00 0. -1.
         -1   -1    0    0    0  501 -0.00000000000E+00 -0.00000000000E+00 -0.73330456425E+03  0.73330456425E+03  0.00000000000E+00 0.  1.
         23    2    1    2    0    0 -0.61755431947E+02 -0.92257810788E+03  0.37305560096E+03  0.99986244267E+03  0.74768471517E+02 0.  0.
         11    1    3    3    0    0 -0.11824100429E+02 -0.66939937226E+03  0.27587784041E+03  0.72411595187E+03  0.00000000000E+00 0. -1.
        -11    1    3    3    0    0 -0.49931331518E+02 -0.25317873562E+03  0.97177760546E+02  0.27574649079E+03  0.00000000000E+00 0.  1.
         22    1    1    2    0    0  0.61755431947E+02  0.92257810788E+03  0.89125869242E+02  0.92892815604E+03  0.00000000000E+00 0. -1.
<mgrwt>
<rscale>  0 0.18725975E+04</rscale>
<asrwt>0</asrwt>
<pdfrwt beam="1">  1        1 0.18392093E+00 0.18725975E+04</pdfrwt>
<pdfrwt beam="2">  1       -1 0.11281609E+00 0.18725975E+04</pdfrwt>
<totfact> 0.72575018E+00</totfact>
</mgrwt>
</event>
<event>
 6    1  0.1773638E-005  0.4288841E+04  0.7818608E-02  0.7948685E-01
          1   -1    0    0  501    0  0.00000000000E+00  0.00000000000E+00  0.17365367038E+04  0.17365367038E+04  0.00000000000E+00 0. -1.
         -1   -1    0    0    0  501 -0.00000000000E+00 -0.00000000000E+00 -0.26481098251E+04  0.26481098251E+04  0.00000000000E+00 0.  1.
         23    2    1    2    0    0 -0.14618042625E+04  0.18840782032E+03 -0.20468689651E+04  0.25241987706E+04  0.97660969545E+02 0.  0.
         13    1    3    3    0    0 -0.61683752119E+03  0.91810660487E+02 -0.94636265082E+03  0.11333666626E+04  0.00000000000E+00 0. -1.
        -13    1    3    3    0    0 -0.84496674127E+03  0.96597159830E+02 -0.11005063142E+04  0.13908321081E+04  0.00000000000E+00 0.  1.
         22    1    1    2    0    0  0.14618042625E+04 -0.18840782032E+03  0.11352958437E+04  0.18604477583E+04  0.00000000000E+00 0. -1.
<mgrwt>
<rscale>  0 0.42888413E+04</rscale>
<asrwt>0</asrwt>
<pdfrwt beam="1">  1        1 0.26715949E+00 0.42888413E+04</pdfrwt>
<pdfrwt beam="2">  1       -1 0.40740151E+00 0.42888413E+04</pdfrwt>
<totfact> 0.21889692E-02</totfact>
</mgrwt>
</event>
<event>
 6    1  0.1773638E-005  0.2488996E+04  0.7818608E-02  0.8406916E-01
          2   -1    0    0  501    0  0.00000000000E+00  0.00000000000E+00  0.22649726103E+04  0.22649726103E+04  0.00000000000E+00 0. -1.
         -2   -1    0    0    0  501 -0.00000000000E+00 -0.00000000000E+00 -0.68379447208E+03  0.68379447208E+03  0.00000000000E+00 0.  1.
         23    2    1    2    0    0  0.57330040182E+03  0.10997764380E+04  0.69519921752E+03  0.14245819847E+04  0.89164537535E+02 0.  0.
         11    1    3    3    0    0  0.44798740255E+03  0.82815075958E+03  0.56726645704E+03  0.10992350189E+04  0.00000000000E+00 0. -1.
        -11    1    3    3    0    0  0.12531299927E+03  0.27162567838E+03  0.12793276049E+03  0.32534696579E+03  0.00000000000E+00 0.  1.
         22    1    1    2    0    0 -0.57330040182E+03 -0.10997764380E+04  0.88597892074E+03  0.15241850978E+04  0.00000000000E+00 0. -1.
<mgrwt>
<rscale>  0 0.24889964E+04</rscale>
<asrwt>0</asrwt>
<pdfrwt beam="1">  1        2 0.34845732E+00 0.24889964E+04</pdfrwt>
<pdfrwt beam="2">  1       -2 0.10519915E+00 0.24889964E+04</pdfrwt>
<totfact> 0.30995132E+00</totfact>
</mgrwt>
</event>
<event>
 6    1  0.1773638E-005  0.2432069E+04  0.7818608E-02  0.8427594E-01
          1   -1    0    0  501    0  0.00000000000E+00  0.00000000000E+00  0.15395313516E+04  0.15395313516E+04  0.00000000000E+00 0. -1.
         -1   -1    0    0    0  501 -0.00000000000E+00 -0.00000000000E+00 -0.96051325291E+03  0.96051325291E+03  0.00000000000E+00 0.  1.
         23    2    1    2    0    0  0.57902271758E+03  0.96321481722E+03 -0.18262625165E+03  0.11424171858E+04  0.93351952764E+02 0.  0.
         13    1    3    3    0    0  0.23014869908E+03  0.39881099008E+03 -0.29165480449E+02  0.46137756203E+03  0.00000000000E+00 0.  1.
        -13    1    3    3    0    0  0.34887401850E+03  0.56440382714E+03 -0.15346077120E+03  0.68103962379E+03  0.00000000000E+00 0. -1.
         22    1    1    2    0    0 -0.57902271758E+03 -0.96321481722E+03  0.76164435036E+03  0.13576274187E+04  0.00000000000E+00 0.  1.
<mgrwt>
<rscale>  0 0.24320693E+04</rscale>
<asrwt>0</asrwt>
<pdfrwt beam="1">  1        1 0.23685098E+00 0.24320693E+04</pdfrwt>
<pdfrwt beam="2">  1       -1 0.14777127E+00 0.24320693E+04</pdfrwt>
<totfact> 0.19938138E+00</totfact>
</mgrwt>
</event>
<event>
 6    1  0.1773638E-005  0.1851392E+04  0.7818608E-02  0.8679437E-01
          1   -1    0    0  501    0  0.00000000000E+00  0.00000000000E+00  0.12476754329E+04  0.12476754329E+04  0.00000000000E+00 0. -1.
         -1   -1    0    0    0  501 -0.00000000000E+00 -0.00000000000E+00 -0.68680768187E+03  0.68680768187E+03  0.00000000000E+00 0.  1.
         23    2    1    2    0    0  0.47196968818E+03  0.78726017984E+03  0.17615078401E+03  0.93922379078E+03  0.92618859411E+02 0.  0.
         11    1    3    3    0    0  0.19085234340E+03  0.37256804463E+03  0.11764303576E+03  0.43482346846E+03  0.00000000000E+00 0.  1.
        -11    1    3    3    0    0  0.28111734479E+03  0.41469213521E+03  0.58507748253E+02  0.50440032231E+03  0.00000000000E+00 0. -1.
         22    1    1    2    0    0 -0.47196968818E+03 -0.78726017984E+03  0.38471696706E+03  0.99525932403E+03  0.00000000000E+00 0. -1.
<mgrwt>
<rscale>  0 0.18513920E+04</rscale>
<asrwt>0</asrwt>
<pdfrwt beam="1">  1        1 0.19195007E+00 0.18513920E+04</pdfrwt>
<pdfrwt beam="2">  1       -1 0.10566272E+00 0.18513920E+04</pdfrwt>
<totfact> 0.77759311E+00</totfact>
</mgrwt>
</event>
<event>
 6    1  0.1773638E-005  0.1356971E+04  0.7818608E-02  0.8985568E-01
          1   -1    0    0  501    0  0.00000000000E+00  0.00000000000E+00  0.76207156257E+03  0.76207156257E+03  0.00000000000E+00 0. -1.
         -1   -1    0    0    0  501 -0.00000000000E+00 -0.00000000000E+00 -0.60406723269E+03  0.60406723269E+03  0.00000000000E+00 0.  1.
         23    2    1    2    0    0  0.48723406523E+03  0.37458120180E+03 -0.20269026722E+03  0.65353181843E+03  0.91172266662E+02 0.  0.
         11    1    3    3    0    0  0.40536731782E+03  0.29633779159E+03 -0.12905715833E+03  0.51845395089E+03  0.00000000000E+00 0.  1.
        -11    1    3    3    0    0  0.81866747413E+02  0.78243410206E+02 -0.73633108888E+02  0.13507786753E+03  0.00000000000E+00 0. -1.
         22    1    1    2    0    0 -0.48723406523E+03 -0.37458120180E+03  0.36069459709E+03  0.71260697684E+03  0.00000000000E+00 0. -1.
<mgrwt>
<rscale>  0 0.13569708E+04</rscale>
<asrwt>0</asrwt>
<pdfrwt beam="1">  1        1 0.11724178E+00 0.13569708E+04</pdfrwt>
<pdfrwt beam="2">  1       -1 0.92933421E-01 0.13569708E+04</pdfrwt>
<totfact> 0.26298093E+01</totfact>
</mgrwt>
</event>
<event>
 6    1  0.1773638E-005  0.3490241E+04  0.7818608E-02  0.8116107E-01
         -1   -1    0    0    0  501 -0.00000000000E+00  0.00000000000E+00  0.22568784962E+04  0.22568784962E+04  0.00000000000E+00 0.  1.
          1   -1    0    0  501    0  0.00000000000E+00 -0.00000000000E+00 -0.13494062368E+04  0.13494062368E+04  0.00000000000E+00 0. -1.
         23    2    1    2    0    0 -0.40970449488E+03 -0.12273355737E+04 -0.75374424141E+03  0.15006136652E+04  0.97471058730E+02 0.  0.
         11    1    3    3    0    0 -0.37999386280E+02 -0.23179713363E+03 -0.13970793378E+03  0.27329868510E+03  0.00000000000E+00 0.  1.
        -11    1    3    3    0    0 -0.37170510860E+03 -0.99553844003E+03 -0.61403630763E+03  0.12273149801E+04  0.00000000000E+00 0. -1.
         22    1    1    2    0    0  0.40970449488E+03  0.12273355737E+04  0.16612165008E+04  0.21056710679E+04  0.00000000000E+00 0.  1.
<mgrwt>
<rscale>  0 0.34902412E+04</rscale>
<asrwt>0</asrwt>
<pdfrwt beam="1">  1        1 0.20760096E+00 0.34902412E+04</pdfrwt>
<pdfrwt beam="2">  1       -1 0.34721208E+00 0.34902412E+04</pdfrwt>
<totfact> 0.11037754E-01</totfact>
</mgrwt>
</event>
<event>
 6    1  0.1773638E-005  0.8094643E+03  0.7818608E-02  0.9546418E-01
         -1   -1    0    0    0  501 -0.00000000000E+00  0.00000000000E+00  0.19000115605E+03  0.19000115605E+03  0.00000000000E+00 0.  1.
          1   -1    0    0  501    0  0.00000000000E+00 -0.00000000000E+00 -0.86214279517E+03  0.86214279517E+03  0.00000000000E+00 0. -1.
         23    2    1    2    0    0 -0.19106643029E+03 -0.96649608671E+02 -0.77845207759E+03  0.81308446707E+03  0.96286997248E+02 0.  0.
         11    1    3    3    0    0 -0.11381697764E+03 -0.10713727138E+03 -0.54399079346E+03  0.56600236986E+03  0.00000000000E+00 0. -1.
        -11    1    3    3    0    0 -0.77249452648E+02  0.10487662708E+02 -0.23446128413E+03  0.24708209721E+03  0.00000000000E+00 0.  1.
         22    1    1    2    0    0  0.19106643029E+03  0.96649608671E+02  0.10631043847E+03  0.23905948416E+03  0.00000000000E+00 0.  1.
<mgrwt>
<rscale>  0 0.80946434E+03</rscale>
<asrwt>0</asrwt>
<pdfrwt beam="1">  1        1 0.13263735E+00 0.80946434E+03</pdfrwt>
<pdfrwt beam="2">  1       -1 0.29230948E-01 0.80946434E+03</pdfrwt>
<totfact> 0.21087251E+02</totfact>
</mgrwt>
</event>
<event>
 6    1  0.1773638E-005  0.2159230E+04  0.7818608E-02  0.8535592E-01
          1   -1    0    0  501    0  0.00000000000E+00  0.00000000000E+00  0.10819458217E+04  0.10819458217E+04  0.00000000000E+00 0. -1.
         -1   -1    0    0    0  501 -0.00000000000E+00 -0.00000000000E+00 -0.10772893415E+04  0.10772893415E+04  0.00000000000E+00 0.  1.
         23    2    1    2    0    0  0.57562020578E+03  0.22853147237E+03 -0.87962265508E+03  0.10796450354E+04  0.91280512088E+02 0.  0.
         13    1    3    3    0    0  0.53673193585E+03  0.21700091485E+03 -0.85375555615E+03  0.10315372595E+04  0.00000000000E+00 0.  1.
        -13    1    3    3    0    0  0.38888269926E+02  0.11530557527E+02 -0.25867098931E+02  0.48107775898E+02  0.00000000000E+00 0. -1.
         22    1    1    2    0    0 -0.57562020578E+03 -0.22853147237E+03  0.88427913520E+03  0.10795901278E+04  0.00000000000E+00 0. -1.
<mgrwt>
<rscale>  0 0.21592301E+04</rscale>
<asrwt>0</asrwt>
<pdfrwt beam="1">  1        1 0.16645320E+00 0.21592301E+04</pdfrwt>
<pdfrwt beam="2">  1       -1 0.16573682E+00 0.21592301E+04</pdfrwt>
<totfact> 0.31679411E+00</totfact>
</mgrwt>
</event>
<event>
 6    1  0.1773638E-005  0.7952977E+03  0.7818608E-02  0.9566849E-01
         -1   -1    0    0    0  501 -0.00000000000E+00  0.00000000000E+00  0.15625776341E+03  0.15625776341E+03  0.00000000000E+00 0.  1.
          1   -1    0    0  501    0  0.00000000000E+00 -0.00000000000E+00 -0.10119470866E+04  0.10119470866E+04  0.00000000000E+00 0. -1.
         23    2    1    2    0    0 -0.14304364155E+03  0.32018282431E+03 -0.69189029671E+03  0.78115363189E+03  0.92251230668E+02 0.  0.
         13    1    3    3    0    0 -0.42163909255E+02  0.16078159363E+03 -0.40519841890E+03  0.43796606577E+03  0.00000000000E+00 0.  1.
        -13    1    3    3    0    0 -0.10087973230E+03  0.15940123069E+03 -0.28669187781E+03  0.34318756611E+03  0.00000000000E+00 0. -1.
         22    1    1    2    0    0  0.14304364155E+03 -0.32018282431E+03 -0.16379902648E+03  0.38705121812E+03  0.00000000000E+00 0.  1.
<mgrwt>
<rscale>  0 0.79529765E+03</rscale>
<asrwt>0</asrwt>
<pdfrwt beam="1">  1        1 0.15568416E+00 0.79529765E+03</pdfrwt>
<pdfrwt beam="2">  1       -1 0.24039657E-01 0.79529765E+03</pdfrwt>
<totfact> 0.22406040E+02</totfact>
</mgrwt>
</event>
<event>
 6    1  0.1773638E-005  0.2858858E+04  0.7818608E-02  0.8285225E-01
          2   -1    0    0  501    0  0.00000000000E+00  0.00000000000E+00  0.20277854707E+04  0.20277854707E+04  0.00000000000E+00 0. -1.
         -2   -1    0    0    0  501 -0.00000000000E+00 -0.00000000000E+00 -0.10076345589E+04  0.10076345589E+04  0.00000000000E+00 0.  1.
         23    2    1    2    0    0  0.12258329740E+04 -0.29424782523E+03  0.12227309298E+04  0.17585931320E+04  0.91272200332E+02 0.  0.
         13    1    3    3    0    0  0.31936140963E+03 -0.56368662418E+02  0.36377024770E+03  0.48733759262E+03  0.00000000000E+00 0.  1.
        -13    1    3    3    0    0  0.90647156437E+03 -0.23787916281E+03  0.85896068206E+03  0.12712555394E+04  0.00000000000E+00 0. -1.
         22    1    1    2    0    0 -0.12258329740E+04  0.29424782523E+03 -0.20258001797E+03  0.12768268976E+04  0.00000000000E+00 0.  1.
<mgrwt>
<rscale>  0 0.28588576E+04</rscale>
<asrwt>0</asrwt>
<pdfrwt beam="1">  1        2 0.31196699E+00 0.28588576E+04</pdfrwt>
<pdfrwt beam="2">  1       -2 0.15502070E+00 0.28588576E+04</pdfrwt>
<totfact> 0.15322888E+00</totfact>
</mgrwt>
</event>
<event>
 6    1  0.1773638E-005  0.2765039E+04  0.7818608E-02  0.8314205E-01
         -2   -1    0    0    0  501 -0.00000000000E+00  0.00000000000E+00  0.15314825287E+04  0.15314825287E+04  0.00000000000E+00 0.  1.
          2   -1    0    0  501    0  0.00000000000E+00 -0.00000000000E+00 -0.12480461260E+04  0.12480461260E+04  0.00000000000E+00 0. -1.
         23    2    1    2    0    0 -0.74547543297E+03  0.15339034505E+03 -0.10165558377E+04  0.12731282948E+04  0.90596164011E+02 0.  0.
         11    1    3    3    0    0 -0.35039764086E+03  0.41490354365E+02 -0.41399855759E+03  0.54396209602E+03  0.00000000000E+00 0. -1.
        -11    1    3    3    0    0 -0.39507779212E+03  0.11189999068E+03 -0.60255728007E+03  0.72916619882E+03  0.00000000000E+00 0.  1.
         22    1    1    2    0    0  0.74547543297E+03 -0.15339034505E+03  0.12999922404E+04  0.15064003598E+04  0.00000000000E+00 0.  1.
<mgrwt>
<rscale>  0 0.27650395E+04</rscale>
<asrwt>0</asrwt>
<pdfrwt beam="1">  1        2 0.19200710E+00 0.27650395E+04</pdfrwt>
<pdfrwt beam="2">  1       -2 0.23561270E+00 0.27650395E+04</pdfrwt>
<totfact> 0.12206195E+00</totfact>
</mgrwt>
</event>
<event>
 6    1  0.1773638E-005  0.2452592E+04  0.7818608E-02  0.8420072E-01
         -1   -1    0    0    0  501 -0.00000000000E+00  0.00000000000E+00  0.50490881101E+03  0.50490881101E+03  0.00000000000E+00 0.  1.
          1   -1    0    0  501    0  0.00000000000E+00 -0.00000000000E+00 -0.29783639475E+04  0.29783639475E+04  0.00000000000E+00 0. -1.
         23    2    1    2    0    0 -0.30669821774E+03  0.57549526017E+03  0.23143231484E+03  0.70088624410E+03  0.11145411422E+03 0.  0.
         11    1    3    3    0    0 -0.13489679215E+03  0.22245049322E+03  0.14863819502E+03  0.29962423047E+03  0.00000000000E+00 0.  1.
        -11    1    3    3    0    0 -0.17180142559E+03  0.35304476695E+03  0.82794119812E+02  0.40126201363E+03  0.00000000000E+00 0. -1.
         22    1    1    2    0    0  0.30669821774E+03 -0.57549526017E+03 -0.27048874513E+04  0.27823865144E+04  0.00000000000E+00 0. -1.
<mgrwt>
<rscale>  0 0.24525923E+04</rscale>
<asrwt>0</asrwt>
<pdfrwt beam="1">  1        1 0.45820984E+00 0.24525923E+04</pdfrwt>
<pdfrwt beam="2">  1       -1 0.77678278E-01 0.24525923E+04</pdfrwt>
<totfact> 0.91830037E-01</totfact>
</mgrwt>
</event>
<event>
 6    1  0.1773638E-005  0.2348710E+04  0.7818608E-02  0.8458959E-01
          2   -1    0    0  501    0  0.00000000000E+00  0.00000000000E+00  0.13732413504E+04  0.13732413504E+04  0.00000000000E+00 0. -1.
         -2   -1    0    0    0  501 -0.00000000000E+00 -0.00000000000E+00 -0.10042730132E+04  0.10042730132E+04  0.00000000000E+00 0.  1.
         23    2    1    2    0    0 -0.17602845646E+03 -0.11253793541E+04 -0.96975533654E+02  0.11468363395E+04  0.91458337151E+02 0.  0.
         11    1    3    3    0    0 -0.91496318955E+02 -0.73645408400E+03 -0.26140039830E+02  0.74257625595E+03  0.00000000000E+00 0. -1.
        -11    1    3    3    0    0 -0.84532137506E+02 -0.38892527011E+03 -0.70835493823E+02  0.40426008359E+03  0.00000000000E+00 0.  1.
         22    1    1    2    0    0  0.17602845646E+03  0.11253793541E+04  0.46594387078E+03  0.12306780240E+04  0.00000000000E+00 0. -1.
<mgrwt>
<rscale>  0 0.23487096E+04</rscale>
<asrwt>0</asrwt>
<pdfrwt beam="1">  1        2 0.21126790E+00 0.23487096E+04</pdfrwt>
<pdfrwt beam="2">  1       -2 0.15450354E+00 0.23487096E+04</pdfrwt>
<totfact> 0.37491157E+00</totfact>
</mgrwt>
</event>
<event>
 6    1  0.1773638E-005  0.3040175E+04  0.7818608E-02  0.8232351E-01
          1   -1    0    0  501    0  0.00000000000E+00  0.00000000000E+00  0.20223643822E+04  0.20223643822E+04  0.00000000000E+00 0. -1.
         -1   -1    0    0    0  501 -0.00000000000E+00 -0.00000000000E+00 -0.11425570009E+04  0.11425570009E+04  0.00000000000E+00 0.  1.
         23    2    1    2    0    0 -0.95296691587E+02 -0.69168736233E+03  0.18443914311E+04  0.19741505169E+04  0.89317666114E+02 0.  0.
         13    1    3    3    0    0 -0.59906382796E+02 -0.34952152362E+03  0.81511056729E+03  0.88890905445E+03  0.00000000000E+00 0.  1.
        -13    1    3    3    0    0 -0.35390308791E+02 -0.34216583871E+03  0.10292808638E+04  0.10852414624E+04  0.00000000000E+00 0. -1.
         22    1    1    2    0    0  0.95296691587E+02  0.69168736233E+03 -0.96458404985E+03  0.11907708662E+04  0.00000000000E+00 0.  1.
<mgrwt>
<rscale>  0 0.30401754E+04</rscale>
<asrwt>0</asrwt>
<pdfrwt beam="1">  1        1 0.31113298E+00 0.30401754E+04</pdfrwt>
<pdfrwt beam="2">  1       -1 0.17577800E+00 0.30401754E+04</pdfrwt>
<totfact> 0.54488349E-01</totfact>
</mgrwt>
</event>
<event>
 6    1  0.1773638E-005  0.8128545E+03  0.7818608E-02  0.9541595E-01
         -2   -1    0    0    0  501 -0.00000000000E+00  0.00000000000E+00  0.20491279743E+03  0.20491279743E+03  0.00000000000E+00 0.  1.
          2   -1    0    0  501    0  0.00000000000E+00 -0.00000000000E+00 -0.80611415812E+03  0.80611415812E+03  0.00000000000E+00 0. -1.
         23    2    1    2    0    0  0.36872609676E+03  0.13208224216E+03 -0.41353611374E+03  0.57671957819E+03  0.90491443645E+02 0.  0.
         13    1    3    3    0    0  0.44160895133E+02  0.20254589085E+02 -0.10270647770E+03  0.11361801617E+03  0.00000000000E+00 0. -1.
        -13    1    3    3    0    0  0.32456520162E+03  0.11182765307E+03 -0.31082963604E+03  0.46310156201E+03  0.00000000000E+00 0.  1.
         22    1    1    2    0    0 -0.36872609676E+03 -0.13208224216E+03 -0.18766524695E+03  0.43430737737E+03  0.00000000000E+00 0.  1.
<mgrwt>
<rscale>  0 0.81285449E+03</rscale>
<asrwt>0</asrwt>
<pdfrwt beam="1">  1        2 0.12401756E+00 0.81285449E+03</pdfrwt>
<pdfrwt beam="2">  1       -2 0.31525046E-01 0.81285449E+03</pdfrwt>
<totfact> 0.31993545E+02</totfact>
</mgrwt>
</event>
<event>
 6    1  0.1773638E-005  0.9285363E+03  0.7818608E-02  0.9390596E-01
          1   -1    0    0  501    0  0.00000000000E+00  0.00000000000E+00  0.95447650823E+03  0.95447650823E+03  0.00000000000E+00 0. -1.
         -1   -1    0    0    0  501 -0.00000000000E+00 -0.00000000000E+00 -0.22582525007E+03  0.22582525007E+03  0.00000000000E+00 0.  1.
         23    2    1    2    0    0  0.36759595274E+03  0.18333702162E+03  0.10512017068E+03  0.43362226547E+03  0.90767675199E+02 0.  0.
         11    1    3    3    0    0  0.29976716197E+03  0.15772852803E+03  0.49684553839E+02  0.34235536339E+03  0.00000000000E+00 0. -1.
        -11    1    3    3    0    0  0.67828790765E+02  0.25608493582E+02  0.55435616837E+02  0.91266902074E+02  0.00000000000E+00 0.  1.
         22    1    1    2    0    0 -0.36759595274E+03 -0.18333702162E+03  0.62353108749E+03  0.74667949284E+03  0.00000000000E+00 0. -1.
<mgrwt>
<rscale>  0 0.92853626E+03</rscale>
<asrwt>0</asrwt>
<pdfrwt beam="1">  1        1 0.14684254E+00 0.92853626E+03</pdfrwt>
<pdfrwt beam="2">  1       -1 0.34742347E-01 0.92853626E+03</pdfrwt>
<totfact> 0.12991882E+02</totfact>
</mgrwt>
</event>
<event>
 6    1  0.1773638E-005  0.2199963E+04  0.7818608E-02  0.8518443E-01
          1   -1    0    0  501    0  0.00000000000E+00  0.00000000000E+00  0.25380903006E+04  0.25380903006E+04  0.00000000000E+00 0. -1.
         -1   -1    0    0    0  501 -0.00000000000E+00 -0.00000000000E+00 -0.47672055421E+03  0.47672055421E+03  0.00000000000E+00 0.  1.
         23    2    1    2    0    0 -0.70453575359E+03  0.76830494605E+03  0.15055179723E+04  0.18334411781E+04  0.90879428100E+02 0.  0.
         11    1    3    3    0    0 -0.63889047886E+03  0.72942192334E+03  0.14088551131E+04  0.17102953300E+04  0.00000000000E+00 0.  1.
        -11    1    3    3    0    0 -0.65645274734E+02  0.38883022710E+02  0.96662859241E+02  0.12314584811E+03  0.00000000000E+00 0. -1.
         22    1    1    2    0    0  0.70453575359E+03 -0.76830494605E+03  0.55585177403E+03  0.11813696767E+04  0.00000000000E+00 0.  1.
<mgrwt>
<rscale>  0 0.21999635E+04</rscale>
<asrwt>0</asrwt>
<pdfrwt beam="1">  1        1 0.39047542E+00 0.21999635E+04</pdfrwt>
<pdfrwt beam="2">  1       -1 0.73341625E-01 0.21999635E+04</pdfrwt>
<totfact> 0.21771732E+00</totfact>
</mgrwt>
</event>
<event>
 6    1  0.1773638E-005  0.3597173E+04  0.7818608E-02  0.8091140E-01
          2   -1    0    0  501    0  0.00000000000E+00  0.00000000000E+00  0.43199936598E+04  0.43199936598E+04  0.00000000000E+00 0.  1.
         -2   -1    0    0    0  501 -0.00000000000E+00 -0.00000000000E+00 -0.74882372866E+03  0.74882372866E+03  0.00000000000E+00 0. -1.
         23    2    1    2    0    0  0.96118615377E+03 -0.43800398841E+03  0.38360757537E+04  0.39798263825E+04  0.88399832983E+02 0.  0.
         13    1    3    3    0    0  0.88619592295E+03 -0.42858490927E+03  0.35633512302E+04  0.36968229912E+04  0.00000000000E+00 0. -1.
        -13    1    3    3    0    0  0.74990230819E+02 -0.94190791367E+01  0.27272452353E+03  0.28300339134E+03  0.00000000000E+00 0.  1.
         22    1    1    2    0    0 -0.96118615377E+03  0.43800398841E+03 -0.26490582265E+03  0.10889910059E+04  0.00000000000E+00 0. -1.
<mgrwt>
<rscale>  0 0.35971732E+04</rscale>
<asrwt>0</asrwt>
<pdfrwt beam="1">  1        2 0.66461439E+00 0.35971732E+04</pdfrwt>
<pdfrwt beam="2">  1       -2 0.11520365E+00 0.35971732E+04</pdfrwt>
<totfact> 0.86703440E-02</totfact>
</mgrwt>
</event>
<event>
 6    1  0.1773638E-005  0.2097153E+04  0.7818608E-02  0.8562499E-01
         -1   -1    0    0    0  501 -0.00000000000E+00  0.00000000000E+00  0.97835982303E+03  0.97835982303E+03  0.00000000000E+00 0.  1.
          1   -1    0    0  501    0  0.00000000000E+00 -0.00000000000E+00 -0.11238325518E+04  0.11238325518E+04  0.00000000000E+00 0. -1.
         23    2    1    2    0    0 -0.34158480668E+03 -0.12692812207E+03 -0.10563461518E+04  0.11211310510E+04  0.90976440278E+02 0.  0.
         11    1    3    3    0    0 -0.99504399868E+02 -0.78182626032E+02 -0.41595994866E+03  0.43478308097E+03  0.00000000000E+00 0. -1.
        -11    1    3    3    0    0 -0.24208040682E+03 -0.48745496041E+02 -0.64038620318E+03  0.68634797003E+03  0.00000000000E+00 0.  1.
         22    1    1    2    0    0  0.34158480668E+03  0.12692812207E+03  0.91087342305E+03  0.98106132384E+03  0.00000000000E+00 0.  1.
<mgrwt>
<rscale>  0 0.20971529E+04</rscale>
<asrwt>0</asrwt>
<pdfrwt beam="1">  1        1 0.17289731E+00 0.20971529E+04</pdfrwt>
<pdfrwt beam="2">  1       -1 0.15051690E+00 0.20971529E+04</pdfrwt>
<totfact> 0.38691585E+00</totfact>
</mgrwt>
</event>
<event>
 6    1  0.1773638E-005  0.1928956E+04  0.7818608E-02  0.8640576E-01
          2   -1    0    0  501    0  0.00000000000E+00  0.00000000000E+00  0.98032365049E+03  0.98032365049E+03  0.00000000000E+00 0. -1.
         -2   -1    0    0    0  501 -0.00000000000E+00 -0.00000000000E+00 -0.94888887784E+03  0.94888887784E+03  0.00000000000E+00 0.  1.
         23    2    1    2    0    0 -0.24678797169E+03 -0.90362725398E+03 -0.20688408110E+03  0.96265037660E+03  0.80300731299E+02 0.  0.
         11    1    3    3    0    0 -0.38120410439E+02 -0.25992824020E+03 -0.75440949967E+02  0.27332616537E+03  0.00000000000E+00 0. -1.
        -11    1    3    3    0    0 -0.20866756126E+03 -0.64369901378E+03 -0.13144313113E+03  0.68932421123E+03  0.00000000000E+00 0.  1.
         22    1    1    2    0    0  0.24678797169E+03  0.90362725398E+03  0.23831885375E+03  0.96656215173E+03  0.00000000000E+00 0. -1.
<mgrwt>
<rscale>  0 0.19289564E+04</rscale>
<asrwt>0</asrwt>
<pdfrwt beam="1">  1        2 0.15081902E+00 0.19289564E+04</pdfrwt>
<pdfrwt beam="2">  1       -2 0.14598290E+00 0.19289564E+04</pdfrwt>
<totfact> 0.78007322E+00</totfact>
</mgrwt>
</event>
<event>
 6    1  0.1773638E-005  0.3052706E+04  0.7818608E-02  0.8228838E-01
         -2   -1    0    0    0  501 -0.00000000000E+00  0.00000000000E+00  0.75067094801E+03  0.75067094801E+03  0.00000000000E+00 0.  1.
          2   -1    0    0  501    0  0.00000000000E+00 -0.00000000000E+00 -0.31035621238E+04  0.31035621238E+04  0.00000000000E+00 0. -1.
         23    2    1    2    0    0 -0.86804054371E+02  0.21050357967E+03 -0.30813171767E+04  0.30910482058E+04  0.90646381909E+02 0.  0.
         13    1    3    3    0    0 -0.30908246774E+02  0.88006837961E+02 -0.73888112423E+03  0.74474548605E+03  0.00000000000E+00 0.  1.
        -13    1    3    3    0    0 -0.55895807597E+02  0.12249674171E+03 -0.23424360524E+04  0.23463027198E+04  0.00000000000E+00 0. -1.
         22    1    1    2    0    0  0.86804054371E+02 -0.21050357967E+03  0.72842600089E+03  0.76318486599E+03  0.00000000000E+00 0.  1.
<mgrwt>
<rscale>  0 0.30527063E+04</rscale>
<asrwt>0</asrwt>
<pdfrwt beam="1">  1        2 0.47747111E+00 0.30527063E+04</pdfrwt>
<pdfrwt beam="2">  1       -2 0.11548783E+00 0.30527063E+04</pdfrwt>
<totfact> 0.74405533E-01</totfact>
</mgrwt>
</event>
<event>
 6    1  0.1773638E-005  0.2215418E+04  0.7818608E-02  0.8512038E-01
         -1   -1    0    0    0  501 -0.00000000000E+00  0.00000000000E+00  0.81184396812E+03  0.81184396812E+03  0.00000000000E+00 0.  1.
          1   -1    0    0  501    0  0.00000000000E+00 -0.00000000000E+00 -0.15113984542E+04  0.15113984542E+04  0.00000000000E+00 0. -1.
         23    2    1    2    0    0 -0.47938142101E+03  0.96074227872E+02 -0.13904999612E+04  0.14768131850E+04  0.91925172264E+02 0.  0.
         11    1    3    3    0    0 -0.14717928918E+03 -0.11061850371E+02 -0.45329417532E+03  0.47671764922E+03  0.00000000000E+00 0.  1.
        -11    1    3    3    0    0 -0.33220213183E+03  0.10713607824E+03 -0.93720578589E+03  0.10000955358E+04  0.00000000000E+00 0. -1.
         22    1    1    2    0    0  0.47938142101E+03 -0.96074227872E+02  0.69094547515E+03  0.84642923727E+03  0.00000000000E+00 0.  1.
<mgrwt>
<rscale>  0 0.22154184E+04</rscale>
<asrwt>0</asrwt>
<pdfrwt beam="1">  1        1 0.23252284E+00 0.22154184E+04</pdfrwt>
<pdfrwt beam="2">  1       -1 0.12489907E+00 0.22154184E+04</pdfrwt>
<totfact> 0.32797169E+00</totfact>
</mgrwt>
</event>
<event>
 6    1  0.1773638E-005  0.2691960E+04  0.7818608E-02  0.8337618E-01
         -2   -1    0    0    0  501 -0.00000000000E+00  0.00000000000E+00  0.15001772410E+04  0.15001772410E+04  0.00000000000E+00 0.  1.
          2   -1    0    0  501    0  0.00000000000E+00 -0.00000000000E+00 -0.12076321679E+04  0.12076321679E+04  0.00000000000E+00 0. -1.
         23    2    1    2    0    0 -0.83607583420E+03 -0.50809931664E+03  0.10738901290E+04  0.14557360035E+04  0.93485755815E+02 0.  0.
         13    1    3    3    0    0 -0.46443571931E+03 -0.32206555172E+03  0.57221771920E+03  0.80427599439E+03  0.00000000000E+00 0.  1.
        -13    1    3    3    0    0 -0.37164011489E+03 -0.18603376492E+03  0.50167240983E+03  0.65146000911E+03  0.00000000000E+00 0. -1.
         22    1    1    2    0    0  0.83607583420E+03  0.50809931664E+03 -0.78134505588E+03  0.12520734054E+04  0.00000000000E+00 0. -1.
<mgrwt>
<rscale>  0 0.26919601E+04</rscale>
<asrwt>0</asrwt>
<pdfrwt beam="1">  1        2 0.18578957E+00 0.26919601E+04</pdfrwt>
<pdfrwt beam="2">  1       -2 0.23079650E+00 0.26919601E+04</pdfrwt>
<totfact> 0.13906943E+00</totfact>
</mgrwt>
</event>
<event>
 6    1  0.1773638E-005  0.1594396E+04  0.7818608E-02  0.8823998E-01
         -2   -1    0    0    0  501 -0.00000000000E+00  0.00000000000E+00  0.11785189285E+04  0.11785189285E+04  0.00000000000E+00 0. -1.
          2   -1    0    0  501    0  0.00000000000E+00 -0.00000000000E+00 -0.53925688409E+03  0.53925688409E+03  0.00000000000E+00 0.  1.
         23    2    1    2    0    0 -0.35740679553E+02  0.25396873957E+03 -0.48996044296E+03  0.55979440390E+03  0.86781461856E+02 0.  0.
         11    1    3    3    0    0 -0.63670536652E+02  0.19011904560E+03 -0.37893724101E+03  0.42871041667E+03  0.00000000000E+00 0.  1.
        -11    1    3    3    0    0  0.27929857099E+02  0.63849693968E+02 -0.11102320196E+03  0.13108398724E+03  0.00000000000E+00 0. -1.
         22    1    1    2    0    0  0.35740679553E+02 -0.25396873957E+03  0.11292224874E+04  0.11579814087E+04  0.00000000000E+00 0. -1.
<mgrwt>
<rscale>  0 0.15943957E+04</rscale>
<asrwt>0</asrwt>
<pdfrwt beam="1">  1        2 0.82962598E-01 0.15943957E+04</pdfrwt>
<pdfrwt beam="2">  1       -2 0.18131060E+00 0.15943957E+04</pdfrwt>
<totfact> 0.95910992E+00</totfact>
</mgrwt>
</event>
<event>
 6    1  0.1773638E-005  0.1447426E+04  0.7818608E-02  0.8920187E-01
         -2   -1    0    0    0  501 -0.00000000000E+00  0.00000000000E+00  0.95283311216E+03  0.95283311216E+03  0.00000000000E+00 0. -1.
          2   -1    0    0  501    0  0.00000000000E+00 -0.00000000000E+00 -0.54968753924E+03  0.54968753924E+03  0.00000000000E+00 0.  1.
         23    2    1    2    0    0 -0.13549028558E+03 -0.68005967032E+03  0.40681683556E+03  0.80908554208E+03  0.90998373697E+02 0.  0.
         13    1    3    3    0    0 -0.51154117410E+02 -0.32100708205E+03  0.24126499083E+03  0.40480993844E+03  0.00000000000E+00 0. -1.
        -13    1    3    3    0    0 -0.84336168166E+02 -0.35905258827E+03  0.16555184473E+03  0.40427560364E+03  0.00000000000E+00 0.  1.
         22    1    1    2    0    0  0.13549028558E+03  0.68005967032E+03 -0.36712626458E+01  0.69343510933E+03  0.00000000000E+00 0.  1.
<mgrwt>
<rscale>  0 0.14474260E+04</rscale>
<asrwt>0</asrwt>
<pdfrwt beam="1">  1        2 0.84567314E-01 0.14474260E+04</pdfrwt>
<pdfrwt beam="2">  1       -2 0.14658971E+00 0.14474260E+04</pdfrwt>
<totfact> 0.17000802E+01</totfact>
</mgrwt>
</event>
<event>
 6    1  0.1773638E-005  0.2367104E+04  0.7818608E-02  0.8451923E-01
         -2   -1    0    0    0  501 -0.00000000000E+00  0.00000000000E+00  0.52918582922E+03  0.52918582922E+03  0.00000000000E+00 0. -1.
          2   -1    0    0  501    0  0.00000000000E+00 -0.00000000000E+00 -0.26470773526E+04  0.26470773526E+04  0.00000000000E+00 0.  1.
         23    2    1    2    0    0 -0.31955407481E+03 -0.10532676759E+04 -0.16385884049E+04  0.19757553379E+04  0.84555254400E+02 0.  0.
         13    1    3    3    0    0 -0.97739823069E+02 -0.41992941784E+03 -0.58791767158E+03  0.72906856847E+03  0.00000000000E+00 0. -1.
        -13    1    3    3    0    0 -0.22181425174E+03 -0.63333825806E+03 -0.10506707333E+04  0.12466867695E+04  0.00000000000E+00 0.  1.
         22    1    1    2    0    0  0.31955407481E+03  0.10532676759E+04 -0.47930311856E+03  0.12005078439E+04  0.00000000000E+00 0. -1.
<mgrwt>
<rscale>  0 0.23671044E+04</rscale>
<asrwt>0</asrwt>
<pdfrwt beam="1">  1        2 0.40724268E+00 0.23671044E+04</pdfrwt>
<pdfrwt beam="2">  1       -2 0.81413203E-01 0.23671044E+04</pdfrwt>
<totfact> 0.34204067E+00</totfact>
</mgrwt>
</event>
<event>
 6    1  0.1773638E-005  0.2086597E+04  0.7818608E-02  0.8567171E-01
         -2   -1    0    0    0  501 -0.00000000000E+00  0.00000000000E+00  0.35236587939E+03  0.35236587939E+03  0.00000000000E+00 0.  1.
          2   -1    0    0  501    0  0.00000000000E+00 -0.00000000000E+00 -0.30890372607E+04  0.30890372607E+04  0.00000000000E+00 0. -1.
         23    2    1    2    0    0  0.38136759174E+03 -0.77301987765E+03 -0.40725228825E+03  0.95761686056E+03  0.90413793623E+02 0.  0.
         13    1    3    3    0    0  0.14714061334E+03 -0.20550155076E+03 -0.11768954338E+03  0.27880472750E+03  0.00000000000E+00 0.  1.
        -13    1    3    3    0    0  0.23422697839E+03 -0.56751832689E+03 -0.28956274487E+03  0.67881213306E+03  0.00000000000E+00 0. -1.
         22    1    1    2    0    0 -0.38136759174E+03  0.77301987765E+03 -0.23294190931E+04  0.24837862796E+04  0.00000000000E+00 0. -1.
<mgrwt>
<rscale>  0 0.20865966E+04</rscale>
<asrwt>0</asrwt>
<pdfrwt beam="1">  1        2 0.47523649E+00 0.20865966E+04</pdfrwt>
<pdfrwt beam="2">  1       -2 0.54210136E-01 0.20865966E+04</pdfrwt>
<totfact> 0.45305632E+00</totfact>
</mgrwt>
</event>
<event>
 6    1  0.1773638E-005  0.8082899E+03  0.7818608E-02  0.9548095E-01
          2   -1    0    0  501    0  0.00000000000E+00  0.00000000000E+00  0.60144625657E+03  0.60144625657E+03  0.00000000000E+00 0.  1.
         -2   -1    0    0    0  501 -0.00000000000E+00 -0.00000000000E+00 -0.27156728510E+03  0.27156728510E+03  0.00000000000E+00 0. -1.
         23    2    1    2    0    0 -0.70054162480E+02  0.11933075706E+03  0.57129939321E+03  0.59474885600E+03  0.90530601278E+02 0.  0.
         13    1    3    3    0    0 -0.71159267344E+02  0.38697871414E+02  0.22356716679E+03  0.23778865543E+03  0.00000000000E+00 0. -1.
        -13    1    3    3    0    0  0.11051048643E+01  0.80632885650E+02  0.34773222641E+03  0.35696020057E+03  0.00000000000E+00 0.  1.
         22    1    1    2    0    0  0.70054162480E+02 -0.11933075706E+03 -0.24142042174E+03  0.27826468567E+03  0.00000000000E+00 0. -1.
<mgrwt>
<rscale>  0 0.80828987E+03</rscale>
<asrwt>0</asrwt>
<pdfrwt beam="1">  1        2 0.92530193E-01 0.80828987E+03</pdfrwt>
<pdfrwt beam="2">  1       -2 0.41779582E-01 0.80828987E+03</pdfrwt>
<totfact> 0.27004751E+02</totfact>
</mgrwt>
</event>
<event>
 6    1  0.1773638E-005  0.1747817E+04  0.7818608E-02  0.8734553E-01
         -2   -1    0    0    0  501 -0.00000000000E+00  0.00000000000E+00  0.27624442007E+04  0.27624442007E+04  0.00000000000E+00 0.  1.
          2   -1    0    0  501    0  0.00000000000E+00 -0.00000000000E+00 -0.27646389909E+03  0.27646389909E+03  0.00000000000E+00 0. -1.
         23    2    1    2    0    0 -0.24559028332E+03  0.15355390125E+03  0.26755792434E+04  0.26927272994E+04  0.90347291868E+02 0.  0.
         13    1    3    3    0    0 -0.36557786647E+02  0.66252923308E+02  0.57116294847E+03  0.57615365600E+03  0.00000000000E+00 0.  1.
        -13    1    3    3    0    0 -0.20903249667E+03  0.87300977945E+02  0.21044162950E+04  0.21165736434E+04  0.00000000000E+00 0. -1.
         22    1    1    2    0    0  0.24559028332E+03 -0.15355390125E+03 -0.18959894180E+03  0.34618080042E+03  0.00000000000E+00 0. -1.
<mgrwt>
<rscale>  0 0.17478170E+04</rscale>
<asrwt>0</asrwt>
<pdfrwt beam="1">  1        2 0.42532909E-01 0.17478170E+04</pdfrwt>
<pdfrwt beam="2">  1       -2 0.42499140E+00 0.17478170E+04</pdfrwt>
<totfact> 0.58245719E-01</totfact>
</mgrwt>
</event>
<event>
 6    1  0.1773638E-005  0.1956146E+04  0.7818608E-02  0.8627403E-01
         -2   -1    0    0    0  501 -0.00000000000E+00  0.00000000000E+00  0.26488506554E+03  0.26488506554E+03  0.00000000000E+00 0.  1.
          2   -1    0    0  501    0  0.00000000000E+00 -0.00000000000E+00 -0.36114805287E+04  0.36114805287E+04  0.00000000000E+00 0. -1.
         23    2    1    2    0    0 -0.29842713149E+03  0.53931249919E+03 -0.31762456188E+04  0.32368847157E+04  0.94708535893E+02 0.  0.
         11    1    3    3    0    0 -0.13482516513E+03  0.17954810181E+03 -0.98326438273E+03  0.10085753281E+04  0.00000000000E+00 0.  1.
        -11    1    3    3    0    0 -0.16360196636E+03  0.35976439738E+03 -0.21929812361E+04  0.22283093876E+04  0.00000000000E+00 0. -1.
         22    1    1    2    0    0  0.29842713149E+03 -0.53931249919E+03 -0.17034984433E+03  0.63948087857E+03  0.00000000000E+00 0.  1.
<mgrwt>
<rscale>  0 0.19561465E+04</rscale>
<asrwt>0</asrwt>
<pdfrwt beam="1">  1        2 0.55561238E+00 0.19561465E+04</pdfrwt>
<pdfrwt beam="2">  1       -2 0.40751549E-01 0.19561465E+04</pdfrwt>
<totfact> 0.36269671E+00</totfact>
</mgrwt>
</event>
<event>
 6    1  0.1773638E-005  0.3507879E+04  0.7818608E-02  0.8111925E-01
          2   -1    0    0  501    0  0.00000000000E+00  0.00000000000E+00  0.22200851144E+04  0.22200851144E+04  0.00000000000E+00 0. -1.
         -2   -1    0    0    0  501 -0.00000000000E+00 -0.00000000000E+00 -0.13856692028E+04  0.13856692028E+04  0.00000000000E+00 0.  1.
         23    2    1    2    0    0 -0.12089023443E+03  0.17488409483E+04  0.42191024708E+03  0.18048600854E+04  0.80327829181E+02 0.  0.
         13    1    3    3    0    0 -0.10514244372E+03  0.12845173493E+04  0.27757613743E+03  0.13183657559E+04  0.00000000000E+00 0. -1.
        -13    1    3    3    0    0 -0.15747790708E+02  0.46432359892E+03  0.14433410965E+03  0.48649432950E+03  0.00000000000E+00 0.  1.
         22    1    1    2    0    0  0.12089023443E+03 -0.17488409483E+04  0.41250566454E+03  0.18008942319E+04  0.00000000000E+00 0.  1.
<mgrwt>
<rscale>  0 0.35078789E+04</rscale>
<asrwt>0</asrwt>
<pdfrwt beam="1">  1        2 0.34155156E+00 0.35078789E+04</pdfrwt>
<pdfrwt beam="2">  1       -2 0.21317988E+00 0.35078789E+04</pdfrwt>
<totfact> 0.45133787E-01</totfact>
</mgrwt>
</event>
<event>
 6    1  0.2109038E-005  0.2386904E+04  0.7818608E-02  0.8444423E-01
          1   -1    0    0  501    0  0.00000000000E+00  0.00000000000E+00  0.12858934175E+04  0.12858934175E+04  0.00000000000E+00 0. -1.
         -1   -1    0    0    0  501 -0.00000000000E+00 -0.00000000000E+00 -0.11076558157E+04  0.11076558157E+04  0.00000000000E+00 0.  1.
         23    2    1    2    0    0  0.45277652891E+03  0.69765384091E+02 -0.10145353325E+04  0.11158242757E+04  0.76864032741E+02 0.  0.
         13    1    3    3    0    0  0.68320355288E+02  0.21596931290E+02 -0.22866744254E+03  0.23963075276E+03  0.00000000000E+00 0. -1.
        -13    1    3    3    0    0  0.38445617362E+03  0.48168452801E+02 -0.78586788993E+03  0.87619352298E+03  0.00000000000E+00 0.  1.
         22    1    1    2    0    0 -0.45277652891E+03 -0.69765384091E+02  0.11927729343E+04  0.12777249574E+04  0.00000000000E+00 0. -1.
<mgrwt>
<rscale>  0 0.23869037E+04</rscale>
<asrwt>0</asrwt>
<pdfrwt beam="1">  1        1 0.19782976E+00 0.23869037E+04</pdfrwt>
<pdfrwt beam="2">  1       -1 0.17040859E+00 0.23869037E+04</pdfrwt>
<totfact> 0.20299136E+00</totfact>
</mgrwt>
</event>
<event>
 6    1  0.1773638E-005  0.4983595E+04  0.7818608E-02  0.7831043E-01
         -2   -1    0    0    0  501 -0.00000000000E+00  0.00000000000E+00  0.19263616667E+04  0.19263616667E+04  0.00000000000E+00 0.  1.
          2   -1    0    0  501    0  0.00000000000E+00 -0.00000000000E+00 -0.32232024641E+04  0.32232024641E+04  0.00000000000E+00 0. -1.
         23    2    1    2    0    0  0.16202576138E+04 -0.12056512425E+04 -0.21553519694E+04  0.29550548267E+04  0.89315524168E+02 0.  0.
         13    1    3    3    0    0  0.12434875064E+04 -0.89515265024E+03 -0.15905643605E+04  0.22084959657E+04  0.00000000000E+00 0. -1.
        -13    1    3    3    0    0  0.37677010741E+03 -0.31049859226E+03 -0.56478760890E+03  0.74655886091E+03  0.00000000000E+00 0.  1.
         22    1    1    2    0    0 -0.16202576138E+04  0.12056512425E+04  0.85851117194E+03  0.21945093041E+04  0.00000000000E+00 0.  1.
<mgrwt>
<rscale>  0 0.49835946E+04</rscale>
<asrwt>0</asrwt>
<pdfrwt beam="1">  1        2 0.49587730E+00 0.49835946E+04</pdfrwt>
<pdfrwt beam="2">  1       -2 0.29636334E+00 0.49835946E+04</pdfrwt>
<totfact> 0.30506497E-02</totfact>
</mgrwt>
</event>
<event>
 6    1  0.1773638E-005  0.1620108E+04  0.7818608E-02  0.8808289E-01
          2   -1    0    0  501    0  0.00000000000E+00  0.00000000000E+00  0.13873097128E+04  0.13873097128E+04  0.00000000000E+00 0. -1.
         -2   -1    0    0    0  501 -0.00000000000E+00 -0.00000000000E+00 -0.47299269391E+03  0.47299269391E+03  0.00000000000E+00 0.  1.
         23    2    1    2    0    0  0.21164110571E+03 -0.73174260347E+03  0.15047832907E+03  0.78155835021E+03  0.89165755211E+02 0.  0.
         11    1    3    3    0    0  0.80175447041E+02 -0.29746463584E+03  0.16809236217E+02  0.30853826716E+03  0.00000000000E+00 0.  1.
        -11    1    3    3    0    0  0.13146565867E+03 -0.43427796764E+03  0.13366909285E+03  0.47302008305E+03  0.00000000000E+00 0. -1.
         22    1    1    2    0    0 -0.21164110571E+03  0.73174260347E+03  0.76383868980E+03  0.10787440565E+04  0.00000000000E+00 0.  1.
<mgrwt>
<rscale>  0 0.16201078E+04</rscale>
<asrwt>0</asrwt>
<pdfrwt beam="1">  1        2 0.21343226E+00 0.16201078E+04</pdfrwt>
<pdfrwt beam="2">  1       -2 0.72768107E-01 0.16201078E+04</pdfrwt>
<totfact> 0.24052606E+01</totfact>
</mgrwt>
</event>
<event>
 6    1  0.1773638E-005  0.4230693E+04  0.7818608E-02  0.7959559E-01
         -1   -1    0    0    0  501 -0.00000000000E+00  0.00000000000E+00  0.14142910780E+04  0.14142910780E+04  0.00000000000E+00 0.  1.
          1   -1    0    0  501    0  0.00000000000E+00 -0.00000000000E+00 -0.31639104119E+04  0.31639104119E+04  0.00000000000E+00 0. -1.
         23    2    1    2    0    0  0.84969035965E+03  0.16529849125E+04  0.21565180857E+03  0.18732757069E+04  0.91232358488E+02 0.  0.
         11    1    3    3    0    0  0.62473462286E+03  0.11527619503E+04  0.18239306469E+03  0.13237902754E+04  0.00000000000E+00 0.  1.
        -11    1    3    3    0    0  0.22495573679E+03  0.50022296223E+03  0.33258743882E+02  0.54948543157E+03  0.00000000000E+00 0. -1.
         22    1    1    2    0    0 -0.84969035965E+03 -0.16529849125E+04 -0.19652711424E+04  0.27049257830E+04  0.00000000000E+00 0. -1.
<mgrwt>
<rscale>  0 0.42306927E+04</rscale>
<asrwt>0</asrwt>
<pdfrwt beam="1">  1        1 0.48675545E+00 0.42306927E+04</pdfrwt>
<pdfrwt beam="2">  1       -1 0.21758324E+00 0.42306927E+04</pdfrwt>
<totfact> 0.39665927E-02</totfact>
</mgrwt>
</event>
<event>
 6    1  0.1773638E-005  0.2282900E+04  0.7818608E-02  0.8484694E-01
         -1   -1    0    0    0  501 -0.00000000000E+00  0.00000000000E+00  0.23217256433E+04  0.23217256433E+04  0.00000000000E+00 0.  1.
          1   -1    0    0  501    0  0.00000000000E+00 -0.00000000000E+00 -0.56118094561E+03  0.56118094561E+03  0.00000000000E+00 0. -1.
         23    2    1    2    0    0  0.86023775368E+03  0.25438668000E+03  0.17691625721E+04  0.19858024458E+04  0.93560520924E+02 0.  0.
         13    1    3    3    0    0  0.49567635098E+03  0.18289317293E+03  0.11044342089E+04  0.12243038346E+04  0.00000000000E+00 0. -1.
        -13    1    3    3    0    0  0.36456140270E+03  0.71493507068E+02  0.66472836324E+03  0.76149861115E+03  0.00000000000E+00 0.  1.
         22    1    1    2    0    0 -0.86023775368E+03 -0.25438668000E+03 -0.86178745012E+01  0.89710414310E+03  0.00000000000E+00 0. -1.
<mgrwt>
<rscale>  0 0.22829001E+04</rscale>
<asrwt>0</asrwt>
<pdfrwt beam="1">  1        1 0.86335532E-01 0.22829001E+04</pdfrwt>
<pdfrwt beam="2">  1       -1 0.35718855E+00 0.22829001E+04</pdfrwt>
<totfact> 0.47535520E-01</totfact>
</mgrwt>
</event>
<event>
 6    1  0.1773638E-005  0.2188556E+04  0.7818608E-02  0.8523207E-01
         -1   -1    0    0    0  501 -0.00000000000E+00  0.00000000000E+00  0.24811588298E+04  0.24811588298E+04  0.00000000000E+00 0.  1.
          1   -1    0    0  501    0  0.00000000000E+00 -0.00000000000E+00 -0.48261477143E+03  0.48261477143E+03  0.00000000000E+00 0. -1.
         23    2    1    2    0    0  0.81343168067E+03 -0.33664619495E+03  0.18771225059E+04  0.20750976462E+04  0.86252997247E+02 0.  0.
         13    1    3    3    0    0  0.62356155336E+03 -0.29430570458E+03  0.14923355024E+04  0.16439312974E+04  0.00000000000E+00 0.  1.
        -13    1    3    3    0    0  0.18987012731E+03 -0.42340490373E+02  0.38478700341E+03  0.43116634883E+03  0.00000000000E+00 0. -1.
         22    1    1    2    0    0 -0.81343168067E+03  0.33664619495E+03  0.12142155254E+03  0.88867595507E+03  0.00000000000E+00 0. -1.
<mgrwt>
<rscale>  0 0.21885556E+04</rscale>
<asrwt>0</asrwt>
<pdfrwt beam="1">  1        1 0.74248428E-01 0.21885556E+04</pdfrwt>
<pdfrwt beam="2">  1       -1 0.38171673E+00 0.21885556E+04</pdfrwt>
<totfact> 0.40501605E-01</totfact>
</mgrwt>
</event>
<event>
 6    1  0.1773638E-005  0.2815988E+04  0.7818608E-02  0.8298322E-01
          4   -1    0    0  501    0  0.00000000000E+00  0.00000000000E+00  0.16907384339E+04  0.16907384339E+04  0.00000000000E+00 0. -1.
         -4   -1    0    0    0  501 -0.00000000000E+00 -0.00000000000E+00 -0.11725329517E+04  0.11725329517E+04  0.00000000000E+00 0.  1.
         23    2    1    2    0    0  0.11187807405E+04  0.66165682051E+03  0.80583812702E+03  0.15320341296E+04  0.91068073143E+02 0.  0.
         13    1    3    3    0    0  0.86880401863E+03  0.50083860560E+03  0.66366489104E+03  0.12025434791E+04  0.00000000000E+00 0.  1.
        -13    1    3    3    0    0  0.24997672189E+03  0.16081821491E+03  0.14217323599E+03  0.32949065050E+03  0.00000000000E+00 0. -1.
         22    1    1    2    0    0 -0.11187807405E+04 -0.66165682051E+03 -0.28763264481E+03  0.13312372560E+04  0.00000000000E+00 0.  1.
<mgrwt>
<rscale>  0 0.28159876E+04</rscale>
<asrwt>0</asrwt>
<pdfrwt beam="1">  1        4 0.26011361E+00 0.28159876E+04</pdfrwt>
<pdfrwt beam="2">  1       -4 0.18038969E+00 0.28159876E+04</pdfrwt>
<totfact> 0.16869563E-02</totfact>
</mgrwt>
</event>
<event>
 6    1  0.1773638E-005  0.1333765E+04  0.7818608E-02  0.9003209E-01
         -2   -1    0    0    0  501 -0.00000000000E+00  0.00000000000E+00  0.13463131647E+03  0.13463131647E+03  0.00000000000E+00 0.  1.
          2   -1    0    0  501    0  0.00000000000E+00 -0.00000000000E+00 -0.33033362547E+04  0.33033362547E+04  0.00000000000E+00 0. -1.
         23    2    1    2    0    0 -0.22843515859E+03  0.11143878465E+03 -0.31724463943E+04  0.31837723255E+04  0.85958545109E+02 0.  0.
         11    1    3    3    0    0 -0.14224981570E+03  0.10552777039E+03 -0.23952055749E+04  0.24017453791E+04  0.00000000000E+00 0.  1.
        -11    1    3    3    0    0 -0.86185342888E+02  0.59110142600E+01 -0.77724081945E+03  0.78202694637E+03  0.00000000000E+00 0. -1.
         22    1    1    2    0    0  0.22843515859E+03 -0.11143878465E+03  0.37414561252E+01  0.25419524563E+03  0.00000000000E+00 0.  1.
<mgrwt>
<rscale>  0 0.13337654E+04</rscale>
<asrwt>0</asrwt>
<pdfrwt beam="1">  1        2 0.50820559E+00 0.13337654E+04</pdfrwt>
<pdfrwt beam="2">  1       -2 0.20712510E-01 0.13337654E+04</pdfrwt>
<totfact> 0.22121067E+01</totfact>
</mgrwt>
</event>
<event>
 6    1  0.1773638E-005  0.2126611E+04  0.7818608E-02  0.8549611E-01
          2   -1    0    0  501    0  0.00000000000E+00  0.00000000000E+00  0.24192934999E+04  0.24192934999E+04  0.00000000000E+00 0. -1.
         -2   -1    0    0    0  501 -0.00000000000E+00 -0.00000000000E+00 -0.46733435090E+03  0.46733435090E+03  0.00000000000E+00 0.  1.
         23    2    1    2    0    0 -0.23945541344E+03 -0.99224676197E+03  0.58357225814E+03  0.11794737234E+04  0.93322837733E+02 0.  0.
         11    1    3    3    0    0 -0.73462992398E+02 -0.42358979657E+03  0.28779035046E+03  0.51734747784E+03  0.00000000000E+00 0.  1.
        -11    1    3    3    0    0 -0.16599242104E+03 -0.56865696539E+03  0.29578190768E+03  0.66212624555E+03  0.00000000000E+00 0. -1.
         22    1    1    2    0    0  0.23945541344E+03  0.99224676197E+03  0.13683868908E+04  0.17071541274E+04  0.00000000000E+00 0. -1.
<mgrwt>
<rscale>  0 0.21266113E+04</rscale>
<asrwt>0</asrwt>
<pdfrwt beam="1">  1        2 0.37219899E+00 0.21266113E+04</pdfrwt>
<pdfrwt beam="2">  1       -2 0.71897594E-01 0.21266113E+04</pdfrwt>
<totfact> 0.62478641E+00</totfact>
</mgrwt>
</event>
<event>
 6    1  0.1773638E-005  0.1147233E+04  0.7818608E-02  0.9160340E-01
          2   -1    0    0  501    0  0.00000000000E+00  0.00000000000E+00  0.45830802664E+04  0.45830802664E+04  0.00000000000E+00 0. -1.
         -2   -1    0    0    0  501 -0.00000000000E+00 -0.00000000000E+00 -0.71793608887E+02  0.71793608887E+02  0.00000000000E+00 0.  1.
         23    2    1    2    0    0  0.40022622591E+03 -0.21286238385E+03  0.36718514091E+04  0.37008597441E+04  0.91534955504E+02 0.  0.
         11    1    3    3    0    0  0.27775355372E+03 -0.14275389720E+03  0.21637469231E+04  0.21861670703E+04  0.00000000000E+00 0. -1.
        -11    1    3    3    0    0  0.12247267219E+03 -0.70108486655E+02  0.15081044860E+04  0.15146926738E+04  0.00000000000E+00 0.  1.
         22    1    1    2    0    0 -0.40022622591E+03  0.21286238385E+03  0.83943524840E+03  0.95401413125E+03  0.00000000000E+00 0.  1.
<mgrwt>
<rscale>  0 0.11472330E+04</rscale>
<asrwt>0</asrwt>
<pdfrwt beam="1">  1        2 0.70508904E+00 0.11472330E+04</pdfrwt>
<pdfrwt beam="2">  1       -2 0.11045174E-01 0.11472330E+04</pdfrwt>
<totfact> 0.62908886E+00</totfact>
</mgrwt>
</event>
<event>
 6    1  0.1773638E-005  0.3162193E+04  0.7818608E-02  0.8198874E-01
          1   -1    0    0  501    0  0.00000000000E+00  0.00000000000E+00  0.31804912718E+04  0.31804912718E+04  0.00000000000E+00 0. -1.
         -1   -1    0    0    0  501 -0.00000000000E+00 -0.00000000000E+00 -0.78599997994E+03  0.78599997994E+03  0.00000000000E+00 0.  1.
         23    2    1    2    0    0 -0.11201329738E+04 -0.48830280125E+03  0.24541793049E+04  0.27430942746E+04  0.91829373268E+02 0.  0.
         11    1    3    3    0    0 -0.10052776179E+04 -0.43733863609E+03  0.21336324458E+04  0.23987987797E+04  0.00000000000E+00 0. -1.
        -11    1    3    3    0    0 -0.11485535594E+03 -0.50964165164E+02  0.32054685905E+03  0.34429549484E+03  0.00000000000E+00 0.  1.
         22    1    1    2    0    0  0.11201329738E+04  0.48830280125E+03 -0.59688013074E+02  0.12233969771E+04  0.00000000000E+00 0.  1.
<mgrwt>
<rscale>  0 0.31621930E+04</rscale>
<asrwt>0</asrwt>
<pdfrwt beam="1">  1        1 0.48930634E+00 0.31621930E+04</pdfrwt>
<pdfrwt beam="2">  1       -1 0.12092308E+00 0.31621930E+04</pdfrwt>
<totfact> 0.22396675E-01</totfact>
</mgrwt>
</event>
<event>
 6    1  0.1773638E-005  0.1754043E+04  0.7818608E-02  0.8731128E-01
         -2   -1    0    0    0  501 -0.00000000000E+00  0.00000000000E+00  0.16303420369E+03  0.16303420369E+03  0.00000000000E+00 0. -1.
          2   -1    0    0  501    0  0.00000000000E+00 -0.00000000000E+00 -0.47178227631E+04  0.47178227631E+04  0.00000000000E+00 0.  1.
         23    2    1    2    0    0  0.45522062631E+03 -0.68482011776E+03 -0.14541844907E+04  0.16730617734E+04  0.90987647811E+02 0.  0.
         13    1    3    3    0    0  0.22732867048E+03 -0.33872779656E+03 -0.62953869863E+03  0.75015586224E+03  0.00000000000E+00 0.  1.
        -13    1    3    3    0    0  0.22789195583E+03 -0.34609232120E+03 -0.82464579211E+03  0.92290591111E+03  0.00000000000E+00 0. -1.
         22    1    1    2    0    0 -0.45522062631E+03  0.68482011776E+03 -0.31006040687E+04  0.32077951934E+04  0.00000000000E+00 0.  1.
<mgrwt>
<rscale>  0 0.17540427E+04</rscale>
<asrwt>0</asrwt>
<pdfrwt beam="1">  1        2 0.72581880E+00 0.17540427E+04</pdfrwt>
<pdfrwt beam="2">  1       -2 0.25082188E-01 0.17540427E+04</pdfrwt>
<totfact> 0.10211469E+00</totfact>
</mgrwt>
</event>
<event>
 6    1  0.1773638E-005  0.4091893E+04  0.7818608E-02  0.7986261E-01
         -1   -1    0    0    0  501 -0.00000000000E+00  0.00000000000E+00  0.18266005760E+04  0.18266005760E+04  0.00000000000E+00 0.  1.
          1   -1    0    0  501    0  0.00000000000E+00 -0.00000000000E+00 -0.22916319362E+04  0.22916319362E+04  0.00000000000E+00 0. -1.
         23    2    1    2    0    0  0.15735883478E+04  0.56073364029E+03  0.95438762567E+03  0.19261210276E+04  0.92108464085E+02 0.  0.
         13    1    3    3    0    0  0.26277978105E+03  0.60197569968E+02  0.13973128995E+03  0.30364748336E+03  0.00000000000E+00 0. -1.
        -13    1    3    3    0    0  0.13108085667E+04  0.50053607032E+03  0.81465633572E+03  0.16224735442E+04  0.00000000000E+00 0.  1.
         22    1    1    2    0    0 -0.15735883478E+04 -0.56073364029E+03 -0.14194189859E+04  0.21921114847E+04  0.00000000000E+00 0. -1.
<mgrwt>
<rscale>  0 0.40918926E+04</rscale>
<asrwt>0</asrwt>
<pdfrwt beam="1">  1        1 0.35255876E+00 0.40918926E+04</pdfrwt>
<pdfrwt beam="2">  1       -1 0.28101547E+00 0.40918926E+04</pdfrwt>
<totfact> 0.64225201E-02</totfact>
</mgrwt>
</event>
<event>
 6    1  0.1773638E-005  0.2325719E+04  0.7818608E-02  0.8467849E-01
          2   -1    0    0  501    0  0.00000000000E+00  0.00000000000E+00  0.26814204732E+04  0.26814204732E+04  0.00000000000E+00 0.  1.
         -2   -1    0    0    0  501 -0.00000000000E+00 -0.00000000000E+00 -0.50430049052E+03  0.50430049052E+03  0.00000000000E+00 0. -1.
         23    2    1    2    0    0  0.10024714278E+04  0.38802937320E+03  0.16926023124E+04  0.20066225238E+04  0.78202347233E+02 0.  0.
         11    1    3    3    0    0  0.37344160239E+03  0.11475923622E+03  0.56764487517E+03  0.68909289432E+03  0.00000000000E+00 0. -1.
        -11    1    3    3    0    0  0.62902982544E+03  0.27327013698E+03  0.11249574372E+04  0.13175296295E+04  0.00000000000E+00 0.  1.
         22    1    1    2    0    0 -0.10024714278E+04 -0.38802937320E+03  0.48451767027E+03  0.11790984399E+04  0.00000000000E+00 0. -1.
<mgrwt>
<rscale>  0 0.23257185E+04</rscale>
<asrwt>0</asrwt>
<pdfrwt beam="1">  1        2 0.41252622E+00 0.23257185E+04</pdfrwt>
<pdfrwt beam="2">  1       -2 0.77584692E-01 0.23257185E+04</pdfrwt>
<totfact> 0.36496157E+00</totfact>
</mgrwt>
</event>
<event>
 6    1  0.1773638E-005  0.2387936E+04  0.7818608E-02  0.8444034E-01
          2   -1    0    0  501    0  0.00000000000E+00  0.00000000000E+00  0.43888723155E+03  0.43888723155E+03  0.00000000000E+00 0. -1.
         -2   -1    0    0    0  501 -0.00000000000E+00 -0.00000000000E+00 -0.32481235988E+04  0.32481235988E+04  0.00000000000E+00 0.  1.
         23    2    1    2    0    0 -0.47836851093E+03  0.10143636022E+04 -0.20316883974E+04  0.23223310894E+04  0.87715422348E+02 0.  0.
         13    1    3    3    0    0 -0.11658784055E+03  0.33402163567E+03 -0.67468279501E+03  0.76181365933E+03  0.00000000000E+00 0.  1.
        -13    1    3    3    0    0 -0.36178067038E+03  0.68034196654E+03 -0.13570056023E+04  0.15605174301E+04  0.00000000000E+00 0. -1.
         22    1    1    2    0    0  0.47836851093E+03 -0.10143636022E+04 -0.77754796988E+03  0.13646797409E+04  0.00000000000E+00 0. -1.
<mgrwt>
<rscale>  0 0.23879363E+04</rscale>
<asrwt>0</asrwt>
<pdfrwt beam="1">  1        2 0.67521113E-01 0.23879363E+04</pdfrwt>
<pdfrwt beam="2">  1       -2 0.49971132E+00 0.23879363E+04</pdfrwt>
<totfact> 0.10626187E-01</totfact>
</mgrwt>
</event>
<event>
 6    1  0.1773638E-005  0.5142434E+03  0.7818608E-02  0.1010127E+00
          1   -1    0    0  501    0  0.00000000000E+00  0.00000000000E+00  0.19787037538E+03  0.19787037538E+03  0.00000000000E+00 0. -1.
         -1   -1    0    0    0  501 -0.00000000000E+00 -0.00000000000E+00 -0.33411556630E+03  0.33411556630E+03  0.00000000000E+00 0.  1.
         23    2    1    2    0    0 -0.40233996446E+02  0.24381284927E+03 -0.37610416543E+02  0.26591771987E+03  0.90742549949E+02 0.  0.
         11    1    3    3    0    0  0.14747781846E+01  0.19634054361E+03 -0.90044860388E+01  0.19655244797E+03  0.00000000000E+00 0. -1.
        -11    1    3    3    0    0 -0.41708774631E+02  0.47472305663E+02 -0.28605930505E+02  0.69365271903E+02  0.00000000000E+00 0.  1.
         22    1    1    2    0    0  0.40233996446E+02 -0.24381284927E+03 -0.98634774378E+02  0.26606822181E+03  0.00000000000E+00 0. -1.
<mgrwt>
<rscale>  0 0.51424342E+03</rscale>
<asrwt>0</asrwt>
<pdfrwt beam="1">  1        1 0.30441596E-01 0.51424342E+03</pdfrwt>
<pdfrwt beam="2">  1       -1 0.51402394E-01 0.51424342E+03</pdfrwt>
<totfact> 0.57996912E+02</totfact>
</mgrwt>
</event>
<event>
 6    1  0.1773638E-005  0.3762414E+04  0.7818608E-02  0.8054269E-01
          1   -1    0    0  501    0  0.00000000000E+00  0.00000000000E+00  0.17208357044E+04  0.17208357044E+04  0.00000000000E+00 0. -1.
         -1   -1    0    0    0  501 -0.00000000000E+00 -0.00000000000E+00 -0.20565241305E+04  0.20565241305E+04  0.00000000000E+00 0.  1.
         23    2    1    2    0    0  0.16728433184E+04 -0.21792596173E+03 -0.10012137904E+04  0.19638492880E+04  0.91534034002E+02 0.  0.
         13    1    3    3    0    0  0.14504772243E+04 -0.21016439683E+03 -0.84224241658E+03  0.16903921261E+04  0.00000000000E+00 0.  1.
        -13    1    3    3    0    0  0.22236609415E+03 -0.77615648962E+01 -0.15897137381E+03  0.27345716192E+03  0.00000000000E+00 0. -1.
         22    1    1    2    0    0 -0.16728433184E+04  0.21792596173E+03  0.66552536430E+03  0.18135105468E+04  0.00000000000E+00 0.  1.
<mgrwt>
<rscale>  0 0.37624142E+04</rscale>
<asrwt>0</asrwt>
<pdfrwt beam="1">  1        1 0.26474396E+00 0.37624142E+04</pdfrwt>
<pdfrwt beam="2">  1       -1 0.31638833E+00 0.37624142E+04</pdfrwt>
<totfact> 0.95111571E-02</totfact>
</mgrwt>
</event>
<event>
 6    1  0.1773638E-005  0.1242605E+04  0.7818608E-02  0.9076361E-01
          2   -1    0    0  501    0  0.00000000000E+00  0.00000000000E+00  0.33374420929E+03  0.33374420929E+03  0.00000000000E+00 0.  1.
         -2   -1    0    0    0  501 -0.00000000000E+00 -0.00000000000E+00 -0.11566248793E+04  0.11566248793E+04  0.00000000000E+00 0. -1.
         23    2    1    2    0    0  0.28672770392E+03 -0.49241032776E+03 -0.70020397827E+03  0.90750522989E+03  0.92733079400E+02 0.  0.
         11    1    3    3    0    0  0.15359074021E+03 -0.18329587312E+03 -0.25792352936E+03  0.35172722325E+03  0.00000000000E+00 0.  1.
        -11    1    3    3    0    0  0.13313696371E+03 -0.30911445464E+03 -0.44228044891E+03  0.55577800664E+03  0.00000000000E+00 0. -1.
         22    1    1    2    0    0 -0.28672770392E+03  0.49241032776E+03 -0.12267669173E+03  0.58286385870E+03  0.00000000000E+00 0.  1.
<mgrwt>
<rscale>  0 0.12426051E+04</rscale>
<asrwt>0</asrwt>
<pdfrwt beam="1">  1        2 0.51345262E-01 0.12426051E+04</pdfrwt>
<pdfrwt beam="2">  1       -2 0.17794229E+00 0.12426051E+04</pdfrwt>
<totfact> 0.17950210E+01</totfact>
</mgrwt>
</event>
<event>
 6    1  0.1773638E-005  0.2498326E+04  0.7818608E-02  0.8403582E-01
          1   -1    0    0  501    0  0.00000000000E+00  0.00000000000E+00  0.82313082994E+03  0.82313082994E+03  0.00000000000E+00 0. -1.
         -1   -1    0    0    0  501 -0.00000000000E+00 -0.00000000000E+00 -0.18956984960E+04  0.18956984960E+04  0.00000000000E+00 0.  1.
         23    2    1    2    0    0 -0.96564388658E+03 -0.43835633663E+03 -0.12520114580E+04  0.16432715785E+04  0.90467652216E+02 0.  0.
         13    1    3    3    0    0 -0.35789328399E+03 -0.17923972448E+03 -0.40985014246E+03  0.57288011034E+03  0.00000000000E+00 0.  1.
        -13    1    3    3    0    0 -0.60775060259E+03 -0.25911661216E+03 -0.84216131558E+03  0.10703914682E+04  0.00000000000E+00 0. -1.
         22    1    1    2    0    0  0.96564388658E+03  0.43835633663E+03  0.17944379198E+03  0.10755577474E+04  0.00000000000E+00 0. -1.
<mgrwt>
<rscale>  0 0.24983257E+04</rscale>
<asrwt>0</asrwt>
<pdfrwt beam="1">  1        1 0.12663551E+00 0.24983257E+04</pdfrwt>
<pdfrwt beam="2">  1       -1 0.29164592E+00 0.24983257E+04</pdfrwt>
<totfact> 0.70182196E-01</totfact>
</mgrwt>
</event>
<event>
 6    1  0.1773638E-005  0.1626540E+04  0.7818608E-02  0.8804407E-01
          2   -1    0    0  501    0  0.00000000000E+00  0.00000000000E+00  0.80867662609E+03  0.80867662609E+03  0.00000000000E+00 0.  1.
         -2   -1    0    0    0  501 -0.00000000000E+00 -0.00000000000E+00 -0.81788953472E+03  0.81788953472E+03  0.00000000000E+00 0. -1.
         23    2    1    2    0    0 -0.43215519779E+03 -0.58913890152E+02 -0.68791732666E+03  0.81980185293E+03  0.92821701719E+02 0.  0.
         11    1    3    3    0    0 -0.87509135670E+02  0.42534931665E+01 -0.20701070325E+03  0.22478739353E+03  0.00000000000E+00 0.  1.
        -11    1    3    3    0    0 -0.34464606212E+03 -0.63167383319E+02 -0.48090662342E+03  0.59501445940E+03  0.00000000000E+00 0. -1.
         22    1    1    2    0    0  0.43215519779E+03  0.58913890152E+02  0.67870441803E+03  0.80676430789E+03  0.00000000000E+00 0.  1.
<mgrwt>
<rscale>  0 0.16265401E+04</rscale>
<asrwt>0</asrwt>
<pdfrwt beam="1">  1        2 0.12441179E+00 0.16265401E+04</pdfrwt>
<pdfrwt beam="2">  1       -2 0.12582916E+00 0.16265401E+04</pdfrwt>
<totfact> 0.15320892E+01</totfact>
</mgrwt>
</event>
<event>
 6    1  0.1773638E-005  0.8796562E+03  0.7818608E-02  0.9451376E-01
         -1   -1    0    0    0  501 -0.00000000000E+00  0.00000000000E+00  0.50722765066E+03  0.50722765066E+03  0.00000000000E+00 0.  1.
          1   -1    0    0  501    0  0.00000000000E+00 -0.00000000000E+00 -0.38138450235E+03  0.38138450235E+03  0.00000000000E+00 0. -1.
         23    2    1    2    0    0  0.26885591226E+03 -0.31961774681E+03 -0.59026230172E+02  0.43186748392E+03  0.92662949387E+02 0.  0.
         11    1    3    3    0    0  0.12921702520E+03 -0.15422927914E+03 -0.75225114614E+02  0.21480811906E+03  0.00000000000E+00 0.  1.
        -11    1    3    3    0    0  0.13963888706E+03 -0.16538846767E+03  0.16198884442E+02  0.21705936486E+03  0.00000000000E+00 0. -1.
         22    1    1    2    0    0 -0.26885591226E+03  0.31961774681E+03  0.18486937848E+03  0.45674466908E+03  0.00000000000E+00 0.  1.
<mgrwt>
<rscale>  0 0.87965622E+03</rscale>
<asrwt>0</asrwt>
<pdfrwt beam="1">  1        1 0.58674539E-01 0.87965622E+03</pdfrwt>
<pdfrwt beam="2">  1       -1 0.78035023E-01 0.87965622E+03</pdfrwt>
<totfact> 0.10612374E+02</totfact>
</mgrwt>
</event>
<event>
 6    1  0.1773638E-005  0.1689871E+04  0.7818608E-02  0.8767162E-01
          1   -1    0    0  501    0  0.00000000000E+00  0.00000000000E+00  0.19060292955E+04  0.19060292955E+04  0.00000000000E+00 0. -1.
         -1   -1    0    0    0  501 -0.00000000000E+00 -0.00000000000E+00 -0.37455669538E+03  0.37455669538E+03  0.00000000000E+00 0.  1.
         23    2    1    2    0    0  0.93546421966E+02  0.28439678138E+03  0.18307585082E+04  0.18572604458E+04  0.90039911738E+02 0.  0.
         11    1    3    3    0    0  0.39527216839E+02  0.56701235918E+02  0.64023769539E+03  0.64395786945E+03  0.00000000000E+00 0. -1.
        -11    1    3    3    0    0  0.54019205127E+02  0.22769554546E+03  0.11905208129E+04  0.12133025763E+04  0.00000000000E+00 0.  1.
         22    1    1    2    0    0 -0.93546421966E+02 -0.28439678138E+03 -0.29928590812E+03  0.42332554508E+03  0.00000000000E+00 0.  1.
<mgrwt>
<rscale>  0 0.16898710E+04</rscale>
<asrwt>0</asrwt>
<pdfrwt beam="1">  1        1 0.29323527E+00 0.16898710E+04</pdfrwt>
<pdfrwt beam="2">  1       -1 0.57624108E-01 0.16898710E+04</pdfrwt>
<totfact> 0.10028550E+01</totfact>
</mgrwt>
</event>
<event>
 6    1  0.1773638E-005  0.3524581E+04  0.7818608E-02  0.8107989E-01
         -1   -1    0    0    0  501 -0.00000000000E+00  0.00000000000E+00  0.10164427815E+04  0.10164427815E+04  0.00000000000E+00 0.  1.
          1   -1    0    0  501    0  0.00000000000E+00 -0.00000000000E+00 -0.30554276348E+04  0.30554276348E+04  0.00000000000E+00 0. -1.
         23    2    1    2    0    0 -0.98318540154E+03 -0.94734225124E+03  0.26488111160E+03  0.13938283594E+04  0.92111982747E+02 0.  0.
         11    1    3    3    0    0 -0.43666211580E+03 -0.41625573072E+03  0.70629797063E+02  0.60739707356E+03  0.00000000000E+00 0. -1.
        -11    1    3    3    0    0 -0.54652328573E+03 -0.53108652052E+03  0.19425131454E+03  0.78643128583E+03  0.00000000000E+00 0.  1.
         22    1    1    2    0    0  0.98318540154E+03  0.94734225124E+03 -0.23038659648E+04  0.26780420569E+04  0.00000000000E+00 0.  1.
<mgrwt>
<rscale>  0 0.35245807E+04</rscale>
<asrwt>0</asrwt>
<pdfrwt beam="1">  1        1 0.47006579E+00 0.35245807E+04</pdfrwt>
<pdfrwt beam="2">  1       -1 0.15637581E+00 0.35245807E+04</pdfrwt>
<totfact> 0.13791992E-01</totfact>
</mgrwt>
</event>
<event>
 6    1  0.1773638E-005  0.1071379E+04  0.7818608E-02  0.9233546E-01
         -2   -1    0    0    0  501 -0.00000000000E+00  0.00000000000E+00  0.31140330425E+03  0.31140330425E+03  0.00000000000E+00 0. -1.
          2   -1    0    0  501    0  0.00000000000E+00 -0.00000000000E+00 -0.92151607280E+03  0.92151607280E+03  0.00000000000E+00 0.  1.
         23    2    1    2    0    0  0.42592010214E+03  0.29674706927E+03 -0.17632620189E+03  0.55643024783E+03  0.95167928962E+02 0.  0.
         11    1    3    3    0    0  0.14042294134E+03  0.47051766736E+02 -0.40165058508E+02  0.15344609194E+03  0.00000000000E+00 0. -1.
        -11    1    3    3    0    0  0.28549716081E+03  0.24969530253E+03 -0.13616114338E+03  0.40298415589E+03  0.00000000000E+00 0.  1.
         22    1    1    2    0    0 -0.42592010214E+03 -0.29674706927E+03 -0.43378656666E+03  0.67648912921E+03  0.00000000000E+00 0. -1.
<mgrwt>
<rscale>  0 0.10713788E+04</rscale>
<asrwt>0</asrwt>
<pdfrwt beam="1">  1        2 0.14177170E+00 0.10713788E+04</pdfrwt>
<pdfrwt beam="2">  1       -2 0.47908201E-01 0.10713788E+04</pdfrwt>
<totfact> 0.11639776E+02</totfact>
</mgrwt>
</event>
<event>
 6    1  0.1773638E-005  0.6768452E+03  0.7818608E-02  0.9757670E-01
          2   -1    0    0  501    0  0.00000000000E+00  0.00000000000E+00  0.10915931488E+04  0.10915931488E+04  0.00000000000E+00 0. -1.
         -2   -1    0    0    0  501 -0.00000000000E+00 -0.00000000000E+00 -0.10491990900E+03  0.10491990900E+03  0.00000000000E+00 0.  1.
         23    2    1    2    0    0 -0.32920519955E+02  0.10729169848E+03  0.10550935330E+04  0.10650725552E+04  0.92530617914E+02 0.  0.
         13    1    3    3    0    0  0.29684039692E+02  0.49229659576E+02  0.33008484178E+03  0.33505328586E+03  0.00000000000E+00 0. -1.
        -13    1    3    3    0    0 -0.62604559647E+02  0.58062038904E+02  0.72500869122E+03  0.73001926933E+03  0.00000000000E+00 0.  1.
         22    1    1    2    0    0  0.32920519955E+02 -0.10729169848E+03 -0.68420293224E+02  0.13144050259E+03  0.00000000000E+00 0.  1.
<mgrwt>
<rscale>  0 0.67684519E+03</rscale>
<asrwt>0</asrwt>
<pdfrwt beam="1">  1        2 0.16793740E+00 0.67684519E+03</pdfrwt>
<pdfrwt beam="2">  1       -2 0.16141525E-01 0.67684519E+03</pdfrwt>
<totfact> 0.68768813E+02</totfact>
</mgrwt>
</event>
<event>
 6    1  0.1773638E-005  0.2421472E+04  0.7818608E-02  0.8431508E-01
         -1   -1    0    0    0  501 -0.00000000000E+00  0.00000000000E+00  0.64485051206E+03  0.64485051206E+03  0.00000000000E+00 0.  1.
          1   -1    0    0  501    0  0.00000000000E+00 -0.00000000000E+00 -0.22732120788E+04  0.22732120788E+04  0.00000000000E+00 0. -1.
         23    2    1    2    0    0 -0.30186619701E+03 -0.71179235812E+03 -0.19354515425E+04  0.20861516489E+04  0.91019048319E+02 0.  0.
         13    1    3    3    0    0 -0.10315141857E+03 -0.33740914301E+03 -0.80866113233E+03  0.88227998497E+03  0.00000000000E+00 0.  1.
        -13    1    3    3    0    0 -0.19871477844E+03 -0.37438321511E+03 -0.11267904101E+04  0.12038716640E+04  0.00000000000E+00 0. -1.
         22    1    1    2    0    0  0.30186619701E+03  0.71179235812E+03  0.30708997577E+03  0.83191094187E+03  0.00000000000E+00 0.  1.
<mgrwt>
<rscale>  0 0.24214723E+04</rscale>
<asrwt>0</asrwt>
<pdfrwt beam="1">  1        1 0.34972494E+00 0.24214723E+04</pdfrwt>
<pdfrwt beam="2">  1       -1 0.99207770E-01 0.24214723E+04</pdfrwt>
<totfact> 0.16851037E+00</totfact>
</mgrwt>
</event>
<event>
 6    1  0.1773638E-005  0.9274537E+03  0.7818608E-02  0.9391899E-01
         -2   -1    0    0    0  501 -0.00000000000E+00  0.00000000000E+00  0.17946540919E+03  0.17946540919E+03  0.00000000000E+00 0.  1.
          2   -1    0    0  501    0  0.00000000000E+00 -0.00000000000E+00 -0.11982397676E+04  0.11982397676E+04  0.00000000000E+00 0. -1.
         23    2    1    2    0    0  0.21966116399E+03 -0.19180388792E+02 -0.11129548096E+04  0.11379368059E+04  0.87251657129E+02 0.  0.
         11    1    3    3    0    0  0.14739675899E+03  0.92348919059E+01 -0.88196723456E+03  0.89424677278E+03  0.00000000000E+00 0.  1.
        -11    1    3    3    0    0  0.72264405005E+02 -0.28415280698E+02 -0.23098757508E+03  0.24369003313E+03  0.00000000000E+00 0. -1.
         22    1    1    2    0    0 -0.21966116399E+03  0.19180388792E+02  0.94180451229E+02  0.23976837088E+03  0.00000000000E+00 0.  1.
<mgrwt>
<rscale>  0 0.92745370E+03</rscale>
<asrwt>0</asrwt>
<pdfrwt beam="1">  1        2 0.18434458E+00 0.92745370E+03</pdfrwt>
<pdfrwt beam="2">  1       -2 0.27610064E-01 0.92745370E+03</pdfrwt>
<totfact> 0.22714470E+02</totfact>
</mgrwt>
</event>
<event>
 6    1  0.1773638E-005  0.2642128E+04  0.7818608E-02  0.8354031E-01
          2   -1    0    0  501    0  0.00000000000E+00  0.00000000000E+00  0.33932723120E+04  0.33932723120E+04  0.00000000000E+00 0.  1.
         -2   -1    0    0    0  501 -0.00000000000E+00 -0.00000000000E+00 -0.51431462687E+03  0.51431462687E+03  0.00000000000E+00 0. -1.
         23    2    1    2    0    0 -0.19129294586E+03  0.75962028369E+03 -0.12925657813E+03  0.79905528868E+03  0.90366613583E+02 0.  0.
         13    1    3    3    0    0 -0.99418369516E+01  0.18195328606E+03 -0.45553457232E+02  0.18783225467E+03  0.00000000000E+00 0. -1.
        -13    1    3    3    0    0 -0.18135110891E+03  0.57766699763E+03 -0.83703120899E+02  0.61122303401E+03  0.00000000000E+00 0.  1.
         22    1    1    2    0    0  0.19129294586E+03 -0.75962028369E+03  0.30082142633E+04  0.31085316502E+04  0.00000000000E+00 0.  1.
<mgrwt>
<rscale>  0 0.26421276E+04</rscale>
<asrwt>0</asrwt>
<pdfrwt beam="1">  1        2 0.52204188E+00 0.26421276E+04</pdfrwt>
<pdfrwt beam="2">  1       -2 0.79125329E-01 0.26421276E+04</pdfrwt>
<totfact> 0.12037811E+00</totfact>
</mgrwt>
</event>
<event>
 6    1  0.1773638E-005  0.1927778E+04  0.7818608E-02  0.8641152E-01
         -1   -1    0    0    0  501 -0.00000000000E+00  0.00000000000E+00  0.91013159874E+03  0.91013159874E+03  0.00000000000E+00 0.  1.
          1   -1    0    0  501    0  0.00000000000E+00 -0.00000000000E+00 -0.10208220236E+04  0.10208220236E+04  0.00000000000E+00 0. -1.
         23    2    1    2    0    0  0.12741783110E+02  0.74197421376E+03  0.55729516437E+03  0.93250841385E+03  0.91137010851E+02 0.  0.
         11    1    3    3    0    0  0.42747768818E+02  0.29216840516E+03  0.19122513628E+03  0.35179084903E+03  0.00000000000E+00 0.  1.
        -11    1    3    3    0    0 -0.30005985708E+02  0.44980580860E+03  0.36607002809E+03  0.58071756482E+03  0.00000000000E+00 0. -1.
         22    1    1    2    0    0 -0.12741783110E+02 -0.74197421376E+03 -0.66798558919E+03  0.99844520845E+03  0.00000000000E+00 0. -1.
<mgrwt>
<rscale>  0 0.19277784E+04</rscale>
<asrwt>0</asrwt>
<pdfrwt beam="1">  1        1 0.15704954E+00 0.19277784E+04</pdfrwt>
<pdfrwt beam="2">  1       -1 0.14002025E+00 0.19277784E+04</pdfrwt>
<totfact> 0.57012244E+00</totfact>
</mgrwt>
</event>
<event>
 6    1  0.1773638E-005  0.1185314E+04  0.7818608E-02  0.9125809E-01
         -1   -1    0    0    0  501 -0.00000000000E+00  0.00000000000E+00  0.16734257526E+04  0.16734257526E+04  0.00000000000E+00 0.  1.
          1   -1    0    0  501    0  0.00000000000E+00 -0.00000000000E+00 -0.20989423672E+03  0.20989423672E+03  0.00000000000E+00 0. -1.
         23    2    1    2    0    0 -0.26728117706E+03  0.85526398337E+02  0.15590721545E+04  0.15868709954E+04  0.93271542684E+02 0.  0.
         13    1    3    3    0    0 -0.42780541621E+02 -0.13081639251E+02  0.37628284737E+03  0.37893282419E+03  0.00000000000E+00 0. -1.
        -13    1    3    3    0    0 -0.22450063544E+03  0.98608037588E+02  0.11827893071E+04  0.12079381712E+04  0.00000000000E+00 0.  1.
         22    1    1    2    0    0  0.26728117706E+03 -0.85526398337E+02 -0.95540638542E+02  0.29644899399E+03  0.00000000000E+00 0. -1.
<mgrwt>
<rscale>  0 0.11853142E+04</rscale>
<asrwt>0</asrwt>
<pdfrwt beam="1">  1        1 0.32291422E-01 0.11853142E+04</pdfrwt>
<pdfrwt beam="2">  1       -1 0.25745011E+00 0.11853142E+04</pdfrwt>
<totfact> 0.86547620E+00</totfact>
</mgrwt>
</event>
<event>
 6    1  0.1773638E-005  0.1272538E+04  0.7818608E-02  0.9051631E-01
         -1   -1    0    0    0  501 -0.00000000000E+00  0.00000000000E+00  0.41819495259E+03  0.41819495259E+03  0.00000000000E+00 0.  1.
          1   -1    0    0  501    0  0.00000000000E+00 -0.00000000000E+00 -0.96806035283E+03  0.96806035283E+03  0.00000000000E+00 0. -1.
         23    2    1    2    0    0  0.20968225239E+03 -0.59142360500E+03 -0.36714508843E+03  0.73269946245E+03  0.91128803381E+02 0.  0.
         13    1    3    3    0    0  0.11885878105E+03 -0.26639125153E+03 -0.21570595391E+03  0.36279576524E+03  0.00000000000E+00 0.  1.
        -13    1    3    3    0    0  0.90823471334E+02 -0.32503235347E+03 -0.15143913452E+03  0.36990369722E+03  0.00000000000E+00 0. -1.
         22    1    1    2    0    0 -0.20968225239E+03  0.59142360500E+03 -0.18272031181E+03  0.65355584296E+03  0.00000000000E+00 0.  1.
<mgrwt>
<rscale>  0 0.12725375E+04</rscale>
<asrwt>0</asrwt>
<pdfrwt beam="1">  1        1 0.14893236E+00 0.12725375E+04</pdfrwt>
<pdfrwt beam="2">  1       -1 0.64337685E-01 0.12725375E+04</pdfrwt>
<totfact> 0.38676637E+01</totfact>
</mgrwt>
</event>
<event>
 6    1  0.1773638E-005  0.1227495E+04  0.7818608E-02  0.9089125E-01
          1   -1    0    0  501    0  0.00000000000E+00  0.00000000000E+00  0.46827146180E+03  0.46827146180E+03  0.00000000000E+00 0. -1.
         -1   -1    0    0    0  501 -0.00000000000E+00 -0.00000000000E+00 -0.80441790436E+03  0.80441790436E+03  0.00000000000E+00 0.  1.
         23    2    1    2    0    0 -0.21877884042E+03 -0.12550935197E+03 -0.74531192110E+03  0.79203026942E+03  0.90583163361E+02 0.  0.
         13    1    3    3    0    0 -0.91783585634E+02 -0.46616121233E+02 -0.18076365708E+03  0.20802112650E+03  0.00000000000E+00 0.  1.
        -13    1    3    3    0    0 -0.12699525479E+03 -0.78893230733E+02 -0.56454826402E+03  0.58400914291E+03  0.00000000000E+00 0. -1.
         22    1    1    2    0    0  0.21877884042E+03  0.12550935197E+03  0.40916547854E+03  0.48065909674E+03  0.00000000000E+00 0. -1.
<mgrwt>
<rscale>  0 0.12274949E+04</rscale>
<asrwt>0</asrwt>
<pdfrwt beam="1">  1        1 0.72041764E-01 0.12274949E+04</pdfrwt>
<pdfrwt beam="2">  1       -1 0.12375660E+00 0.12274949E+04</pdfrwt>
<totfact> 0.27496578E+01</totfact>
</mgrwt>
</event>
<event>
 6    1  0.1773638E-005  0.8570729E+03  0.7818608E-02  0.9480893E-01
          2   -1    0    0  501    0  0.00000000000E+00  0.00000000000E+00  0.91622115055E+03  0.91622115055E+03  0.00000000000E+00 0. -1.
         -2   -1    0    0    0  501 -0.00000000000E+00 -0.00000000000E+00 -0.20043575325E+03  0.20043575325E+03  0.00000000000E+00 0.  1.
         23    2    1    2    0    0  0.33154481506E+03  0.18982007932E+02  0.19285675769E+02  0.34503903004E+03  0.91639041575E+02 0.  0.
         11    1    3    3    0    0  0.18510603383E+03 -0.25627835930E+02  0.38372909093E+02  0.19077083081E+03  0.00000000000E+00 0. -1.
        -11    1    3    3    0    0  0.14643878123E+03  0.44609843862E+02 -0.19087233324E+02  0.15426819923E+03  0.00000000000E+00 0.  1.
         22    1    1    2    0    0 -0.33154481506E+03 -0.18982007932E+02  0.69649972153E+03  0.77161787377E+03  0.00000000000E+00 0. -1.
<mgrwt>
<rscale>  0 0.85707287E+03</rscale>
<asrwt>0</asrwt>
<pdfrwt beam="1">  1        2 0.14095710E+00 0.85707287E+03</pdfrwt>
<pdfrwt beam="2">  1       -2 0.30836270E-01 0.85707287E+03</pdfrwt>
<totfact> 0.27924152E+02</totfact>
</mgrwt>
</event>
<event>
 6    1  0.1773638E-005  0.2257369E+04  0.7818608E-02  0.8494922E-01
         -1   -1    0    0    0  501 -0.00000000000E+00  0.00000000000E+00  0.79407515387E+03  0.79407515387E+03  0.00000000000E+00 0.  1.
          1   -1    0    0  501    0  0.00000000000E+00 -0.00000000000E+00 -0.16042928644E+04  0.16042928644E+04  0.00000000000E+00 0. -1.
         23    2    1    2    0    0 -0.11081083847E+03 -0.11197069837E+04 -0.47068468525E+03  0.12230785022E+04  0.91401194720E+02 0.  0.
         13    1    3    3    0    0 -0.12622938030E+03 -0.93153928087E+03 -0.38852338282E+03  0.10171773234E+04  0.00000000000E+00 0.  1.
        -13    1    3    3    0    0  0.15418541823E+02 -0.18816770283E+03 -0.82161302430E+02  0.20590117882E+03  0.00000000000E+00 0. -1.
         22    1    1    2    0    0  0.11081083847E+03  0.11197069837E+04 -0.33953302529E+03  0.11752895161E+04  0.00000000000E+00 0.  1.
<mgrwt>
<rscale>  0 0.22573694E+04</rscale>
<asrwt>0</asrwt>
<pdfrwt beam="1">  1        1 0.24681429E+00 0.22573694E+04</pdfrwt>
<pdfrwt beam="2">  1       -1 0.12216541E+00 0.22573694E+04</pdfrwt>
<totfact> 0.29785705E+00</totfact>
</mgrwt>
</event>
<event>
 6    1  0.1773638E-005  0.3135598E+04  0.7818608E-02  0.8206036E-01
         -2   -1    0    0    0  501 -0.00000000000E+00  0.00000000000E+00  0.72253541535E+03  0.72253541535E+03  0.00000000000E+00 0.  1.
          2   -1    0    0  501    0  0.00000000000E+00 -0.00000000000E+00 -0.34018998739E+04  0.34018998739E+04  0.00000000000E+00 0. -1.
         23    2    1    2    0    0 -0.28753727950E+03 -0.15053366856E+04 -0.17673059182E+04  0.23410208660E+04  0.91061859960E+02 0.  0.
         11    1    3    3    0    0 -0.15283252035E+03 -0.84030884740E+03 -0.10525351574E+04  0.13554729787E+04  0.00000000000E+00 0.  1.
        -11    1    3    3    0    0 -0.13470475915E+03 -0.66502783820E+03 -0.71477076075E+03  0.98554788728E+03  0.00000000000E+00 0. -1.
         22    1    1    2    0    0  0.28753727950E+03  0.15053366856E+04 -0.91205854037E+03  0.17834144233E+04  0.00000000000E+00 0. -1.
<mgrwt>
<rscale>  0 0.31355976E+04</rscale>
<asrwt>0</asrwt>
<pdfrwt beam="1">  1        2 0.52336920E+00 0.31355976E+04</pdfrwt>
<pdfrwt beam="2">  1       -2 0.11115930E+00 0.31355976E+04</pdfrwt>
<totfact> 0.51486007E-01</totfact>
</mgrwt>
</event>
<event>
 6    1  0.1773638E-005  0.1110281E+04  0.7818608E-02  0.9195229E-01
         -1   -1    0    0    0  501 -0.00000000000E+00  0.00000000000E+00  0.71279585214E+03  0.71279585214E+03  0.00000000000E+00 0.  1.
          1   -1    0    0  501    0  0.00000000000E+00 -0.00000000000E+00 -0.43235542583E+03  0.43235542583E+03  0.00000000000E+00 0. -1.
         23    2    1    2    0    0  0.12836372003E+03  0.23932212445E+03  0.63599810767E+03  0.69774364656E+03  0.92737691790E+02 0.  0.
         11    1    3    3    0    0  0.76774779901E+02  0.21468912041E+03  0.53746014628E+03  0.58382291330E+03  0.00000000000E+00 0. -1.
        -11    1    3    3    0    0  0.51588940126E+02  0.24633004041E+02  0.98537961390E+02  0.11392073326E+03  0.00000000000E+00 0.  1.
         22    1    1    2    0    0 -0.12836372003E+03 -0.23932212445E+03 -0.35555768137E+03  0.44740763142E+03  0.00000000000E+00 0. -1.
<mgrwt>
<rscale>  0 0.11102813E+04</rscale>
<asrwt>0</asrwt>
<pdfrwt beam="1">  1        1 0.66516220E-01 0.11102813E+04</pdfrwt>
<pdfrwt beam="2">  1       -1 0.10966090E+00 0.11102813E+04</pdfrwt>
<totfact> 0.41400341E+01</totfact>
</mgrwt>
</event>
<event>
 6    1  0.1773638E-005  0.5410409E+04  0.7818608E-02  0.7768139E-01
          2   -1    0    0  501    0  0.00000000000E+00  0.00000000000E+00  0.29667573543E+04  0.29667573543E+04  0.00000000000E+00 0. -1.
         -2   -1    0    0    0  501 -0.00000000000E+00 -0.00000000000E+00 -0.24667106213E+04  0.24667106213E+04  0.00000000000E+00 0.  1.
         23    2    1    2    0    0  0.17504824236E+04 -0.20613896747E+04  0.24433534252E+03  0.27170540857E+04  0.95744653285E+02 0.  0.
         11    1    3    3    0    0  0.68887276928E+03 -0.85388432360E+03  0.13732343941E+03  0.11056771036E+04  0.00000000000E+00 0. -1.
        -11    1    3    3    0    0  0.10616096543E+04 -0.12075053511E+04  0.10701190311E+03  0.16113769821E+04  0.00000000000E+00 0.  1.
         22    1    1    2    0    0 -0.17504824236E+04  0.20613896747E+04  0.25571139055E+03  0.27164138899E+04  0.00000000000E+00 0. -1.
<mgrwt>
<rscale>  0 0.54104092E+04</rscale>
<asrwt>0</asrwt>
<pdfrwt beam="1">  1        2 0.45642421E+00 0.54104092E+04</pdfrwt>
<pdfrwt beam="2">  1       -2 0.37949394E+00 0.54104092E+04</pdfrwt>
<totfact> 0.12986906E-02</totfact>
</mgrwt>
</event>
<event>
 6    1  0.1773638E-005  0.1801433E+04  0.7818608E-02  0.8705538E-01
          1   -1    0    0  501    0  0.00000000000E+00  0.00000000000E+00  0.87642112725E+03  0.87642112725E+03  0.00000000000E+00 0. -1.
         -1   -1    0    0    0  501 -0.00000000000E+00 -0.00000000000E+00 -0.92568528926E+03  0.92568528926E+03  0.00000000000E+00 0.  1.
         23    2    1    2    0    0 -0.75461538250E+03 -0.45715132332E+03  0.14564938887E+03  0.89854512903E+03  0.87965314204E+02 0.  0.
         13    1    3    3    0    0 -0.29348114595E+03 -0.19782785285E+03  0.18407659080E+02  0.35440920460E+03  0.00000000000E+00 0. -1.
        -13    1    3    3    0    0 -0.46113423655E+03 -0.25932347047E+03  0.12724172979E+03  0.54413592443E+03  0.00000000000E+00 0.  1.
         22    1    1    2    0    0  0.75461538250E+03  0.45715132332E+03 -0.19491355088E+03  0.90356128748E+03  0.00000000000E+00 0.  1.
<mgrwt>
<rscale>  0 0.18014329E+04</rscale>
<asrwt>0</asrwt>
<pdfrwt beam="1">  1        1 0.13483402E+00 0.18014329E+04</pdfrwt>
<pdfrwt beam="2">  1       -1 0.14241312E+00 0.18014329E+04</pdfrwt>
<totfact> 0.71967894E+00</totfact>
</mgrwt>
</event>
<event>
 6    1  0.1773638E-005  0.7760397E+03  0.7818608E-02  0.9595361E-01
          2   -1    0    0  501    0  0.00000000000E+00  0.00000000000E+00  0.35907223231E+03  0.35907223231E+03  0.00000000000E+00 0.  1.
         -2   -1    0    0    0  501 -0.00000000000E+00 -0.00000000000E+00 -0.41930119939E+03  0.41930119939E+03  0.00000000000E+00 0. -1.
         23    2    1    2    0    0  0.24374783080E+03  0.21815815865E+03 -0.22985197037E+03  0.40989283458E+03  0.90411395030E+02 0.  0.
         11    1    3    3    0    0  0.48297878137E+02  0.25079069235E+02 -0.80544230371E+02  0.97206058414E+02  0.00000000000E+00 0.  1.
        -11    1    3    3    0    0  0.19544995266E+03  0.19307908942E+03 -0.14930774000E+03  0.31268677617E+03  0.00000000000E+00 0. -1.
         22    1    1    2    0    0 -0.24374783080E+03 -0.21815815865E+03  0.16962300329E+03  0.36848059712E+03  0.00000000000E+00 0.  1.
<mgrwt>
<rscale>  0 0.77603974E+03</rscale>
<asrwt>0</asrwt>
<pdfrwt beam="1">  1        2 0.55241882E-01 0.77603974E+03</pdfrwt>
<pdfrwt beam="2">  1       -2 0.64507877E-01 0.77603974E+03</pdfrwt>
<totfact> 0.20093716E+02</totfact>
</mgrwt>
</event>
<event>
 6    1  0.1773638E-005  0.2622023E+04  0.7818608E-02  0.8360759E-01
         -1   -1    0    0    0  501 -0.00000000000E+00  0.00000000000E+00  0.11028937417E+04  0.11028937417E+04  0.00000000000E+00 0.  1.
          1   -1    0    0  501    0  0.00000000000E+00 -0.00000000000E+00 -0.15584019101E+04  0.15584019101E+04  0.00000000000E+00 0. -1.
         23    2    1    2    0    0 -0.14057615478E+03 -0.38270029997E+03 -0.14909743860E+04  0.15484562821E+04  0.92146964287E+02 0.  0.
         11    1    3    3    0    0 -0.86906547838E+02 -0.33194013093E+03 -0.11839275054E+04  0.12326480993E+04  0.00000000000E+00 0. -1.
        -11    1    3    3    0    0 -0.53669606940E+02 -0.50760169048E+02 -0.30704688058E+03  0.31580818283E+03  0.00000000000E+00 0.  1.
         22    1    1    2    0    0  0.14057615478E+03  0.38270029997E+03  0.10354662176E+04  0.11128393696E+04  0.00000000000E+00 0.  1.
<mgrwt>
<rscale>  0 0.26220234E+04</rscale>
<asrwt>0</asrwt>
<pdfrwt beam="1">  1        1 0.23975414E+00 0.26220234E+04</pdfrwt>
<pdfrwt beam="2">  1       -1 0.16967596E+00 0.26220234E+04</pdfrwt>
<totfact> 0.12964560E+00</totfact>
</mgrwt>
</event>
<event>
 6    1  0.1773638E-005  0.1018461E+04  0.7818608E-02  0.9288526E-01
          1   -1    0    0  501    0  0.00000000000E+00  0.00000000000E+00  0.10867215820E+04  0.10867215820E+04  0.00000000000E+00 0. -1.
         -1   -1    0    0    0  501 -0.00000000000E+00 -0.00000000000E+00 -0.23862206472E+03  0.23862206472E+03  0.00000000000E+00 0.  1.
         23    2    1    2    0    0 -0.42903839630E+02  0.40542981118E+03  0.39531083986E+02  0.41980679901E+03  0.91983534646E+02 0.  0.
         13    1    3    3    0    0 -0.14836509994E+02  0.21250775180E+03 -0.24916665068E+02  0.21447728738E+03  0.00000000000E+00 0.  1.
        -13    1    3    3    0    0 -0.28067329636E+02  0.19292205938E+03  0.64447749053E+02  0.20532951163E+03  0.00000000000E+00 0. -1.
         22    1    1    2    0    0  0.42903839630E+02 -0.40542981118E+03  0.80856843327E+03  0.90553684769E+03  0.00000000000E+00 0. -1.
<mgrwt>
<rscale>  0 0.10184611E+04</rscale>
<asrwt>0</asrwt>
<pdfrwt beam="1">  1        1 0.16718793E+00 0.10184611E+04</pdfrwt>
<pdfrwt beam="2">  1       -1 0.36711088E-01 0.10184611E+04</pdfrwt>
<totfact> 0.92435608E+01</totfact>
</mgrwt>
</event>
<event>
 6    1  0.1773638E-005  0.2707127E+04  0.7818608E-02  0.8332696E-01
         -2   -1    0    0    0  501 -0.00000000000E+00  0.00000000000E+00  0.96796232664E+03  0.96796232664E+03  0.00000000000E+00 0.  1.
          2   -1    0    0  501    0  0.00000000000E+00 -0.00000000000E+00 -0.18927739951E+04  0.18927739951E+04  0.00000000000E+00 0. -1.
         23    2    1    2    0    0  0.41986455788E+03  0.87884158986E+03  0.52805875931E+03  0.11115990296E+04  0.90319223818E+02 0.  0.
         11    1    3    3    0    0  0.19958220123E+03  0.40137631533E+03  0.19265326082E+03  0.48790499123E+03  0.00000000000E+00 0.  1.
        -11    1    3    3    0    0  0.22028235665E+03  0.47746527453E+03  0.33540549849E+03  0.62369403833E+03  0.00000000000E+00 0. -1.
         22    1    1    2    0    0 -0.41986455788E+03 -0.87884158986E+03 -0.14528704278E+04  0.17491372922E+04  0.00000000000E+00 0. -1.
<mgrwt>
<rscale>  0 0.27071268E+04</rscale>
<asrwt>0</asrwt>
<pdfrwt beam="1">  1        2 0.29119600E+00 0.27071268E+04</pdfrwt>
<pdfrwt beam="2">  1       -2 0.14891728E+00 0.27071268E+04</pdfrwt>
<totfact> 0.20525876E+00</totfact>
</mgrwt>
</event>
<event>
 6    1  0.1773638E-005  0.6140345E+03  0.7818608E-02  0.9876709E-01
          1   -1    0    0  501    0  0.00000000000E+00  0.00000000000E+00  0.16681390212E+04  0.16681390212E+04  0.00000000000E+00 0. -1.
         -1   -1    0    0    0  501 -0.00000000000E+00 -0.00000000000E+00 -0.56505841518E+02  0.56505841518E+02  0.00000000000E+00 0.  1.
         23    2    1    2    0    0  0.29393153167E+02  0.36939098341E+02  0.16564311352E+04  0.16595655938E+04  0.90362602879E+02 0.  0.
         13    1    3    3    0    0  0.38233191080E+02 -0.18751761258E+02  0.91661122320E+03  0.91759988009E+03  0.00000000000E+00 0. -1.
        -13    1    3    3    0    0 -0.88400379134E+01  0.55690859599E+02  0.73981991196E+03  0.74196571366E+03  0.00000000000E+00 0.  1.
         22    1    1    2    0    0 -0.29393153167E+02 -0.36939098341E+02 -0.44797955454E+02  0.65079268990E+02  0.00000000000E+00 0.  1.
<mgrwt>
<rscale>  0 0.61403452E+03</rscale>
<asrwt>0</asrwt>
<pdfrwt beam="1">  1        1 0.25663674E+00 0.61403452E+03</pdfrwt>
<pdfrwt beam="2">  1       -1 0.86932076E-02 0.61403452E+03</pdfrwt>
<totfact> 0.40647210E+02</totfact>
</mgrwt>
</event>
<event>
 6    1  0.1773638E-005  0.2343700E+04  0.7818608E-02  0.8460887E-01
          2   -1    0    0  501    0  0.00000000000E+00  0.00000000000E+00  0.11905122739E+04  0.11905122739E+04  0.00000000000E+00 0. -1.
         -2   -1    0    0    0  501 -0.00000000000E+00 -0.00000000000E+00 -0.11534806268E+04  0.11534806268E+04  0.00000000000E+00 0.  1.
         23    2    1    2    0    0  0.83376589943E+03  0.76857444089E+03 -0.27008162135E+03  0.11691776787E+04  0.90333359890E+02 0.  0.
         13    1    3    3    0    0  0.51931978668E+03  0.48525075566E+03 -0.21370514431E+03  0.74218004919E+03  0.00000000000E+00 0. -1.
        -13    1    3    3    0    0  0.31444611275E+03  0.28332368523E+03 -0.56376477039E+02  0.42699762950E+03  0.00000000000E+00 0.  1.
         22    1    1    2    0    0 -0.83376589943E+03 -0.76857444089E+03  0.30711326843E+03  0.11748152220E+04  0.00000000000E+00 0. -1.
<mgrwt>
<rscale>  0 0.23437004E+04</rscale>
<asrwt>0</asrwt>
<pdfrwt beam="1">  1        2 0.18315574E+00 0.23437004E+04</pdfrwt>
<pdfrwt beam="2">  1       -2 0.17745856E+00 0.23437004E+04</pdfrwt>
<totfact> 0.32739144E+00</totfact>
</mgrwt>
</event>
<event>
 6    1  0.1773638E-005  0.4320669E+04  0.7818608E-02  0.7942807E-01
         -2   -1    0    0    0  501 -0.00000000000E+00  0.00000000000E+00  0.10873982011E+04  0.10873982011E+04  0.00000000000E+00 0.  1.
          2   -1    0    0  501    0  0.00000000000E+00 -0.00000000000E+00 -0.42919378617E+04  0.42919378617E+04  0.00000000000E+00 0. -1.
         23    2    1    2    0    0  0.17488218392E+04  0.10744341970E+04 -0.24384367229E+04  0.31885142125E+04  0.88671091777E+02 0.  0.
         11    1    3    3    0    0  0.10278075541E+04  0.59386735509E+03 -0.14557173924E+04  0.18783449977E+04  0.00000000000E+00 0. -1.
        -11    1    3    3    0    0  0.72101428509E+03  0.48056684192E+03 -0.98271933051E+03  0.13101692148E+04  0.00000000000E+00 0.  1.
         22    1    1    2    0    0 -0.17488218392E+04 -0.10744341970E+04 -0.76610293760E+03  0.21908218503E+04  0.00000000000E+00 0.  1.
<mgrwt>
<rscale>  0 0.43206692E+04</rscale>
<asrwt>0</asrwt>
<pdfrwt beam="1">  1        2 0.66029813E+00 0.43206692E+04</pdfrwt>
<pdfrwt beam="2">  1       -2 0.16729203E+00 0.43206692E+04</pdfrwt>
<totfact> 0.32840898E-02</totfact>
</mgrwt>
</event>
<event>
 6    1  0.1773638E-005  0.3260065E+04  0.7818608E-02  0.8173132E-01
          2   -1    0    0  501    0  0.00000000000E+00  0.00000000000E+00  0.28098831865E+04  0.28098831865E+04  0.00000000000E+00 0. -1.
         -2   -1    0    0    0  501 -0.00000000000E+00 -0.00000000000E+00 -0.94559287954E+03  0.94559287954E+03  0.00000000000E+00 0.  1.
         23    2    1    2    0    0 -0.95736124467E+03 -0.12706250825E+04  0.13349699621E+04  0.20788101242E+04  0.90983953464E+02 0.  0.
         11    1    3    3    0    0 -0.85350952884E+03 -0.11515445053E+04  0.12333520154E+04  0.18909496179E+04  0.00000000000E+00 0.  1.
        -11    1    3    3    0    0 -0.10385171582E+03 -0.11908057720E+03  0.10161794667E+03  0.18786050631E+03  0.00000000000E+00 0. -1.
         22    1    1    2    0    0  0.95736124467E+03  0.12706250825E+04  0.52932034493E+03  0.16766659419E+04  0.00000000000E+00 0. -1.
<mgrwt>
<rscale>  0 0.32600647E+04</rscale>
<asrwt>0</asrwt>
<pdfrwt beam="1">  1        2 0.43228972E+00 0.32600647E+04</pdfrwt>
<pdfrwt beam="2">  1       -2 0.14547583E+00 0.32600647E+04</pdfrwt>
<totfact> 0.62054142E-01</totfact>
</mgrwt>
</event>
<event>
 6    1  0.1773638E-005  0.7188267E+04  0.7818608E-02  0.7558325E-01
          1   -1    0    0  501    0  0.00000000000E+00  0.00000000000E+00  0.23600697692E+04  0.23600697692E+04  0.00000000000E+00 0. -1.
         -1   -1    0    0    0  501 -0.00000000000E+00 -0.00000000000E+00 -0.54734809535E+04  0.54734809535E+04  0.00000000000E+00 0.  1.
         23    2    1    2    0    0 -0.30552529591E+04 -0.12752464678E+04 -0.34140294361E+02  0.33121866132E+04  0.92684428060E+02 0.  0.
         13    1    3    3    0    0 -0.20558721308E+04 -0.87425297526E+03  0.17755497104E+02  0.22341091604E+04  0.00000000000E+00 0. -1.
        -13    1    3    3    0    0 -0.99938082825E+03 -0.40099349257E+03 -0.51895791466E+02  0.10780774528E+04  0.00000000000E+00 0.  1.
         22    1    1    2    0    0  0.30552529591E+04  0.12752464678E+04 -0.30792708899E+04  0.45213641095E+04  0.00000000000E+00 0.  1.
<mgrwt>
<rscale>  0 0.71882674E+04</rscale>
<asrwt>0</asrwt>
<pdfrwt beam="1">  1        1 0.36308766E+00 0.71882674E+04</pdfrwt>
<pdfrwt beam="2">  1       -1 0.84207398E+00 0.71882674E+04</pdfrwt>
<totfact> 0.35797662E-05</totfact>
</mgrwt>
</event>
<event>
 6    1  0.1773638E-005  0.1076166E+04  0.7818608E-02  0.9228739E-01
          1   -1    0    0  501    0  0.00000000000E+00  0.00000000000E+00  0.75620901723E+03  0.75620901723E+03  0.00000000000E+00 0. -1.
         -1   -1    0    0    0  501 -0.00000000000E+00 -0.00000000000E+00 -0.38287455656E+03  0.38287455656E+03  0.00000000000E+00 0.  1.
         23    2    1    2    0    0 -0.34821563535E+03 -0.12463701627E+03 -0.22045089910E+03  0.43953402729E+03  0.88334861174E+02 0.  0.
         11    1    3    3    0    0 -0.10288636973E+03 -0.18993690849E+02 -0.10600215979E+03  0.14893899170E+03  0.00000000000E+00 0. -1.
        -11    1    3    3    0    0 -0.24532926562E+03 -0.10564332542E+03 -0.11444873931E+03  0.29059503559E+03  0.00000000000E+00 0.  1.
         22    1    1    2    0    0  0.34821563535E+03  0.12463701627E+03  0.59378535977E+03  0.69954954650E+03  0.00000000000E+00 0. -1.
<mgrwt>
<rscale>  0 0.10761658E+04</rscale>
<asrwt>0</asrwt>
<pdfrwt beam="1">  1        1 0.11633985E+00 0.10761658E+04</pdfrwt>
<pdfrwt beam="2">  1       -1 0.58903778E-01 0.10761658E+04</pdfrwt>
<totfact> 0.70492385E+01</totfact>
</mgrwt>
</event>
<event>
 6    1  0.1773638E-005  0.7199523E+03  0.7818608E-02  0.9683707E-01
          2   -1    0    0  501    0  0.00000000000E+00  0.00000000000E+00  0.16728793858E+04  0.16728793858E+04  0.00000000000E+00 0. -1.
         -2   -1    0    0    0  501 -0.00000000000E+00 -0.00000000000E+00 -0.77460959738E+02  0.77460959738E+02  0.00000000000E+00 0.  1.
         23    2    1    2    0    0  0.15069302888E+03 -0.32080540339E+03  0.81262268148E+03  0.89104198436E+03  0.89306772547E+02 0.  0.
         13    1    3    3    0    0  0.13342125422E+03 -0.19323093284E+03  0.47953568488E+03  0.53394184848E+03  0.00000000000E+00 0.  1.
        -13    1    3    3    0    0  0.17271774664E+02 -0.12757447056E+03  0.33308699660E+03  0.35710013588E+03  0.00000000000E+00 0. -1.
         22    1    1    2    0    0 -0.15069302888E+03  0.32080540339E+03  0.78279574456E+03  0.85929836117E+03  0.00000000000E+00 0.  1.
<mgrwt>
<rscale>  0 0.71995234E+03</rscale>
<asrwt>0</asrwt>
<pdfrwt beam="1">  1        2 0.25736603E+00 0.71995234E+03</pdfrwt>
<pdfrwt beam="2">  1       -2 0.11917072E-01 0.71995234E+03</pdfrwt>
<totfact> 0.53195747E+02</totfact>
</mgrwt>
</event>
<event>
 6    1  0.1773638E-005  0.1715154E+04  0.7818608E-02  0.8752768E-01
          2   -1    0    0  501    0  0.00000000000E+00  0.00000000000E+00  0.40111622282E+04  0.40111622282E+04  0.00000000000E+00 0. -1.
         -2   -1    0    0    0  501 -0.00000000000E+00 -0.00000000000E+00 -0.18334800259E+03  0.18334800259E+03  0.00000000000E+00 0.  1.
         23    2    1    2    0    0  0.71501473118E+03  0.30882383472E+03  0.10557367974E+04  0.13150951002E+04  0.90976427159E+02 0.  0.
         11    1    3    3    0    0  0.40779032023E+03  0.21854958060E+03  0.58672263613E+03  0.74719496532E+03  0.00000000000E+00 0. -1.
        -11    1    3    3    0    0  0.30722441096E+03  0.90274254121E+02  0.46901416130E+03  0.56790013483E+03  0.00000000000E+00 0.  1.
         22    1    1    2    0    0 -0.71501473118E+03 -0.30882383472E+03  0.27720774282E+04  0.28794151306E+04  0.00000000000E+00 0.  1.
<mgrwt>
<rscale>  0 0.17151543E+04</rscale>
<asrwt>0</asrwt>
<pdfrwt beam="1">  1        2 0.61710182E+00 0.17151543E+04</pdfrwt>
<pdfrwt beam="2">  1       -2 0.28207388E-01 0.17151543E+04</pdfrwt>
<totfact> 0.37247474E+00</totfact>
</mgrwt>
</event>
<event>
 6    1  0.1773638E-005  0.1572012E+04  0.7818608E-02  0.8837929E-01
          1   -1    0    0  501    0  0.00000000000E+00  0.00000000000E+00  0.74584274362E+03  0.74584274362E+03  0.00000000000E+00 0. -1.
         -1   -1    0    0    0  501 -0.00000000000E+00 -0.00000000000E+00 -0.82833190301E+03  0.82833190301E+03  0.00000000000E+00 0.  1.
         23    2    1    2    0    0 -0.21537239562E+03 -0.95354781677E+02 -0.78955596015E+03  0.82890874513E+03  0.90627205379E+02 0.  0.
         11    1    3    3    0    0 -0.10238643728E+03 -0.58948599699E+02 -0.25084962029E+03  0.27727865397E+03  0.00000000000E+00 0. -1.
        -11    1    3    3    0    0 -0.11298595834E+03 -0.36406181978E+02 -0.53870633986E+03  0.55163009116E+03  0.00000000000E+00 0.  1.
         22    1    1    2    0    0  0.21537239562E+03  0.95354781677E+02  0.70706680077E+03  0.74526590150E+03  0.00000000000E+00 0. -1.
<mgrwt>
<rscale>  0 0.15720119E+04</rscale>
<asrwt>0</asrwt>
<pdfrwt beam="1">  1        1 0.11474504E+00 0.15720119E+04</pdfrwt>
<pdfrwt beam="2">  1       -1 0.12743568E+00 0.15720119E+04</pdfrwt>
<totfact> 0.12673555E+01</totfact>
</mgrwt>
</event>
<event>
 6    1  0.1773638E-005  0.2330673E+04  0.7818608E-02  0.8465924E-01
          2   -1    0    0  501    0  0.00000000000E+00  0.00000000000E+00  0.31340918494E+04  0.31340918494E+04  0.00000000000E+00 0. -1.
         -2   -1    0    0    0  501 -0.00000000000E+00 -0.00000000000E+00 -0.43330243873E+03  0.43330243873E+03  0.00000000000E+00 0.  1.
         23    2    1    2    0    0 -0.83882334999E+03 -0.44498943958E+03  0.32351314621E+03  0.10074953348E+04  0.93519409660E+02 0.  0.
         13    1    3    3    0    0 -0.15529641996E+03 -0.42895029258E+02  0.55812566341E+02  0.17050514406E+03  0.00000000000E+00 0. -1.
        -13    1    3    3    0    0 -0.68352693003E+03 -0.40209441033E+03  0.26770057986E+03  0.83699019071E+03  0.00000000000E+00 0.  1.
         22    1    1    2    0    0  0.83882334999E+03  0.44498943958E+03  0.23772762644E+04  0.25598989533E+04  0.00000000000E+00 0.  1.
<mgrwt>
<rscale>  0 0.23306734E+04</rscale>
<asrwt>0</asrwt>
<pdfrwt beam="1">  1        2 0.48216796E+00 0.23306734E+04</pdfrwt>
<pdfrwt beam="2">  1       -2 0.66661916E-01 0.23306734E+04</pdfrwt>
<totfact> 0.26780946E+00</totfact>
</mgrwt>
</event>
<event>
 6    1  0.1773638E-005  0.2642404E+04  0.7818608E-02  0.8353939E-01
         -2   -1    0    0    0  501 -0.00000000000E+00  0.00000000000E+00  0.17711058878E+04  0.17711058878E+04  0.00000000000E+00 0.  1.
          2   -1    0    0  501    0  0.00000000000E+00 -0.00000000000E+00 -0.98558455541E+03  0.98558455541E+03  0.00000000000E+00 0. -1.
         23    2    1    2    0    0 -0.56998308218E+03 -0.11210988693E+04  0.81061418034E+03  0.14987663439E+04  0.86381800378E+02 0.  0.
         13    1    3    3    0    0 -0.55949215661E+02 -0.16333375518E+03  0.91053544965E+02  0.19518959595E+03  0.00000000000E+00 0. -1.
        -13    1    3    3    0    0 -0.51403386652E+03 -0.95776511411E+03  0.71956063538E+03  0.13035767479E+04  0.00000000000E+00 0.  1.
         22    1    1    2    0    0  0.56998308218E+03  0.11210988693E+04 -0.25092847948E+02  0.12579240993E+04  0.00000000000E+00 0. -1.
<mgrwt>
<rscale>  0 0.26424039E+04</rscale>
<asrwt>0</asrwt>
<pdfrwt beam="1">  1        2 0.15162839E+00 0.26424039E+04</pdfrwt>
<pdfrwt beam="2">  1       -2 0.27247783E+00 0.26424039E+04</pdfrwt>
<totfact> 0.10617318E+00</totfact>
</mgrwt>
</event>
<event>
 6    1  0.1773638E-005  0.9397705E+03  0.7818608E-02  0.9377188E-01
          1   -1    0    0  501    0  0.00000000000E+00  0.00000000000E+00  0.11705973666E+04  0.11705973666E+04  0.00000000000E+00 0. -1.
         -1   -1    0    0    0  501 -0.00000000000E+00 -0.00000000000E+00 -0.18861493861E+03  0.18861493861E+03  0.00000000000E+00 0.  1.
         23    2    1    2    0    0 -0.25681953267E+03 -0.35225187097E+03  0.73150189055E+03  0.85644182813E+03  0.91432686339E+02 0.  0.
         13    1    3    3    0    0 -0.17540622311E+03 -0.29832534547E+03  0.59992783841E+03  0.69258845367E+03  0.00000000000E+00 0. -1.
        -13    1    3    3    0    0 -0.81413309560E+02 -0.53926525500E+02  0.13157405213E+03  0.16385337446E+03  0.00000000000E+00 0.  1.
         22    1    1    2    0    0  0.25681953267E+03  0.35225187097E+03  0.25048053741E+03  0.50277047704E+03  0.00000000000E+00 0.  1.
<mgrwt>
<rscale>  0 0.93977050E+03</rscale>
<asrwt>0</asrwt>
<pdfrwt beam="1">  1        1 0.18009190E+00 0.93977050E+03</pdfrwt>
<pdfrwt beam="2">  1       -1 0.29017684E-01 0.93977050E+03</pdfrwt>
<totfact> 0.12205138E+02</totfact>
</mgrwt>
</event>
<event>
 6    1  0.1773638E-005  0.1460822E+04  0.7818608E-02  0.8910932E-01
         -1   -1    0    0    0  501 -0.00000000000E+00  0.00000000000E+00  0.13713619978E+04  0.13713619978E+04  0.00000000000E+00 0.  1.
          1   -1    0    0  501    0  0.00000000000E+00 -0.00000000000E+00 -0.38902963084E+03  0.38902963084E+03  0.00000000000E+00 0. -1.
         23    2    1    2    0    0  0.59322867459E+03 -0.10752955415E+03  0.98388689797E+03  0.11574942228E+04  0.90975724580E+02 0.  0.
         13    1    3    3    0    0  0.55053144489E+03 -0.83959328780E+02  0.86236994958E+03  0.10265553909E+04  0.00000000000E+00 0. -1.
        -13    1    3    3    0    0  0.42697229699E+02 -0.23570225372E+02  0.12151694839E+03  0.13093883188E+03  0.00000000000E+00 0.  1.
         22    1    1    2    0    0 -0.59322867459E+03  0.10752955415E+03 -0.15545310255E+01  0.60289740581E+03  0.00000000000E+00 0. -1.
<mgrwt>
<rscale>  0 0.14608223E+04</rscale>
<asrwt>0</asrwt>
<pdfrwt beam="1">  1        1 0.59850713E-01 0.14608223E+04</pdfrwt>
<pdfrwt beam="2">  1       -1 0.21097877E+00 0.14608223E+04</pdfrwt>
<totfact> 0.76491019E+00</totfact>
</mgrwt>
</event>
<event>
 6    1  0.1773638E-005  0.2270257E+04  0.7818608E-02  0.8489741E-01
          2   -1    0    0  501    0  0.00000000000E+00  0.00000000000E+00  0.30181219669E+04  0.30181219669E+04  0.00000000000E+00 0.  1.
         -2   -1    0    0    0  501 -0.00000000000E+00 -0.00000000000E+00 -0.42692679643E+03  0.42692679643E+03  0.00000000000E+00 0. -1.
         23    2    1    2    0    0  0.16289630740E+03  0.77949489960E+03  0.74302094086E+02  0.80518167133E+03  0.93001167737E+02 0.  0.
         13    1    3    3    0    0  0.12232688381E+03  0.66329591588E+03  0.32738914448E+02  0.67527562894E+03  0.00000000000E+00 0.  1.
        -13    1    3    3    0    0  0.40569423589E+02  0.11619898372E+03  0.41563179639E+02  0.12990604239E+03  0.00000000000E+00 0. -1.
         22    1    1    2    0    0 -0.16289630740E+03 -0.77949489960E+03  0.25168930764E+04  0.26398670920E+04  0.00000000000E+00 0.  1.
<mgrwt>
<rscale>  0 0.22702574E+04</rscale>
<asrwt>0</asrwt>
<pdfrwt beam="1">  1        2 0.46432644E+00 0.22702574E+04</pdfrwt>
<pdfrwt beam="2">  1       -2 0.65681047E-01 0.22702574E+04</pdfrwt>
<totfact> 0.32936466E+00</totfact>
</mgrwt>
</event>
<event>
 6    1  0.1773638E-005  0.1550632E+04  0.7818608E-02  0.8851464E-01
         -1   -1    0    0    0  501 -0.00000000000E+00  0.00000000000E+00  0.18193029723E+03  0.18193029723E+03  0.00000000000E+00 0. -1.
          1   -1    0    0  501    0  0.00000000000E+00 -0.00000000000E+00 -0.33040960083E+04  0.33040960083E+04  0.00000000000E+00 0.  1.
         23    2    1    2    0    0  0.70674262368E+03 -0.22940774870E+03 -0.20436216246E+04  0.21763048093E+04  0.88318894181E+02 0.  0.
         11    1    3    3    0    0  0.10154340038E+03 -0.66239261988E+02 -0.35134316358E+03  0.37167286770E+03  0.00000000000E+00 0.  1.
        -11    1    3    3    0    0  0.60519922330E+03 -0.16316848671E+03 -0.16922784611E+04  0.18046319416E+04  0.00000000000E+00 0. -1.
         22    1    1    2    0    0 -0.70674262368E+03  0.22940774870E+03 -0.10785440865E+04  0.13097214962E+04  0.00000000000E+00 0. -1.
<mgrwt>
<rscale>  0 0.15506323E+04</rscale>
<asrwt>0</asrwt>
<pdfrwt beam="1">  1        1 0.50832244E+00 0.15506323E+04</pdfrwt>
<pdfrwt beam="2">  1       -1 0.27989278E-01 0.15506323E+04</pdfrwt>
<totfact> 0.39686643E+00</totfact>
</mgrwt>
</event>
<event>
 6    1  0.2166982E-005  0.4408646E+04  0.7818608E-02  0.7926828E-01
         -1   -1    0    0    0  501 -0.00000000000E+00  0.00000000000E+00  0.15162498439E+04  0.15162498439E+04  0.00000000000E+00 0.  1.
          1   -1    0    0  501    0  0.00000000000E+00 -0.00000000000E+00 -0.32046439937E+04  0.32046439937E+04  0.00000000000E+00 0. -1.
         23    2    1    2    0    0  0.16810675134E+04 -0.94330215607E+03 -0.19874434829E+04  0.27701920547E+04  0.90694433799E+02 0.  0.
         13    1    3    3    0    0  0.52059676712E+03 -0.28092490808E+03 -0.55227922208E+03  0.80929113244E+03  0.00000000000E+00 0.  1.
        -13    1    3    3    0    0  0.11604707463E+04 -0.66237724799E+03 -0.14351642608E+04  0.19609009223E+04  0.00000000000E+00 0. -1.
         22    1    1    2    0    0 -0.16810675134E+04  0.94330215607E+03  0.29904933307E+03  0.19507017829E+04  0.00000000000E+00 0.  1.
<mgrwt>
<rscale>  0 0.44086465E+04</rscale>
<asrwt>0</asrwt>
<pdfrwt beam="1">  1        1 0.49302214E+00 0.44086465E+04</pdfrwt>
<pdfrwt beam="2">  1       -1 0.23326921E+00 0.44086465E+04</pdfrwt>
<totfact> 0.28646960E-02</totfact>
</mgrwt>
</event>
<event>
 6    1  0.1773638E-005  0.4357629E+04  0.7818608E-02  0.7936047E-01
         -2   -1    0    0    0  501 -0.00000000000E+00  0.00000000000E+00  0.21459628060E+04  0.21459628060E+04  0.00000000000E+00 0.  1.
          2   -1    0    0  501    0  0.00000000000E+00 -0.00000000000E+00 -0.22121693578E+04  0.22121693578E+04  0.00000000000E+00 0. -1.
         23    2    1    2    0    0  0.11718682052E+04  0.82360435190E+03  0.16077743257E+04  0.21549954915E+04  0.86417978985E+02 0.  0.
         11    1    3    3    0    0  0.58570552027E+03  0.40674879506E+03  0.73581677733E+03  0.10246569516E+04  0.00000000000E+00 0. -1.
        -11    1    3    3    0    0  0.58616268495E+03  0.41685555684E+03  0.87195754839E+03  0.11303385399E+04  0.00000000000E+00 0.  1.
         22    1    1    2    0    0 -0.11718682052E+04 -0.82360435190E+03 -0.16739808775E+04  0.22031366724E+04  0.00000000000E+00 0. -1.
<mgrwt>
<rscale>  0 0.43576292E+04</rscale>
<asrwt>0</asrwt>
<pdfrwt beam="1">  1        2 0.34033375E+00 0.43576292E+04</pdfrwt>
<pdfrwt beam="2">  1       -2 0.33014812E+00 0.43576292E+04</pdfrwt>
<totfact> 0.80700285E-02</totfact>
</mgrwt>
</event>
<event>
 6    1  0.1773638E-005  0.1570337E+04  0.7818608E-02  0.8838981E-01
          1   -1    0    0  501    0  0.00000000000E+00  0.00000000000E+00  0.55662363256E+03  0.55662363256E+03  0.00000000000E+00 0.  1.
         -1   -1    0    0    0  501 -0.00000000000E+00 -0.00000000000E+00 -0.11075518237E+04  0.11075518237E+04  0.00000000000E+00 0. -1.
         23    2    1    2    0    0 -0.14403688160E+03 -0.72665423028E+03 -0.54355179796E+03  0.92334659290E+03  0.91363996818E+02 0.  0.
         13    1    3    3    0    0 -0.96466050761E+02 -0.54388300324E+03 -0.45060716295E+03  0.71285428768E+03  0.00000000000E+00 0. -1.
        -13    1    3    3    0    0 -0.47570830841E+02 -0.18277122704E+03 -0.92944635006E+02  0.21049230522E+03  0.00000000000E+00 0.  1.
         22    1    1    2    0    0  0.14403688160E+03  0.72665423028E+03 -0.73763932098E+01  0.74082886338E+03  0.00000000000E+00 0. -1.
<mgrwt>
<rscale>  0 0.15703369E+04</rscale>
<asrwt>0</asrwt>
<pdfrwt beam="1">  1        1 0.85634405E-01 0.15703369E+04</pdfrwt>
<pdfrwt beam="2">  1       -1 0.17039259E+00 0.15703369E+04</pdfrwt>
<totfact> 0.89658850E+00</totfact>
</mgrwt>
</event>
<event>
 6    1  0.1773638E-005  0.2586889E+04  0.7818608E-02  0.8372668E-01
         -2   -1    0    0    0  501 -0.00000000000E+00  0.00000000000E+00  0.11927351435E+04  0.11927351435E+04  0.00000000000E+00 0.  1.
          2   -1    0    0  501    0  0.00000000000E+00 -0.00000000000E+00 -0.14026577043E+04  0.14026577043E+04  0.00000000000E+00 0. -1.
         23    2    1    2    0    0  0.10900931763E+03  0.81311767975E+03 -0.11062759927E+04  0.13802826194E+04  0.91050233896E+02 0.  0.
         11    1    3    3    0    0  0.10551789236E+03  0.50019695312E+03 -0.64844560733E+03  0.82571951847E+03  0.00000000000E+00 0. -1.
        -11    1    3    3    0    0  0.34914252673E+01  0.31292072663E+03 -0.45783038534E+03  0.55456310096E+03  0.00000000000E+00 0.  1.
         22    1    1    2    0    0 -0.10900931763E+03 -0.81311767975E+03  0.89635343185E+03  0.12151102284E+04  0.00000000000E+00 0.  1.
<mgrwt>
<rscale>  0 0.25868894E+04</rscale>
<asrwt>0</asrwt>
<pdfrwt beam="1">  1        2 0.21579349E+00 0.25868894E+04</pdfrwt>
<pdfrwt beam="2">  1       -2 0.18349771E+00 0.25868894E+04</pdfrwt>
<totfact> 0.21908603E+00</totfact>
</mgrwt>
</event>
<event>
 6    1  0.1773638E-005  0.1532578E+04  0.7818608E-02  0.8863073E-01
         -2   -1    0    0    0  501 -0.00000000000E+00  0.00000000000E+00  0.21439862282E+03  0.21439862282E+03  0.00000000000E+00 0.  1.
          2   -1    0    0  501    0  0.00000000000E+00 -0.00000000000E+00 -0.27388175882E+04  0.27388175882E+04  0.00000000000E+00 0. -1.
         23    2    1    2    0    0 -0.70583042786E+03 -0.25731496015E+03 -0.10039687059E+04  0.12572867982E+04  0.91702502517E+02 0.  0.
         13    1    3    3    0    0 -0.20014654476E+03 -0.11786714851E+03 -0.30463224380E+03  0.38308237762E+03  0.00000000000E+00 0. -1.
        -13    1    3    3    0    0 -0.50568388310E+03 -0.13944781163E+03 -0.69933646210E+03  0.87420442061E+03  0.00000000000E+00 0.  1.
         22    1    1    2    0    0  0.70583042786E+03  0.25731496015E+03 -0.15204502595E+04  0.16959294128E+04  0.00000000000E+00 0. -1.
<mgrwt>
<rscale>  0 0.15325779E+04</rscale>
<asrwt>0</asrwt>
<pdfrwt beam="1">  1        2 0.42135652E+00 0.15325779E+04</pdfrwt>
<pdfrwt beam="2">  1       -2 0.32984406E-01 0.15325779E+04</pdfrwt>
<totfact> 0.20902701E+01</totfact>
</mgrwt>
</event>
<event>
 6    1  0.1773638E-005  0.1335472E+04  0.7818608E-02  0.9001899E-01
          2   -1    0    0  501    0  0.00000000000E+00  0.00000000000E+00  0.15805954162E+04  0.15805954162E+04  0.00000000000E+00 0. -1.
         -2   -1    0    0    0  501 -0.00000000000E+00 -0.00000000000E+00 -0.28209081677E+03  0.28209081677E+03  0.00000000000E+00 0.  1.
         23    2    1    2    0    0 -0.49659520185E+03  0.24601254447E+02  0.37072939814E+02  0.50680207564E+03  0.90895130699E+02 0.  0.
         11    1    3    3    0    0 -0.32281894593E+03 -0.22453549710E+02  0.44332450902E+02  0.32662149340E+03  0.00000000000E+00 0. -1.
        -11    1    3    3    0    0 -0.17377625592E+03  0.47054804157E+02 -0.72595110886E+01  0.18018058225E+03  0.00000000000E+00 0.  1.
         22    1    1    2    0    0  0.49659520185E+03 -0.24601254447E+02  0.12614316596E+04  0.13558841573E+04  0.00000000000E+00 0. -1.
<mgrwt>
<rscale>  0 0.13354721E+04</rscale>
<asrwt>0</asrwt>
<pdfrwt beam="1">  1        2 0.24316852E+00 0.13354721E+04</pdfrwt>
<pdfrwt beam="2">  1       -2 0.43398588E-01 0.13354721E+04</pdfrwt>
<totfact> 0.56272063E+01</totfact>
</mgrwt>
</event>
<event>
 6    1  0.1773638E-005  0.1969512E+04  0.7818608E-02  0.8621009E-01
         -1   -1    0    0    0  501 -0.00000000000E+00  0.00000000000E+00  0.49039002064E+03  0.49039002064E+03  0.00000000000E+00 0.  1.
          1   -1    0    0  501    0  0.00000000000E+00 -0.00000000000E+00 -0.19774962960E+04  0.19774962960E+04  0.00000000000E+00 0. -1.
         23    2    1    2    0    0 -0.51530371834E+03 -0.18099318459E+03  0.27800687247E+03  0.62020645269E+03  0.95245828330E+02 0.  0.
         11    1    3    3    0    0 -0.41320816171E+03 -0.12481684429E+03  0.17898298544E+03  0.46728485808E+03  0.00000000000E+00 0. -1.
        -11    1    3    3    0    0 -0.10209555664E+03 -0.56176340301E+02  0.99023887030E+02  0.15292159461E+03  0.00000000000E+00 0.  1.
         22    1    1    2    0    0  0.51530371834E+03  0.18099318459E+03 -0.17651131478E+04  0.18476798639E+04  0.00000000000E+00 0. -1.
<mgrwt>
<rscale>  0 0.19695121E+04</rscale>
<asrwt>0</asrwt>
<pdfrwt beam="1">  1        1 0.30423020E+00 0.19695121E+04</pdfrwt>
<pdfrwt beam="2">  1       -1 0.75444618E-01 0.19695121E+04</pdfrwt>
<totfact> 0.50692948E+00</totfact>
</mgrwt>
</event>
<event>
 6    1  0.1773638E-005  0.9287640E+03  0.7818608E-02  0.9390323E-01
          2   -1    0    0  501    0  0.00000000000E+00  0.00000000000E+00  0.81511274304E+03  0.81511274304E+03  0.00000000000E+00 0. -1.
         -2   -1    0    0    0  501 -0.00000000000E+00 -0.00000000000E+00 -0.26456539041E+03  0.26456539041E+03  0.00000000000E+00 0.  1.
         23    2    1    2    0    0 -0.23547794755E+03  0.24889465340E+03  0.63428277791E+03  0.72696006796E+03  0.93583576470E+02 0.  0.
         13    1    3    3    0    0 -0.10276976035E+03  0.12877514091E+03  0.21343691047E+03  0.26962932947E+03  0.00000000000E+00 0.  1.
        -13    1    3    3    0    0 -0.13270818720E+03  0.12011951249E+03  0.42084586744E+03  0.45733073849E+03  0.00000000000E+00 0. -1.
         22    1    1    2    0    0  0.23547794755E+03 -0.24889465340E+03 -0.83735425285E+02  0.35271806549E+03  0.00000000000E+00 0.  1.
<mgrwt>
<rscale>  0 0.92876396E+03</rscale>
<asrwt>0</asrwt>
<pdfrwt beam="1">  1        2 0.12540196E+00 0.92876396E+03</pdfrwt>
<pdfrwt beam="2">  1       -2 0.40702368E-01 0.92876396E+03</pdfrwt>
<totfact> 0.19221506E+02</totfact>
</mgrwt>
</event>
<event>
 6    1  0.1773638E-005  0.2749270E+04  0.7818608E-02  0.8319193E-01
         -2   -1    0    0    0  501 -0.00000000000E+00  0.00000000000E+00  0.80753824114E+03  0.80753824114E+03  0.00000000000E+00 0.  1.
          2   -1    0    0  501    0  0.00000000000E+00 -0.00000000000E+00 -0.23399783895E+04  0.23399783895E+04  0.00000000000E+00 0. -1.
         23    2    1    2    0    0  0.91553168304E+03  0.64656456860E+03 -0.16751617070E+04  0.20176434309E+04  0.92055775051E+02 0.  0.
         11    1    3    3    0    0  0.83796497511E+03  0.61942958225E+03 -0.15388394823E+04  0.18584685252E+04  0.00000000000E+00 0.  1.
        -11    1    3    3    0    0  0.77566707933E+02  0.27134986346E+02 -0.13632222473E+03  0.15917490574E+03  0.00000000000E+00 0. -1.
         22    1    1    2    0    0 -0.91553168304E+03 -0.64656456860E+03  0.14272155869E+03  0.11298731997E+04  0.00000000000E+00 0.  1.
<mgrwt>
<rscale>  0 0.27492705E+04</rscale>
<asrwt>0</asrwt>
<pdfrwt beam="1">  1        2 0.35999668E+00 0.27492705E+04</pdfrwt>
<pdfrwt beam="2">  1       -2 0.12423665E+00 0.27492705E+04</pdfrwt>
<totfact> 0.18301538E+00</totfact>
</mgrwt>
</event>
<event>
 6    1  0.1773638E-005  0.1475791E+04  0.7818608E-02  0.8900713E-01
          2   -1    0    0  501    0  0.00000000000E+00  0.00000000000E+00  0.10074082492E+04  0.10074082492E+04  0.00000000000E+00 0.  1.
         -2   -1    0    0    0  501 -0.00000000000E+00 -0.00000000000E+00 -0.54048570918E+03  0.54048570918E+03  0.00000000000E+00 0. -1.
         23    2    1    2    0    0 -0.68968567207E+03 -0.16325130809E+03  0.43781829347E+03  0.83855315668E+03  0.95756057992E+02 0.  0.
         13    1    3    3    0    0 -0.32972341662E+03 -0.11673051557E+03  0.18021600678E+03  0.39347344743E+03  0.00000000000E+00 0.  1.
        -13    1    3    3    0    0 -0.35996225545E+03 -0.46520792517E+02  0.25760228668E+03  0.44507970925E+03  0.00000000000E+00 0. -1.
         22    1    1    2    0    0  0.68968567207E+03  0.16325130809E+03  0.29104246608E+02  0.70934080174E+03  0.00000000000E+00 0. -1.
<mgrwt>
<rscale>  0 0.14757910E+04</rscale>
<asrwt>0</asrwt>
<pdfrwt beam="1">  1        2 0.15498588E+00 0.14757910E+04</pdfrwt>
<pdfrwt beam="2">  1       -2 0.83151648E-01 0.14757910E+04</pdfrwt>
<totfact> 0.30553458E+01</totfact>
</mgrwt>
</event>
<event>
 6    1  0.1773638E-005  0.1317296E+04  0.7818608E-02  0.9015960E-01
          1   -1    0    0  501    0  0.00000000000E+00  0.00000000000E+00  0.92401339962E+03  0.92401339962E+03  0.00000000000E+00 0. -1.
         -1   -1    0    0    0  501 -0.00000000000E+00 -0.00000000000E+00 -0.46949251970E+03  0.46949251970E+03  0.00000000000E+00 0.  1.
         23    2    1    2    0    0 -0.14290126862E+03  0.43666520916E+03 -0.26670077679E+03  0.53836969885E+03  0.87265977552E+02 0.  0.
         13    1    3    3    0    0 -0.12711847833E+03  0.33356044203E+03 -0.24175279177E+03  0.43112189500E+03  0.00000000000E+00 0. -1.
        -13    1    3    3    0    0 -0.15782790291E+02  0.10310476714E+03 -0.24947985019E+02  0.10724780386E+03  0.00000000000E+00 0.  1.
         22    1    1    2    0    0  0.14290126862E+03 -0.43666520916E+03  0.72122165670E+03  0.85513622047E+03  0.00000000000E+00 0. -1.
<mgrwt>
<rscale>  0 0.13172963E+04</rscale>
<asrwt>0</asrwt>
<pdfrwt beam="1">  1        1 0.14215591E+00 0.13172963E+04</pdfrwt>
<pdfrwt beam="2">  1       -1 0.72229618E-01 0.13172963E+04</pdfrwt>
<totfact> 0.33013868E+01</totfact>
</mgrwt>
</event>
<event>
 6    1  0.1773638E-005  0.3300163E+04  0.7818608E-02  0.8162854E-01
          1   -1    0    0  501    0  0.00000000000E+00  0.00000000000E+00  0.24245236375E+04  0.24245236375E+04  0.00000000000E+00 0. -1.
         -1   -1    0    0    0  501 -0.00000000000E+00 -0.00000000000E+00 -0.11230118001E+04  0.11230118001E+04  0.00000000000E+00 0.  1.
         23    2    1    2    0    0  0.16178628988E+04 -0.28550165716E+03  0.80170347719E+03  0.18303284168E+04  0.91553766755E+02 0.  0.
         11    1    3    3    0    0  0.12398061474E+04 -0.20621751939E+03  0.57168520946E+03  0.13807494078E+04  0.00000000000E+00 0.  1.
        -11    1    3    3    0    0  0.37805675142E+03 -0.79284137767E+02  0.23001826773E+03  0.44957900895E+03  0.00000000000E+00 0. -1.
         22    1    1    2    0    0 -0.16178628988E+04  0.28550165716E+03  0.49980836022E+03  0.17172070209E+04  0.00000000000E+00 0. -1.
<mgrwt>
<rscale>  0 0.33001628E+04</rscale>
<asrwt>0</asrwt>
<pdfrwt beam="1">  1        1 0.37300363E+00 0.33001628E+04</pdfrwt>
<pdfrwt beam="2">  1       -1 0.17277105E+00 0.33001628E+04</pdfrwt>
<totfact> 0.29760231E-01</totfact>
</mgrwt>
</event>
<event>
 6    1  0.1773638E-005  0.2253032E+04  0.7818608E-02  0.8496673E-01
          1   -1    0    0  501    0  0.00000000000E+00  0.00000000000E+00  0.20855510678E+04  0.20855510678E+04  0.00000000000E+00 0. -1.
         -1   -1    0    0    0  501 -0.00000000000E+00 -0.00000000000E+00 -0.60849085401E+03  0.60849085401E+03  0.00000000000E+00 0.  1.
         23    2    1    2    0    0  0.67826574472E+03 -0.37913783251E+03  0.17119981692E+04  0.18822625433E+04  0.90468967477E+02 0.  0.
         11    1    3    3    0    0  0.20297858010E+03 -0.16105919978E+03  0.58949939528E+03  0.64393315402E+03  0.00000000000E+00 0. -1.
        -11    1    3    3    0    0  0.47528716462E+03 -0.21807863273E+03  0.11224987739E+04  0.12383293892E+04  0.00000000000E+00 0.  1.
         22    1    1    2    0    0 -0.67826574472E+03  0.37913783251E+03 -0.23493795540E+03  0.81177937852E+03  0.00000000000E+00 0.  1.
<mgrwt>
<rscale>  0 0.22530324E+04</rscale>
<asrwt>0</asrwt>
<pdfrwt beam="1">  1        1 0.32085401E+00 0.22530324E+04</pdfrwt>
<pdfrwt beam="2">  1       -1 0.93613978E-01 0.22530324E+04</pdfrwt>
<totfact> 0.26175921E+00</totfact>
</mgrwt>
</event>
<event>
 6    1  0.1773638E-005  0.1523509E+04  0.7818608E-02  0.8868968E-01
          2   -1    0    0  501    0  0.00000000000E+00  0.00000000000E+00  0.22702375620E+03  0.22702375620E+03  0.00000000000E+00 0. -1.
         -2   -1    0    0    0  501 -0.00000000000E+00 -0.00000000000E+00 -0.25559883257E+04  0.25559883257E+04  0.00000000000E+00 0.  1.
         23    2    1    2    0    0  0.40608344160E+03  0.58218193083E+03 -0.67531341196E+03  0.98345610529E+03  0.85429178467E+02 0.  0.
         13    1    3    3    0    0  0.86144029291E+02  0.91150913960E+02 -0.84213259674E+02  0.15106672699E+03  0.00000000000E+00 0. -1.
        -13    1    3    3    0    0  0.31993941231E+03  0.49103101687E+03 -0.59110015229E+03  0.83238937830E+03  0.00000000000E+00 0.  1.
         22    1    1    2    0    0 -0.40608344160E+03 -0.58218193083E+03 -0.16536511575E+04  0.17995559766E+04  0.00000000000E+00 0.  1.
<mgrwt>
<rscale>  0 0.15235092E+04</rscale>
<asrwt>0</asrwt>
<pdfrwt beam="1">  1        2 0.34926731E-01 0.15235092E+04</pdfrwt>
<pdfrwt beam="2">  1       -2 0.39322898E+00 0.15235092E+04</pdfrwt>
<totfact> 0.11991670E+00</totfact>
</mgrwt>
</event>
<event>
 6    1  0.1773638E-005  0.1774630E+04  0.7818608E-02  0.8719908E-01
         -1   -1    0    0    0  501 -0.00000000000E+00  0.00000000000E+00  0.66944709915E+03  0.66944709915E+03  0.00000000000E+00 0.  1.
          1   -1    0    0  501    0  0.00000000000E+00 -0.00000000000E+00 -0.11760872989E+04  0.11760872989E+04  0.00000000000E+00 0. -1.
         23    2    1    2    0    0  0.37575726101E+03  0.65133227229E+03 -0.73922959461E+03  0.10584352462E+04  0.91638031530E+02 0.  0.
         13    1    3    3    0    0  0.20601008529E+03  0.27111159909E+03 -0.31133910130E+03  0.46138236898E+03  0.00000000000E+00 0. -1.
        -13    1    3    3    0    0  0.16974717572E+03  0.38022067320E+03 -0.42789049331E+03  0.59705287727E+03  0.00000000000E+00 0.  1.
         22    1    1    2    0    0 -0.37575726101E+03 -0.65133227229E+03  0.23258939488E+03  0.78709915179E+03  0.00000000000E+00 0.  1.
<mgrwt>
<rscale>  0 0.17746304E+04</rscale>
<asrwt>0</asrwt>
<pdfrwt beam="1">  1        1 0.18093651E+00 0.17746304E+04</pdfrwt>
<pdfrwt beam="2">  1       -1 0.10299186E+00 0.17746304E+04</pdfrwt>
<totfact> 0.93705730E+00</totfact>
</mgrwt>
</event>
<event>
 6    1  0.1773638E-005  0.7657422E+03  0.7818608E-02  0.9610972E-01
         -2   -1    0    0    0  501 -0.00000000000E+00  0.00000000000E+00  0.55852564620E+02  0.55852564620E+02  0.00000000000E+00 0.  1.
          2   -1    0    0  501    0  0.00000000000E+00 -0.00000000000E+00 -0.26245938072E+04  0.26245938072E+04  0.00000000000E+00 0. -1.
         23    2    1    2    0    0 -0.72142943356E+01  0.34622765430E+03 -0.18276543666E+04  0.18624394082E+04  0.91839159188E+02 0.  0.
         11    1    3    3    0    0  0.41781322998E+02  0.15301560356E+03 -0.84971803197E+03  0.86439585130E+03  0.00000000000E+00 0. -1.
        -11    1    3    3    0    0 -0.48995617333E+02  0.19321205073E+03 -0.97793633459E+03  0.99804355695E+03  0.00000000000E+00 0.  1.
         22    1    1    2    0    0  0.72142943356E+01 -0.34622765430E+03 -0.74108687606E+03  0.81800696361E+03  0.00000000000E+00 0. -1.
<mgrwt>
<rscale>  0 0.76574224E+03</rscale>
<asrwt>0</asrwt>
<pdfrwt beam="1">  1        2 0.40378380E+00 0.76574224E+03</pdfrwt>
<pdfrwt beam="2">  1       -2 0.85926992E-02 0.76574224E+03</pdfrwt>
<totfact> 0.26867284E+02</totfact>
</mgrwt>
</event>
<event>
 6    1  0.2257223E-005  0.3903564E+04  0.7818608E-02  0.8024288E-01
          1   -1    0    0  501    0  0.00000000000E+00  0.00000000000E+00  0.30075089408E+04  0.30075089408E+04  0.00000000000E+00 0. -1.
         -1   -1    0    0    0  501 -0.00000000000E+00 -0.00000000000E+00 -0.12666473787E+04  0.12666473787E+04  0.00000000000E+00 0.  1.
         23    2    1    2    0    0 -0.97275406788E+03 -0.16710043395E+04  0.58948948522E+03  0.20237866524E+04  0.98532138459E+02 0.  0.
         13    1    3    3    0    0 -0.60904007725E+03 -0.98774935644E+03  0.31350813944E+03  0.12020257736E+04  0.00000000000E+00 0. -1.
        -13    1    3    3    0    0 -0.36371399063E+03 -0.68325498303E+03  0.27598134579E+03  0.82176087887E+03  0.00000000000E+00 0.  1.
         22    1    1    2    0    0  0.97275406788E+03  0.16710043395E+04  0.11513720769E+04  0.22503696671E+04  0.00000000000E+00 0. -1.
<mgrwt>
<rscale>  0 0.39035642E+04</rscale>
<asrwt>0</asrwt>
<pdfrwt beam="1">  1        1 0.46269368E+00 0.39035642E+04</pdfrwt>
<pdfrwt beam="2">  1       -1 0.19486883E+00 0.39035642E+04</pdfrwt>
<totfact> 0.76017349E-02</totfact>
</mgrwt>
</event>
<event>
 6    1  0.1773638E-005  0.1378370E+04  0.7818608E-02  0.8969626E-01
          2   -1    0    0  501    0  0.00000000000E+00  0.00000000000E+00  0.52103569262E+03  0.52103569262E+03  0.00000000000E+00 0. -1.
         -2   -1    0    0    0  501 -0.00000000000E+00 -0.00000000000E+00 -0.91159952736E+03  0.91159952736E+03  0.00000000000E+00 0.  1.
         23    2    1    2    0    0 -0.45919297675E+03 -0.37077735625E+03 -0.56020063098E+03  0.81854183910E+03  0.88611272498E+02 0.  0.
         13    1    3    3    0    0 -0.26229143974E+03 -0.15488455398E+03 -0.28787677535E+03  0.41911700301E+03  0.00000000000E+00 0.  1.
        -13    1    3    3    0    0 -0.19690153701E+03 -0.21589280227E+03 -0.27232385562E+03  0.39942483610E+03  0.00000000000E+00 0. -1.
         22    1    1    2    0    0  0.45919297675E+03  0.37077735625E+03  0.16963679623E+03  0.61409338088E+03  0.00000000000E+00 0. -1.
<mgrwt>
<rscale>  0 0.13783699E+04</rscale>
<asrwt>0</asrwt>
<pdfrwt beam="1">  1        2 0.80159338E-01 0.13783699E+04</pdfrwt>
<pdfrwt beam="2">  1       -2 0.14024608E+00 0.13783699E+04</pdfrwt>
<totfact> 0.20437402E+01</totfact>
</mgrwt>
</event>
<event>
 6    1  0.1773638E-005  0.6540960E+04  0.7818608E-02  0.7626723E-01
         -2   -1    0    0    0  501 -0.00000000000E+00  0.00000000000E+00  0.22663465003E+04  0.22663465003E+04  0.00000000000E+00 0.  1.
          2   -1    0    0  501    0  0.00000000000E+00 -0.00000000000E+00 -0.47195081308E+04  0.47195081308E+04  0.00000000000E+00 0. -1.
         23    2    1    2    0    0  0.61922555458E+03 -0.18874811265E+04  0.15471458485E+04  0.25194819174E+04  0.90019804743E+02 0.  0.
         11    1    3    3    0    0  0.30302969392E+03 -0.98657868562E+03  0.75233027458E+03  0.12771708345E+04  0.00000000000E+00 0.  1.
        -11    1    3    3    0    0  0.31619586065E+03 -0.90090244091E+03  0.79481557395E+03  0.12423110830E+04  0.00000000000E+00 0. -1.
         22    1    1    2    0    0 -0.61922555458E+03  0.18874811265E+04 -0.40003074790E+04  0.44663727136E+04  0.00000000000E+00 0. -1.
<mgrwt>
<rscale>  0 0.65409604E+04</rscale>
<asrwt>0</asrwt>
<pdfrwt beam="1">  1        2 0.72607816E+00 0.65409604E+04</pdfrwt>
<pdfrwt beam="2">  1       -2 0.34866870E+00 0.65409604E+04</pdfrwt>
<totfact> 0.73639144E-04</totfact>
</mgrwt>
</event>
<event>
 6    1  0.1773638E-005  0.1506446E+04  0.7818608E-02  0.8880178E-01
          3   -1    0    0  501    0  0.00000000000E+00  0.00000000000E+00  0.94934043946E+03  0.94934043946E+03  0.00000000000E+00 0. -1.
         -3   -1    0    0    0  501 -0.00000000000E+00 -0.00000000000E+00 -0.59762025487E+03  0.59762025487E+03  0.00000000000E+00 0.  1.
         23    2    1    2    0    0  0.54175388320E+03  0.43516229494E+03  0.46985029185E+03  0.84210736552E+03  0.74310331807E+02 0.  0.
         11    1    3    3    0    0  0.23588406414E+03  0.15221537842E+03  0.21583566167E+03  0.35411275887E+03  0.00000000000E+00 0. -1.
        -11    1    3    3    0    0  0.30586981905E+03  0.28294691652E+03  0.25401463018E+03  0.48799460665E+03  0.00000000000E+00 0.  1.
         22    1    1    2    0    0 -0.54175388320E+03 -0.43516229494E+03 -0.11813010726E+03  0.70485332881E+03  0.00000000000E+00 0.  1.
<mgrwt>
<rscale>  0 0.15064462E+04</rscale>
<asrwt>0</asrwt>
<pdfrwt beam="1">  1        3 0.14605237E+00 0.15064462E+04</pdfrwt>
<pdfrwt beam="2">  1       -3 0.91941578E-01 0.15064462E+04</pdfrwt>
<totfact> 0.93068471E-01</totfact>
</mgrwt>
</event>
<event>
 6    1  0.1773638E-005  0.3198423E+04  0.7818608E-02  0.8189234E-01
         -4   -1    0    0    0  501 -0.00000000000E+00  0.00000000000E+00  0.20061685894E+04  0.20061685894E+04  0.00000000000E+00 0.  1.
          4   -1    0    0  501    0  0.00000000000E+00 -0.00000000000E+00 -0.12748067302E+04  0.12748067302E+04  0.00000000000E+00 0. -1.
         23    2    1    2    0    0  0.76180443325E+03  0.11175893931E+04  0.12386067632E+04  0.18364513708E+04  0.95157118880E+02 0.  0.
         13    1    3    3    0    0  0.20732840946E+03  0.26029626414E+03  0.34974464876E+03  0.48276343465E+03  0.00000000000E+00 0. -1.
        -13    1    3    3    0    0  0.55447602379E+03  0.85729312900E+03  0.88886211439E+03  0.13536879361E+04  0.00000000000E+00 0.  1.
         22    1    1    2    0    0 -0.76180443325E+03 -0.11175893931E+04 -0.50724490401E+03  0.14445239489E+04  0.00000000000E+00 0. -1.
<mgrwt>
<rscale>  0 0.31984229E+04</rscale>
<asrwt>0</asrwt>
<pdfrwt beam="1">  1        4 0.19612411E+00 0.31984229E+04</pdfrwt>
<pdfrwt beam="2">  1       -4 0.30864132E+00 0.31984229E+04</pdfrwt>
<totfact> 0.63472940E-03</totfact>
</mgrwt>
</event>
<event>
 6    1  0.1773638E-005  0.2089553E+04  0.7818608E-02  0.8565859E-01
         -2   -1    0    0    0  501 -0.00000000000E+00  0.00000000000E+00  0.96415789956E+03  0.96415789956E+03  0.00000000000E+00 0.  1.
          2   -1    0    0  501    0  0.00000000000E+00 -0.00000000000E+00 -0.11321358563E+04  0.11321358563E+04  0.00000000000E+00 0. -1.
         23    2    1    2    0    0  0.69484252952E+02 -0.55854312486E+03  0.79660631044E+03  0.97950313437E+03  0.89701129755E+02 0.  0.
         13    1    3    3    0    0  0.27917785819E+02 -0.47716723369E+03  0.68458156467E+03  0.83493705772E+03  0.00000000000E+00 0.  1.
        -13    1    3    3    0    0  0.41566467133E+02 -0.81375891170E+02  0.11202474577E+03  0.14456607665E+03  0.00000000000E+00 0. -1.
         22    1    1    2    0    0 -0.69484252952E+02  0.55854312486E+03 -0.96458426714E+03  0.11167906214E+04  0.00000000000E+00 0. -1.
<mgrwt>
<rscale>  0 0.20895528E+04</rscale>
<asrwt>0</asrwt>
<pdfrwt beam="1">  1        2 0.17417475E+00 0.20895528E+04</pdfrwt>
<pdfrwt beam="2">  1       -2 0.14833198E+00 0.20895528E+04</pdfrwt>
<totfact> 0.59261292E+00</totfact>
</mgrwt>
</event>
<event>
 6    1  0.1773638E-005  0.8304795E+03  0.7818608E-02  0.9516918E-01
          2   -1    0    0  501    0  0.00000000000E+00  0.00000000000E+00  0.29677548069E+04  0.29677548069E+04  0.00000000000E+00 0. -1.
         -2   -1    0    0    0  501 -0.00000000000E+00 -0.00000000000E+00 -0.58099151948E+02  0.58099151948E+02  0.00000000000E+00 0.  1.
         23    2    1    2    0    0 -0.16011747099E+03 -0.26450748915E+03  0.24563622104E+04  0.24771493360E+04  0.83376899864E+02 0.  0.
         13    1    3    3    0    0 -0.13714188074E+03 -0.15025643133E+03  0.15123344923E+04  0.15259556046E+04  0.00000000000E+00 0.  1.
        -13    1    3    3    0    0 -0.22975590252E+02 -0.11425105782E+03  0.94402771817E+03  0.95119373139E+03  0.00000000000E+00 0. -1.
         22    1    1    2    0    0  0.16011747099E+03  0.26450748915E+03  0.45329344446E+03  0.54870462283E+03  0.00000000000E+00 0.  1.
<mgrwt>
<rscale>  0 0.83047947E+03</rscale>
<asrwt>0</asrwt>
<pdfrwt beam="1">  1        2 0.45657754E+00 0.83047947E+03</pdfrwt>
<pdfrwt beam="2">  1       -2 0.89383334E-02 0.83047947E+03</pdfrwt>
<totfact> 0.15686846E+02</totfact>
</mgrwt>
</event>
<event>
 6    1  0.1773638E-005  0.4560774E+04  0.7818608E-02  0.7900083E-01
          1   -1    0    0  501    0  0.00000000000E+00  0.00000000000E+00  0.27190007688E+04  0.27190007688E+04  0.00000000000E+00 0. -1.
         -1   -1    0    0    0  501 -0.00000000000E+00 -0.00000000000E+00 -0.19125283208E+04  0.19125283208E+04  0.00000000000E+00 0.  1.
         23    2    1    2    0    0  0.13509939563E+04 -0.53893787662E+03  0.21857131943E+04  0.26270481741E+04  0.91658257818E+02 0.  0.
         13    1    3    3    0    0  0.13283135701E+04 -0.53948849808E+03  0.21625397191E+04  0.25946180484E+04  0.00000000000E+00 0.  1.
        -13    1    3    3    0    0  0.22680386118E+02  0.55062146488E+00  0.23173475248E+02  0.32430125709E+02  0.00000000000E+00 0. -1.
         22    1    1    2    0    0 -0.13509939563E+04  0.53893787662E+03 -0.13792407463E+04  0.20044809156E+04  0.00000000000E+00 0.  1.
<mgrwt>
<rscale>  0 0.45607745E+04</rscale>
<asrwt>0</asrwt>
<pdfrwt beam="1">  1        1 0.41830781E+00 0.45607745E+04</pdfrwt>
<pdfrwt beam="2">  1       -1 0.29423513E+00 0.45607745E+04</pdfrwt>
<totfact> 0.25608074E-02</totfact>
</mgrwt>
</event>
<event>
 6    1  0.1773638E-005  0.9944687E+03  0.7818608E-02  0.9314632E-01
          1   -1    0    0  501    0  0.00000000000E+00  0.00000000000E+00  0.90601940870E+03  0.90601940870E+03  0.00000000000E+00 0. -1.
         -1   -1    0    0    0  501 -0.00000000000E+00 -0.00000000000E+00 -0.27288817534E+03  0.27288817534E+03  0.00000000000E+00 0.  1.
         23    2    1    2    0    0  0.14693758412E+03  0.44682114146E+03  0.49367619725E+03  0.68830846746E+03  0.93875303225E+02 0.  0.
         13    1    3    3    0    0  0.12166488951E+03  0.23788738327E+03  0.30698895652E+03  0.40698276608E+03  0.00000000000E+00 0.  1.
        -13    1    3    3    0    0  0.25272694612E+02  0.20893375819E+03  0.18668724073E+03  0.28132570138E+03  0.00000000000E+00 0. -1.
         22    1    1    2    0    0 -0.14693758412E+03 -0.44682114146E+03  0.13945503611E+03  0.49059911657E+03  0.00000000000E+00 0.  1.
<mgrwt>
<rscale>  0 0.99446867E+03</rscale>
<asrwt>0</asrwt>
<pdfrwt beam="1">  1        1 0.13938760E+00 0.99446867E+03</pdfrwt>
<pdfrwt beam="2">  1       -1 0.41982797E-01 0.99446867E+03</pdfrwt>
<totfact> 0.10045283E+02</totfact>
</mgrwt>
</event>
<event>
 6    1  0.1773638E-005  0.1337038E+04  0.7818608E-02  0.9000698E-01
         -2   -1    0    0    0  501 -0.00000000000E+00  0.00000000000E+00  0.20610170303E+03  0.20610170303E+03  0.00000000000E+00 0.  1.
          2   -1    0    0  501    0  0.00000000000E+00 -0.00000000000E+00 -0.21684337874E+04  0.21684337874E+04  0.00000000000E+00 0. -1.
         23    2    1    2    0    0  0.43122212738E+03 -0.49105873058E+03 -0.76145265268E+03  0.10073476432E+04  0.88588554782E+02 0.  0.
         11    1    3    3    0    0  0.36633187725E+03 -0.44041957577E+03 -0.70056619978E+03  0.90496488733E+03  0.00000000000E+00 0. -1.
        -11    1    3    3    0    0  0.64890250130E+02 -0.50639154809E+02 -0.60886452899E+02  0.10238275591E+03  0.00000000000E+00 0.  1.
         22    1    1    2    0    0 -0.43122212738E+03  0.49105873058E+03 -0.12008794316E+04  0.13671878471E+04  0.00000000000E+00 0.  1.
<mgrwt>
<rscale>  0 0.13370384E+04</rscale>
<asrwt>0</asrwt>
<pdfrwt beam="1">  1        2 0.33360519E+00 0.13370384E+04</pdfrwt>
<pdfrwt beam="2">  1       -2 0.31707955E-01 0.13370384E+04</pdfrwt>
<totfact> 0.48689024E+01</totfact>
</mgrwt>
</event>
<event>
 6    1  0.1773638E-005  0.3236264E+04  0.7818608E-02  0.8179305E-01
          2   -1    0    0  501    0  0.00000000000E+00  0.00000000000E+00  0.20042534866E+04  0.20042534866E+04  0.00000000000E+00 0. -1.
         -2   -1    0    0    0  501 -0.00000000000E+00 -0.00000000000E+00 -0.13063975130E+04  0.13063975130E+04  0.00000000000E+00 0.  1.
         23    2    1    2    0    0  0.59957288467E+03  0.12192712968E+04  0.12457954817E+04  0.18456090740E+04  0.90312414915E+02 0.  0.
         13    1    3    3    0    0  0.63842371543E+02  0.18449613622E+03  0.15182240946E+03  0.24731501511E+03  0.00000000000E+00 0.  1.
        -13    1    3    3    0    0  0.53573051312E+03  0.10347751606E+04  0.10939730723E+04  0.15982940589E+04  0.00000000000E+00 0. -1.
         22    1    1    2    0    0 -0.59957288467E+03 -0.12192712968E+04 -0.54793950806E+03  0.14650419256E+04  0.00000000000E+00 0.  1.
<mgrwt>
<rscale>  0 0.32362644E+04</rscale>
<asrwt>0</asrwt>
<pdfrwt beam="1">  1        2 0.30834669E+00 0.32362644E+04</pdfrwt>
<pdfrwt beam="2">  1       -2 0.20098423E+00 0.32362644E+04</pdfrwt>
<totfact> 0.73106601E-01</totfact>
</mgrwt>
</event>
<event>
 6    1  0.1773638E-005  0.1504745E+04  0.7818608E-02  0.8881304E-01
          1   -1    0    0  501    0  0.00000000000E+00  0.00000000000E+00  0.30450506779E+03  0.30450506779E+03  0.00000000000E+00 0. -1.
         -1   -1    0    0    0  501 -0.00000000000E+00 -0.00000000000E+00 -0.18589642477E+04  0.18589642477E+04  0.00000000000E+00 0.  1.
         23    2    1    2    0    0  0.56068200333E+03 -0.22656418635E+03 -0.14269774293E+03  0.62764185306E+03  0.88746889985E+02 0.  0.
         11    1    3    3    0    0  0.29258078101E+03 -0.80783079106E+02 -0.99535527171E+02  0.31943190269E+03  0.00000000000E+00 0. -1.
        -11    1    3    3    0    0  0.26810122232E+03 -0.14578110725E+03 -0.43162215756E+02  0.30820995037E+03  0.00000000000E+00 0.  1.
         22    1    1    2    0    0 -0.56068200333E+03  0.22656418635E+03 -0.14117614370E+04  0.15358274624E+04  0.00000000000E+00 0.  1.
<mgrwt>
<rscale>  0 0.15047445E+04</rscale>
<asrwt>0</asrwt>
<pdfrwt beam="1">  1        1 0.46846934E-01 0.15047445E+04</pdfrwt>
<pdfrwt beam="2">  1       -1 0.28599450E+00 0.15047445E+04</pdfrwt>
<totfact> 0.33905642E+00</totfact>
</mgrwt>
</event>
<event>
 6    1  0.1773638E-005  0.1777211E+04  0.7818608E-02  0.8718513E-01
         -2   -1    0    0    0  501 -0.00000000000E+00  0.00000000000E+00  0.17129551986E+04  0.17129551986E+04  0.00000000000E+00 0. -1.
          2   -1    0    0  501    0  0.00000000000E+00 -0.00000000000E+00 -0.46096926706E+03  0.46096926706E+03  0.00000000000E+00 0.  1.
         23    2    1    2    0    0  0.81249385704E+03 -0.29503611652E+03  0.86887009077E+03  0.12284244259E+04  0.83058760748E+02 0.  0.
         13    1    3    3    0    0  0.50025012921E+03 -0.18582521856E+03  0.59231173962E+03  0.79725428849E+03  0.00000000000E+00 0. -1.
        -13    1    3    3    0    0  0.31224372783E+03 -0.10921089796E+03  0.27655835114E+03  0.43117013740E+03  0.00000000000E+00 0.  1.
         22    1    1    2    0    0 -0.81249385704E+03  0.29503611652E+03  0.38311584081E+03  0.94550003979E+03  0.00000000000E+00 0. -1.
<mgrwt>
<rscale>  0 0.17772110E+04</rscale>
<asrwt>0</asrwt>
<pdfrwt beam="1">  1        2 0.70918350E-01 0.17772110E+04</pdfrwt>
<pdfrwt beam="2">  1       -2 0.26353157E+00 0.17772110E+04</pdfrwt>
<totfact> 0.33979450E+00</totfact>
</mgrwt>
</event>
<event>
 6    1  0.1773638E-005  0.4293652E+04  0.7818608E-02  0.7947793E-01
          1   -1    0    0  501    0  0.00000000000E+00  0.00000000000E+00  0.38625525317E+04  0.38625525317E+04  0.00000000000E+00 0. -1.
         -1   -1    0    0    0  501 -0.00000000000E+00 -0.00000000000E+00 -0.11932167847E+04  0.11932167847E+04  0.00000000000E+00 0.  1.
         23    2    1    2    0    0 -0.58508741129E+03  0.20628409714E+04  0.12359967166E+04  0.24766026044E+04  0.90732710106E+02 0.  0.
         13    1    3    3    0    0 -0.11299566821E+03  0.53716868189E+03  0.32948283066E+03  0.64021648646E+03  0.00000000000E+00 0. -1.
        -13    1    3    3    0    0 -0.47209174308E+03  0.15256722895E+04  0.90651388597E+03  0.18363861180E+04  0.00000000000E+00 0.  1.
         22    1    1    2    0    0  0.58508741129E+03 -0.20628409714E+04  0.14333390303E+04  0.25791667119E+04  0.00000000000E+00 0. -1.
<mgrwt>
<rscale>  0 0.42936523E+04</rscale>
<asrwt>0</asrwt>
<pdfrwt beam="1">  1        1 0.59423884E+00 0.42936523E+04</pdfrwt>
<pdfrwt beam="2">  1       -1 0.18357182E+00 0.42936523E+04</pdfrwt>
<totfact> 0.18867763E-02</totfact>
</mgrwt>
</event>
<event>
 6    1  0.1773638E-005  0.3273950E+03  0.7818608E-02  0.1072295E+00
         -2   -1    0    0    0  501 -0.00000000000E+00  0.00000000000E+00  0.75914791078E+02  0.75914791078E+02  0.00000000000E+00 0.  1.
          2   -1    0    0  501    0  0.00000000000E+00 -0.00000000000E+00 -0.35298612856E+03  0.35298612856E+03  0.00000000000E+00 0. -1.
         23    2    1    2    0    0  0.19225558866E+02  0.89625414667E+02  0.76713707233E+01  0.12976759327E+03  0.91533825805E+02 0.  0.
         13    1    3    3    0    0  0.22331747515E+01  0.69621517868E+02  0.45882289476E+02  0.83410594694E+02  0.00000000000E+00 0. -1.
        -13    1    3    3    0    0  0.16992384114E+02  0.20003896799E+02 -0.38210918753E+02  0.46356998576E+02  0.00000000000E+00 0.  1.
         22    1    1    2    0    0 -0.19225558866E+02 -0.89625414667E+02 -0.28474270821E+03  0.29913332637E+03  0.00000000000E+00 0. -1.
<mgrwt>
<rscale>  0 0.32739498E+03</rscale>
<asrwt>0</asrwt>
<pdfrwt beam="1">  1        2 0.54305559E-01 0.32739498E+03</pdfrwt>
<pdfrwt beam="2">  1       -2 0.11679199E-01 0.32739498E+03</pdfrwt>
<totfact> 0.47365123E+03</totfact>
</mgrwt>
</event>
<event>
 6    1  0.1773638E-005  0.3455205E+04  0.7818608E-02  0.8124489E-01
          2   -1    0    0  501    0  0.00000000000E+00  0.00000000000E+00  0.40381950923E+04  0.40381950923E+04  0.00000000000E+00 0. -1.
         -2   -1    0    0    0  501 -0.00000000000E+00 -0.00000000000E+00 -0.73909523616E+03  0.73909523616E+03  0.00000000000E+00 0.  1.
         23    2    1    2    0    0 -0.97840117965E+03  0.10844796180E+04  0.29232063666E+04  0.32690924550E+04  0.92006018956E+02 0.  0.
         13    1    3    3    0    0 -0.80756085908E+03  0.92571021493E+03  0.23945232696E+04  0.26912516849E+04  0.00000000000E+00 0. -1.
        -13    1    3    3    0    0 -0.17084032057E+03  0.15876940302E+03  0.52868309700E+03  0.57784077004E+03  0.00000000000E+00 0.  1.
         22    1    1    2    0    0  0.97840117965E+03 -0.10844796180E+04  0.37589348958E+03  0.15081978735E+04  0.00000000000E+00 0.  1.
<mgrwt>
<rscale>  0 0.34552052E+04</rscale>
<asrwt>0</asrwt>
<pdfrwt beam="1">  1        2 0.62126077E+00 0.34552052E+04</pdfrwt>
<pdfrwt beam="2">  1       -2 0.11370696E+00 0.34552052E+04</pdfrwt>
<totfact> 0.15876875E-01</totfact>
</mgrwt>
</event>
<event>
 6    1  0.1773638E-005  0.3015597E+04  0.7818608E-02  0.8239291E-01
          1   -1    0    0  501    0  0.00000000000E+00  0.00000000000E+00  0.27779661397E+04  0.27779661397E+04  0.00000000000E+00 0. -1.
         -1   -1    0    0    0  501 -0.00000000000E+00 -0.00000000000E+00 -0.81838869416E+03  0.81838869416E+03  0.00000000000E+00 0.  1.
         23    2    1    2    0    0 -0.11821857711E+04 -0.12911921177E+03 -0.12182683002E+03  0.11991734209E+04  0.94552359740E+02 0.  0.
         13    1    3    3    0    0 -0.99569312280E+03 -0.13942659156E+03 -0.11849579053E+03  0.10123664463E+04  0.00000000000E+00 0.  1.
        -13    1    3    3    0    0 -0.18649264828E+03  0.10307379796E+02 -0.33310394856E+01  0.18680697462E+03  0.00000000000E+00 0. -1.
         22    1    1    2    0    0  0.11821857711E+04  0.12911921177E+03  0.20814042755E+04  0.23971814129E+04  0.00000000000E+00 0. -1.
<mgrwt>
<rscale>  0 0.30155968E+04</rscale>
<asrwt>0</asrwt>
<pdfrwt beam="1">  1        1 0.42737940E+00 0.30155968E+04</pdfrwt>
<pdfrwt beam="2">  1       -1 0.12590595E+00 0.30155968E+04</pdfrwt>
<totfact> 0.40340305E-01</totfact>
</mgrwt>
</event>
<event>
 6    1  0.1773638E-005  0.2344631E+04  0.7818608E-02  0.8460529E-01
          2   -1    0    0  501    0  0.00000000000E+00  0.00000000000E+00  0.28489532838E+04  0.28489532838E+04  0.00000000000E+00 0. -1.
         -2   -1    0    0    0  501 -0.00000000000E+00 -0.00000000000E+00 -0.48239593431E+03  0.48239593431E+03  0.00000000000E+00 0.  1.
         23    2    1    2    0    0 -0.95080099732E+03 -0.68297508840E+03  0.12155487675E+04  0.16896128618E+04  0.82190684594E+02 0.  0.
         11    1    3    3    0    0 -0.40871987715E+03 -0.31504190581E+03  0.58900058602E+03  0.78308686027E+03  0.00000000000E+00 0.  1.
        -11    1    3    3    0    0 -0.54208112018E+03 -0.36793318259E+03  0.62654818149E+03  0.90652600152E+03  0.00000000000E+00 0. -1.
         22    1    1    2    0    0  0.95080099732E+03  0.68297508840E+03  0.11510085820E+04  0.16417363563E+04  0.00000000000E+00 0.  1.
<mgrwt>
<rscale>  0 0.23446309E+04</rscale>
<asrwt>0</asrwt>
<pdfrwt beam="1">  1        2 0.43830050E+00 0.23446309E+04</pdfrwt>
<pdfrwt beam="2">  1       -2 0.74214761E-01 0.23446309E+04</pdfrwt>
<totfact> 0.31891290E+00</totfact>
</mgrwt>
</event>
<event>
 6    1  0.1773638E-005  0.1305271E+04  0.7818608E-02  0.9025396E-01
         -2   -1    0    0    0  501 -0.00000000000E+00  0.00000000000E+00  0.19325417438E+03  0.19325417438E+03  0.00000000000E+00 0.  1.
          2   -1    0    0  501    0  0.00000000000E+00 -0.00000000000E+00 -0.22040033073E+04  0.22040033073E+04  0.00000000000E+00 0. -1.
         23    2    1    2    0    0 -0.44572558725E+03 -0.36947815486E+03 -0.15508923340E+04  0.16578971625E+04  0.90391170674E+02 0.  0.
         13    1    3    3    0    0 -0.15595305468E+03 -0.12537292807E+03 -0.66314115321E+03  0.69267302202E+03  0.00000000000E+00 0. -1.
        -13    1    3    3    0    0 -0.28977253257E+03 -0.24410522679E+03 -0.88775118080E+03  0.96522414049E+03  0.00000000000E+00 0.  1.
         22    1    1    2    0    0  0.44572558725E+03  0.36947815486E+03 -0.45985679893E+03  0.73936031917E+03  0.00000000000E+00 0.  1.
<mgrwt>
<rscale>  0 0.13052706E+04</rscale>
<asrwt>0</asrwt>
<pdfrwt beam="1">  1        2 0.33907742E+00 0.13052706E+04</pdfrwt>
<pdfrwt beam="2">  1       -2 0.29731412E-01 0.13052706E+04</pdfrwt>
<totfact> 0.52599657E+01</totfact>
</mgrwt>
</event>
<event>
 6    1  0.1773638E-005  0.1467131E+04  0.7818608E-02  0.8906610E-01
         -2   -1    0    0    0  501 -0.00000000000E+00  0.00000000000E+00  0.31839102908E+03  0.31839102908E+03  0.00000000000E+00 0.  1.
          2   -1    0    0  501    0  0.00000000000E+00 -0.00000000000E+00 -0.16901172329E+04  0.16901172329E+04  0.00000000000E+00 0. -1.
         23    2    1    2    0    0  0.44931120721E+03  0.19900124161E+03 -0.14285614534E+04  0.15138242207E+04  0.96922081513E+02 0.  0.
         13    1    3    3    0    0  0.65249703157E+02  0.34340481078E+02 -0.33791644906E+03  0.34586748756E+03  0.00000000000E+00 0.  1.
        -13    1    3    3    0    0  0.38406150405E+03  0.16466076053E+03 -0.10906450043E+04  0.11679567331E+04  0.00000000000E+00 0. -1.
         22    1    1    2    0    0 -0.44931120721E+03 -0.19900124161E+03  0.56835249613E+02  0.49468404127E+03  0.00000000000E+00 0.  1.
<mgrwt>
<rscale>  0 0.14671308E+04</rscale>
<asrwt>0</asrwt>
<pdfrwt beam="1">  1        2 0.26001804E+00 0.14671308E+04</pdfrwt>
<pdfrwt beam="2">  1       -2 0.48983235E-01 0.14671308E+04</pdfrwt>
<totfact> 0.37955743E+01</totfact>
</mgrwt>
</event>
<event>
 6    1  0.1773638E-005  0.1046767E+04  0.7818608E-02  0.9258688E-01
          2   -1    0    0  501    0  0.00000000000E+00  0.00000000000E+00  0.82074830802E+03  0.82074830802E+03  0.00000000000E+00 0. -1.
         -2   -1    0    0    0  501 -0.00000000000E+00 -0.00000000000E+00 -0.33375677954E+03  0.33375677954E+03  0.00000000000E+00 0.  1.
         23    2    1    2    0    0 -0.30261028824E+03 -0.37210689084E+02 -0.21854951457E+03  0.38590520117E+03  0.90561095610E+02 0.  0.
         13    1    3    3    0    0 -0.19469518827E+03 -0.42176064143E+02 -0.91743054207E+02  0.21932128195E+03  0.00000000000E+00 0.  1.
        -13    1    3    3    0    0 -0.10791509997E+03  0.49653750591E+01 -0.12680646037E+03  0.16658391922E+03  0.00000000000E+00 0. -1.
         22    1    1    2    0    0  0.30261028824E+03  0.37210689084E+02  0.70554104306E+03  0.76859988639E+03  0.00000000000E+00 0. -1.
<mgrwt>
<rscale>  0 0.10467670E+04</rscale>
<asrwt>0</asrwt>
<pdfrwt beam="1">  1        2 0.12626897E+00 0.10467670E+04</pdfrwt>
<pdfrwt beam="2">  1       -2 0.51347197E-01 0.10467670E+04</pdfrwt>
<totfact> 0.11879281E+02</totfact>
</mgrwt>
</event>
<event>
 6    1  0.1773638E-005  0.4041452E+04  0.7818608E-02  0.7996236E-01
          2   -1    0    0  501    0  0.00000000000E+00  0.00000000000E+00  0.33937768449E+04  0.33937768449E+04  0.00000000000E+00 0. -1.
         -2   -1    0    0    0  501 -0.00000000000E+00 -0.00000000000E+00 -0.12031827420E+04  0.12031827420E+04  0.00000000000E+00 0.  1.
         23    2    1    2    0    0 -0.10729652254E+04  0.95901170220E+03  0.27077904016E+04  0.30677605053E+04  0.89821150765E+02 0.  0.
         11    1    3    3    0    0 -0.26279211150E+03  0.27420325276E+03  0.77154368471E+03  0.85995742633E+03  0.00000000000E+00 0. -1.
        -11    1    3    3    0    0 -0.81017311389E+03  0.68480844944E+03  0.19362467169E+04  0.22078030790E+04  0.00000000000E+00 0.  1.
         22    1    1    2    0    0  0.10729652254E+04 -0.95901170220E+03 -0.51719629872E+03  0.15291990816E+04  0.00000000000E+00 0.  1.
<mgrwt>
<rscale>  0 0.40414521E+04</rscale>
<asrwt>0</asrwt>
<pdfrwt beam="1">  1        2 0.52211951E+00 0.40414521E+04</pdfrwt>
<pdfrwt beam="2">  1       -2 0.18510504E+00 0.40414521E+04</pdfrwt>
<totfact> 0.12643422E-01</totfact>
</mgrwt>
</event>
<event>
 6    1  0.1773638E-005  0.1495246E+04  0.7818608E-02  0.8887620E-01
          4   -1    0    0  501    0  0.00000000000E+00  0.00000000000E+00  0.65769221556E+03  0.65769221556E+03  0.00000000000E+00 0. -1.
         -4   -1    0    0    0  501 -0.00000000000E+00 -0.00000000000E+00 -0.84985067571E+03  0.84985067571E+03  0.00000000000E+00 0.  1.
         23    2    1    2    0    0  0.15831056206E+03 -0.37321465130E+03 -0.72684064780E+03  0.83654628041E+03  0.84622349087E+02 0.  0.
         13    1    3    3    0    0  0.24610536633E+02 -0.99297737294E+02 -0.25569250407E+03  0.27539857621E+03  0.00000000000E+00 0.  1.
        -13    1    3    3    0    0  0.13370002543E+03 -0.27391691401E+03 -0.47114814373E+03  0.56114770419E+03  0.00000000000E+00 0. -1.
         22    1    1    2    0    0 -0.15831056206E+03  0.37321465130E+03  0.53468218765E+03  0.67099661087E+03  0.00000000000E+00 0. -1.
<mgrwt>
<rscale>  0 0.14952460E+04</rscale>
<asrwt>0</asrwt>
<pdfrwt beam="1">  1        4 0.10118342E+00 0.14952460E+04</pdfrwt>
<pdfrwt beam="2">  1       -4 0.13074626E+00 0.14952460E+04</pdfrwt>
<totfact> 0.66132928E-01</totfact>
</mgrwt>
</event>
<event>
 6    1  0.1773638E-005  0.1729449E+04  0.7818608E-02  0.8744744E-01
          2   -1    0    0  501    0  0.00000000000E+00  0.00000000000E+00  0.24322169972E+04  0.24322169972E+04  0.00000000000E+00 0. -1.
         -2   -1    0    0    0  501 -0.00000000000E+00 -0.00000000000E+00 -0.30743510633E+03  0.30743510633E+03  0.00000000000E+00 0.  1.
         23    2    1    2    0    0  0.54082196309E+03  0.54247798219E+03  0.43812206449E+03  0.88719640181E+03  0.91628352975E+02 0.  0.
         13    1    3    3    0    0  0.30838427419E+03  0.35881492835E+03  0.23730359050E+03  0.52930332271E+03  0.00000000000E+00 0. -1.
        -13    1    3    3    0    0  0.23243768890E+03  0.18366305384E+03  0.20081847399E+03  0.35789307909E+03  0.00000000000E+00 0.  1.
         22    1    1    2    0    0 -0.54082196309E+03 -0.54247798219E+03  0.16866598264E+04  0.18524557017E+04  0.00000000000E+00 0.  1.
<mgrwt>
<rscale>  0 0.17294495E+04</rscale>
<asrwt>0</asrwt>
<pdfrwt beam="1">  1        2 0.37418722E+00 0.17294495E+04</pdfrwt>
<pdfrwt beam="2">  1       -2 0.47297710E-01 0.17294495E+04</pdfrwt>
<totfact> 0.15341109E+01</totfact>
</mgrwt>
</event>
<event>
 6    1  0.1773638E-005  0.1071553E+04  0.7818608E-02  0.9233370E-01
          2   -1    0    0  501    0  0.00000000000E+00  0.00000000000E+00  0.25841051976E+04  0.25841051976E+04  0.00000000000E+00 0. -1.
         -2   -1    0    0    0  501 -0.00000000000E+00 -0.00000000000E+00 -0.11108544156E+03  0.11108544156E+03  0.00000000000E+00 0.  1.
         23    2    1    2    0    0  0.12442733463E+03 -0.42969787597E+03  0.52323571461E+03  0.69474563005E+03  0.93666702812E+02 0.  0.
         13    1    3    3    0    0  0.89130400174E+02 -0.16152499729E+03  0.18009578093E+03  0.25781590970E+03  0.00000000000E+00 0.  1.
        -13    1    3    3    0    0  0.35296934455E+02 -0.26817287868E+03  0.34313993369E+03  0.43692972036E+03  0.00000000000E+00 0. -1.
         22    1    1    2    0    0 -0.12442733463E+03  0.42969787597E+03  0.19497840415E+04  0.20004450091E+04  0.00000000000E+00 0. -1.
<mgrwt>
<rscale>  0 0.10715530E+04</rscale>
<asrwt>0</asrwt>
<pdfrwt beam="1">  1        2 0.39755460E+00 0.10715530E+04</pdfrwt>
<pdfrwt beam="2">  1       -2 0.17090070E-01 0.10715530E+04</pdfrwt>
<totfact> 0.87875710E+01</totfact>
</mgrwt>
</event>
<event>
 6    1  0.1773638E-005  0.7756678E+03  0.7818608E-02  0.9595920E-01
         -2   -1    0    0    0  501 -0.00000000000E+00  0.00000000000E+00  0.24098699882E+03  0.24098699882E+03  0.00000000000E+00 0.  1.
          2   -1    0    0  501    0  0.00000000000E+00 -0.00000000000E+00 -0.62416293410E+03  0.62416293410E+03  0.00000000000E+00 0. -1.
         23    2    1    2    0    0 -0.27830447041E+03 -0.14264339762E+03 -0.43699486229E+03  0.54782203619E+03  0.10650801156E+03 0.  0.
         11    1    3    3    0    0 -0.25834298758E+03 -0.89444966379E+02 -0.35520105452E+03  0.44822906016E+03  0.00000000000E+00 0. -1.
        -11    1    3    3    0    0 -0.19961482830E+02 -0.53198431243E+02 -0.81793807773E+02  0.99592976024E+02  0.00000000000E+00 0.  1.
         22    1    1    2    0    0  0.27830447041E+03  0.14264339762E+03  0.53818927011E+02  0.31732789673E+03  0.00000000000E+00 0.  1.
<mgrwt>
<rscale>  0 0.77566785E+03</rscale>
<asrwt>0</asrwt>
<pdfrwt beam="1">  1        2 0.96025067E-01 0.77566785E+03</pdfrwt>
<pdfrwt beam="2">  1       -2 0.37074923E-01 0.77566785E+03</pdfrwt>
<totfact> 0.32608584E+02</totfact>
</mgrwt>
</event>
<event>
 6    1  0.1773638E-005  0.2957174E+04  0.7818608E-02  0.8256067E-01
          1   -1    0    0  501    0  0.00000000000E+00  0.00000000000E+00  0.11472268658E+04  0.11472268658E+04  0.00000000000E+00 0. -1.
         -1   -1    0    0    0  501 -0.00000000000E+00 -0.00000000000E+00 -0.19056563155E+04  0.19056563155E+04  0.00000000000E+00 0.  1.
         23    2    1    2    0    0 -0.41573725811E+03 -0.12053627402E+04  0.39036422286E+03  0.13366478521E+04  0.92230422866E+02 0.  0.
         11    1    3    3    0    0 -0.17532312354E+03 -0.64882793779E+03  0.21014978710E+03  0.70418663969E+03  0.00000000000E+00 0. -1.
        -11    1    3    3    0    0 -0.24041413457E+03 -0.55653480239E+03  0.18021443576E+03  0.63246121243E+03  0.00000000000E+00 0.  1.
         22    1    1    2    0    0  0.41573725811E+03  0.12053627402E+04 -0.11487936725E+04  0.17162353292E+04  0.00000000000E+00 0.  1.
<mgrwt>
<rscale>  0 0.29571744E+04</rscale>
<asrwt>0</asrwt>
<pdfrwt beam="1">  1        1 0.17649644E+00 0.29571744E+04</pdfrwt>
<pdfrwt beam="2">  1       -1 0.29317789E+00 0.29571744E+04</pdfrwt>
<totfact> 0.36500245E-01</totfact>
</mgrwt>
</event>
<event>
 6    1  0.1773638E-005  0.2256576E+04  0.7818608E-02  0.8495242E-01
         -1   -1    0    0    0  501 -0.00000000000E+00  0.00000000000E+00  0.46163497184E+03  0.46163497184E+03  0.00000000000E+00 0.  1.
          1   -1    0    0  501    0  0.00000000000E+00 -0.00000000000E+00 -0.27576636951E+04  0.27576636951E+04  0.00000000000E+00 0. -1.
         23    2    1    2    0    0  0.99811579295E+03 -0.23136223108E+03 -0.18176528381E+04  0.20885435628E+04  0.91590150570E+02 0.  0.
         13    1    3    3    0    0  0.53199471472E+03 -0.13853473818E+03 -0.88666574566E+03  0.10432575879E+04  0.00000000000E+00 0. -1.
        -13    1    3    3    0    0  0.46612107822E+03 -0.92827492905E+02 -0.93098709242E+03  0.10452859749E+04  0.00000000000E+00 0.  1.
         22    1    1    2    0    0 -0.99811579295E+03  0.23136223108E+03 -0.47837588517E+03  0.11307551042E+04  0.00000000000E+00 0.  1.
<mgrwt>
<rscale>  0 0.22565762E+04</rscale>
<asrwt>0</asrwt>
<pdfrwt beam="1">  1        1 0.42425595E+00 0.22565762E+04</pdfrwt>
<pdfrwt beam="2">  1       -1 0.71020765E-01 0.22565762E+04</pdfrwt>
<totfact> 0.16233844E+00</totfact>
</mgrwt>
</event>
<event>
 6    1  0.1773638E-005  0.2759191E+04  0.7818608E-02  0.8316051E-01
          2   -1    0    0  501    0  0.00000000000E+00  0.00000000000E+00  0.16797617706E+04  0.16797617706E+04  0.00000000000E+00 0.  1.
         -2   -1    0    0    0  501 -0.00000000000E+00 -0.00000000000E+00 -0.11330672800E+04  0.11330672800E+04  0.00000000000E+00 0. -1.
         23    2    1    2    0    0 -0.65215758958E+03  0.10960862239E+04 -0.25797999467E+03  0.13047787998E+04  0.95809742983E+02 0.  0.
         13    1    3    3    0    0 -0.29376660783E+03  0.58174825644E+03 -0.11476940939E+03  0.66174154402E+03  0.00000000000E+00 0.  1.
        -13    1    3    3    0    0 -0.35839098174E+03  0.51433796747E+03 -0.14321058528E+03  0.64303725577E+03  0.00000000000E+00 0. -1.
         22    1    1    2    0    0  0.65215758958E+03 -0.10960862239E+04  0.80467448518E+03  0.15080502508E+04  0.00000000000E+00 0.  1.
<mgrwt>
<rscale>  0 0.27591905E+04</rscale>
<asrwt>0</asrwt>
<pdfrwt beam="1">  1        2 0.25842489E+00 0.27591905E+04</pdfrwt>
<pdfrwt beam="2">  1       -2 0.17431804E+00 0.27591905E+04</pdfrwt>
<totfact> 0.17459480E+00</totfact>
</mgrwt>
</event>
<event>
 6    1  0.1773638E-005  0.1063812E+04  0.7818608E-02  0.9241199E-01
          2   -1    0    0  501    0  0.00000000000E+00  0.00000000000E+00  0.12644661059E+04  0.12644661059E+04  0.00000000000E+00 0.  1.
         -2   -1    0    0    0  501 -0.00000000000E+00 -0.00000000000E+00 -0.22374978302E+03  0.22374978302E+03  0.00000000000E+00 0. -1.
         23    2    1    2    0    0 -0.36365238352E+03  0.38247650033E+03  0.54578827543E+03  0.76469318608E+03  0.91320851409E+02 0.  0.
         11    1    3    3    0    0 -0.16523585196E+03  0.23969128335E+03  0.30032107492E+03  0.41826731419E+03  0.00000000000E+00 0. -1.
        -11    1    3    3    0    0 -0.19841653156E+03  0.14278521698E+03  0.24546720051E+03  0.34642587189E+03  0.00000000000E+00 0.  1.
         22    1    1    2    0    0  0.36365238352E+03 -0.38247650033E+03  0.49492804742E+03  0.72352270280E+03  0.00000000000E+00 0. -1.
<mgrwt>
<rscale>  0 0.10638120E+04</rscale>
<asrwt>0</asrwt>
<pdfrwt beam="1">  1        2 0.19453324E+00 0.10638120E+04</pdfrwt>
<pdfrwt beam="2">  1       -2 0.34423044E-01 0.10638120E+04</pdfrwt>
<totfact> 0.13631497E+02</totfact>
</mgrwt>
</event>
<event>
 6    1  0.1773638E-005  0.3519551E+04  0.7818608E-02  0.8109172E-01
          2   -1    0    0  501    0  0.00000000000E+00  0.00000000000E+00  0.29166919769E+04  0.29166919769E+04  0.00000000000E+00 0. -1.
         -2   -1    0    0    0  501 -0.00000000000E+00 -0.00000000000E+00 -0.10617542059E+04  0.10617542059E+04  0.00000000000E+00 0.  1.
         23    2    1    2    0    0 -0.16723887900E+03  0.13935416306E+04  0.21258836563E+04  0.25489921640E+04  0.89736354225E+02 0.  0.
         11    1    3    3    0    0 -0.28591138387E+02  0.98366886979E+02  0.12721514537E+03  0.16333153663E+03  0.00000000000E+00 0.  1.
        -11    1    3    3    0    0 -0.13864774061E+03  0.12951747437E+04  0.19986685109E+04  0.23856606274E+04  0.00000000000E+00 0. -1.
         22    1    1    2    0    0  0.16723887900E+03 -0.13935416306E+04 -0.27094588529E+03  0.14294540187E+04  0.00000000000E+00 0.  1.
<mgrwt>
<rscale>  0 0.35195511E+04</rscale>
<asrwt>0</asrwt>
<pdfrwt beam="1">  1        2 0.44872184E+00 0.35195511E+04</pdfrwt>
<pdfrwt beam="2">  1       -2 0.16334680E+00 0.35195511E+04</pdfrwt>
<totfact> 0.38290108E-01</totfact>
</mgrwt>
</event>
<event>
 6    1  0.1773638E-005  0.2367807E+04  0.7818608E-02  0.8451656E-01
         -1   -1    0    0    0  501 -0.00000000000E+00  0.00000000000E+00  0.63738169344E+03  0.63738169344E+03  0.00000000000E+00 0.  1.
          1   -1    0    0  501    0  0.00000000000E+00 -0.00000000000E+00 -0.21990387424E+04  0.21990387424E+04  0.00000000000E+00 0. -1.
         23    2    1    2    0    0  0.32137979546E+03  0.14546824456E+03 -0.21335670787E+04  0.21644627993E+04  0.91349587757E+02 0.  0.
         11    1    3    3    0    0  0.23092478046E+03  0.10502118312E+03 -0.17505711330E+04  0.17688569741E+04  0.00000000000E+00 0.  1.
        -11    1    3    3    0    0  0.90455014994E+02  0.40447061437E+02 -0.38299594571E+03  0.39560582522E+03  0.00000000000E+00 0. -1.
         22    1    1    2    0    0 -0.32137979546E+03 -0.14546824456E+03  0.57191002977E+03  0.67195763650E+03  0.00000000000E+00 0.  1.
<mgrwt>
<rscale>  0 0.23678066E+04</rscale>
<asrwt>0</asrwt>
<pdfrwt beam="1">  1        1 0.33831365E+00 0.23678066E+04</pdfrwt>
<pdfrwt beam="2">  1       -1 0.98058723E-01 0.23678066E+04</pdfrwt>
<totfact> 0.19537306E+00</totfact>
</mgrwt>
</event>
<event>
 6    1  0.1773638E-005  0.6447452E+03  0.7818608E-02  0.9816690E-01
         -3   -1    0    0    0  501 -0.00000000000E+00  0.00000000000E+00  0.12588466795E+03  0.12588466795E+03  0.00000000000E+00 0.  1.
          3   -1    0    0  501    0  0.00000000000E+00 -0.00000000000E+00 -0.82555016068E+03  0.82555016068E+03  0.00000000000E+00 0. -1.
         23    2    1    2    0    0  0.69245473124E+02  0.19072931930E+03 -0.35480875732E+01  0.22634721286E+03  0.10023902961E+03 0.  0.
         11    1    3    3    0    0  0.15409335961E+02  0.14813439143E+03 -0.31495687967E+02  0.15222753995E+03  0.00000000000E+00 0. -1.
        -11    1    3    3    0    0  0.53836137163E+02  0.42594927871E+02  0.27947600394E+02  0.74119672913E+02  0.00000000000E+00 0.  1.
         22    1    1    2    0    0 -0.69245473124E+02 -0.19072931930E+03 -0.69611740515E+03  0.72508761577E+03  0.00000000000E+00 0. -1.
<mgrwt>
<rscale>  0 0.64474525E+03</rscale>
<asrwt>0</asrwt>
<pdfrwt beam="1">  1        3 0.12700772E+00 0.64474525E+03</pdfrwt>
<pdfrwt beam="2">  1       -3 0.19366871E-01 0.64474525E+03</pdfrwt>
<totfact> 0.31633557E+01</totfact>
</mgrwt>
</event>
<event>
 6    1  0.1773638E-005  0.5099381E+03  0.7818608E-02  0.1011217E+00
          2   -1    0    0  501    0  0.00000000000E+00  0.00000000000E+00  0.17667540279E+04  0.17667540279E+04  0.00000000000E+00 0. -1.
         -2   -1    0    0    0  501 -0.00000000000E+00 -0.00000000000E+00 -0.36795845076E+02  0.36795845076E+02  0.00000000000E+00 0.  1.
         23    2    1    2    0    0  0.16516426202E+03 -0.36120851341E+01  0.15415345698E+04  0.15529590939E+04  0.89782163379E+02 0.  0.
         11    1    3    3    0    0  0.10060538024E+03  0.26146665574E+02  0.11753937873E+04  0.11799812057E+04  0.00000000000E+00 0.  1.
        -11    1    3    3    0    0  0.64558881782E+02 -0.29758750708E+02  0.36614078245E+03  0.37297788813E+03  0.00000000000E+00 0. -1.
         22    1    1    2    0    0 -0.16516426202E+03  0.36120851341E+01  0.18842361302E+03  0.25059077907E+03  0.00000000000E+00 0.  1.
<mgrwt>
<rscale>  0 0.50993806E+03</rscale>
<asrwt>0</asrwt>
<pdfrwt beam="1">  1        2 0.27180825E+00 0.50993806E+03</pdfrwt>
<pdfrwt beam="2">  1       -2 0.56609006E-02 0.50993806E+03</pdfrwt>
<totfact> 0.15745955E+03</totfact>
</mgrwt>
</event>
<event>
 6    1  0.1773638E-005  0.9745895E+03  0.7818608E-02  0.9336862E-01
          1   -1    0    0  501    0  0.00000000000E+00  0.00000000000E+00  0.94529777483E+03  0.94529777483E+03  0.00000000000E+00 0. -1.
         -1   -1    0    0    0  501 -0.00000000000E+00 -0.00000000000E+00 -0.25119722787E+03  0.25119722787E+03  0.00000000000E+00 0.  1.
         23    2    1    2    0    0  0.71604521006E+02  0.35057083440E+03  0.74677371175E+03  0.83482999244E+03  0.10603311917E+03 0.  0.
         13    1    3    3    0    0  0.95767903521E+02  0.22619088933E+03  0.46534383963E+03  0.52619264423E+03  0.00000000000E+00 0.  1.
        -13    1    3    3    0    0 -0.24163382516E+02  0.12437994507E+03  0.28142987212E+03  0.30863734821E+03  0.00000000000E+00 0. -1.
         22    1    1    2    0    0 -0.71604521006E+02 -0.35057083440E+03 -0.52673164786E+02  0.36166501027E+03  0.00000000000E+00 0.  1.
<mgrwt>
<rscale>  0 0.97458951E+03</rscale>
<asrwt>0</asrwt>
<pdfrwt beam="1">  1        1 0.14543042E+00 0.97458951E+03</pdfrwt>
<pdfrwt beam="2">  1       -1 0.38645728E-01 0.97458951E+03</pdfrwt>
<totfact> 0.10877462E+02</totfact>
</mgrwt>
</event>
<event>
 6    1  0.1773638E-005  0.3836771E+03  0.7818608E-02  0.1049583E+00
         -2   -1    0    0    0  501 -0.00000000000E+00  0.00000000000E+00  0.17887291073E+03  0.17887291073E+03  0.00000000000E+00 0.  1.
          2   -1    0    0  501    0  0.00000000000E+00 -0.00000000000E+00 -0.20574398335E+03  0.20574398335E+03  0.00000000000E+00 0. -1.
         23    2    1    2    0    0 -0.85380583131E+02  0.15129627419E+03 -0.65541320884E+02  0.20663994428E+03  0.90686246299E+02 0.  0.
         13    1    3    3    0    0 -0.92763124718E+02  0.13137764097E+03 -0.27629423762E+02  0.16318231189E+03  0.00000000000E+00 0. -1.
        -13    1    3    3    0    0  0.73825415876E+01  0.19918633216E+02 -0.37911897122E+02  0.43457632389E+02  0.00000000000E+00 0.  1.
         22    1    1    2    0    0  0.85380583131E+02 -0.15129627419E+03  0.38670248267E+02  0.17797694980E+03  0.00000000000E+00 0.  1.
<mgrwt>
<rscale>  0 0.38367708E+03</rscale>
<asrwt>0</asrwt>
<pdfrwt beam="1">  1        2 0.31652920E-01 0.38367708E+03</pdfrwt>
<pdfrwt beam="2">  1       -2 0.27518910E-01 0.38367708E+03</pdfrwt>
<totfact> 0.19897707E+03</totfact>
</mgrwt>
</event>
<event>
 6    1  0.1773638E-005  0.4202705E+04  0.7818608E-02  0.7964858E-01
         -2   -1    0    0    0  501 -0.00000000000E+00  0.00000000000E+00  0.24724416541E+04  0.24724416541E+04  0.00000000000E+00 0.  1.
          2   -1    0    0  501    0  0.00000000000E+00 -0.00000000000E+00 -0.17859605098E+04  0.17859605098E+04  0.00000000000E+00 0. -1.
         23    2    1    2    0    0 -0.94509036940E+03  0.40949522578E+03  0.21981840324E+04  0.24291597612E+04  0.89005384564E+02 0.  0.
         13    1    3    3    0    0 -0.64174994986E+03  0.32255114942E+03  0.15351047794E+04  0.16948241578E+04  0.00000000000E+00 0. -1.
        -13    1    3    3    0    0 -0.30334041955E+03  0.86944076363E+02  0.66307925309E+03  0.73433560340E+03  0.00000000000E+00 0.  1.
         22    1    1    2    0    0  0.94509036940E+03 -0.40949522578E+03 -0.15117028880E+04  0.18292424027E+04  0.00000000000E+00 0. -1.
<mgrwt>
<rscale>  0 0.42027054E+04</rscale>
<asrwt>0</asrwt>
<pdfrwt beam="1">  1        2 0.27476315E+00 0.42027054E+04</pdfrwt>
<pdfrwt beam="2">  1       -2 0.38037564E+00 0.42027054E+04</pdfrwt>
<totfact> 0.67866158E-02</totfact>
</mgrwt>
</event>
<event>
 6    1  0.1773638E-005  0.7524278E+03  0.7818608E-02  0.9631549E-01
         -2   -1    0    0    0  501 -0.00000000000E+00  0.00000000000E+00  0.54049949060E+02  0.54049949060E+02  0.00000000000E+00 0. -1.
          2   -1    0    0  501    0  0.00000000000E+00 -0.00000000000E+00 -0.26186314704E+04  0.26186314704E+04  0.00000000000E+00 0.  1.
         23    2    1    2    0    0  0.31777334206E+01 -0.34015306678E+03 -0.18236481880E+04  0.18573922614E+04  0.92190521277E+02 0.  0.
         13    1    3    3    0    0 -0.16947144177E+02 -0.28823139735E+02 -0.31856633102E+03  0.32031622865E+03  0.00000000000E+00 0.  1.
        -13    1    3    3    0    0  0.20124877597E+02 -0.31132992704E+03 -0.15050818570E+04  0.15370760327E+04  0.00000000000E+00 0. -1.
         22    1    1    2    0    0 -0.31777334206E+01  0.34015306678E+03 -0.74093333334E+03  0.81528915808E+03  0.00000000000E+00 0. -1.
<mgrwt>
<rscale>  0 0.75242780E+03</rscale>
<asrwt>0</asrwt>
<pdfrwt beam="1">  1        2 0.40286635E+00 0.75242780E+03</pdfrwt>
<pdfrwt beam="2">  1       -2 0.83153775E-02 0.75242780E+03</pdfrwt>
<totfact> 0.28583050E+02</totfact>
</mgrwt>
</event>
<event>
 6    1  0.1773638E-005  0.1887460E+04  0.7818608E-02  0.8661124E-01
         -1   -1    0    0    0  501 -0.00000000000E+00  0.00000000000E+00  0.10634148591E+04  0.10634148591E+04  0.00000000000E+00 0.  1.
          1   -1    0    0  501    0  0.00000000000E+00 -0.00000000000E+00 -0.83751502616E+03  0.83751502616E+03  0.00000000000E+00 0. -1.
         23    2    1    2    0    0  0.16158503924E+02  0.25310968990E+03  0.10262313315E+04  0.10613727878E+04  0.95057018182E+02 0.  0.
         13    1    3    3    0    0  0.48988083861E+02  0.74553365676E+02  0.35152905648E+03  0.36267163419E+03  0.00000000000E+00 0. -1.
        -13    1    3    3    0    0 -0.32829579936E+02  0.17855632423E+03  0.67470227497E+03  0.69870115363E+03  0.00000000000E+00 0.  1.
         22    1    1    2    0    0 -0.16158503924E+02 -0.25310968990E+03 -0.80033149851E+03  0.83955709745E+03  0.00000000000E+00 0. -1.
<mgrwt>
<rscale>  0 0.18874596E+04</rscale>
<asrwt>0</asrwt>
<pdfrwt beam="1">  1        1 0.12884847E+00 0.18874596E+04</pdfrwt>
<pdfrwt beam="2">  1       -1 0.16360229E+00 0.18874596E+04</pdfrwt>
<totfact> 0.52767537E+00</totfact>
</mgrwt>
</event>
<event>
 6    1  0.1773638E-005  0.1463688E+04  0.7818608E-02  0.8908966E-01
         -1   -1    0    0    0  501 -0.00000000000E+00  0.00000000000E+00  0.46652279558E+03  0.46652279558E+03  0.00000000000E+00 0.  1.
          1   -1    0    0  501    0  0.00000000000E+00 -0.00000000000E+00 -0.11480588904E+04  0.11480588904E+04  0.00000000000E+00 0. -1.
         23    2    1    2    0    0 -0.21258678123E+03 -0.31661249065E+03  0.34312700723E+03  0.52125141497E+03  0.92359545988E+02 0.  0.
         13    1    3    3    0    0 -0.16624004322E+03 -0.17173377957E+03  0.22978704595E+03  0.33155743017E+03  0.00000000000E+00 0.  1.
        -13    1    3    3    0    0 -0.46346738005E+02 -0.14487871107E+03  0.11333996128E+03  0.18969398480E+03  0.00000000000E+00 0. -1.
         22    1    1    2    0    0  0.21258678123E+03  0.31661249065E+03 -0.10246631020E+04  0.10933302710E+04  0.00000000000E+00 0. -1.
<mgrwt>
<rscale>  0 0.14636880E+04</rscale>
<asrwt>0</asrwt>
<pdfrwt beam="1">  1        1 0.17662444E+00 0.14636880E+04</pdfrwt>
<pdfrwt beam="2">  1       -1 0.71772739E-01 0.14636880E+04</pdfrwt>
<totfact> 0.22188430E+01</totfact>
</mgrwt>
</event>
<event>
 6    1  0.1773638E-005  0.3251078E+04  0.7818608E-02  0.8175456E-01
         -2   -1    0    0    0  501 -0.00000000000E+00  0.00000000000E+00  0.31442581422E+04  0.31442581422E+04  0.00000000000E+00 0.  1.
          2   -1    0    0  501    0  0.00000000000E+00 -0.00000000000E+00 -0.84038154041E+03  0.84038154041E+03  0.00000000000E+00 0. -1.
         23    2    1    2    0    0 -0.68341890387E+02 -0.10331674233E+04 -0.38103854073E+03  0.11069887550E+04  0.90156506602E+02 0.  0.
         11    1    3    3    0    0 -0.54114960484E+02 -0.82706732001E+03 -0.34260321559E+03  0.89685324558E+03  0.00000000000E+00 0. -1.
        -11    1    3    3    0    0 -0.14226929904E+02 -0.20610010329E+03 -0.38435325133E+02  0.21013550944E+03  0.00000000000E+00 0.  1.
         22    1    1    2    0    0  0.68341890387E+02  0.10331674233E+04  0.26849151425E+04  0.28776509276E+04  0.00000000000E+00 0.  1.
<mgrwt>
<rscale>  0 0.32510777E+04</rscale>
<asrwt>0</asrwt>
<pdfrwt beam="1">  1        2 0.12928947E+00 0.32510777E+04</pdfrwt>
<pdfrwt beam="2">  1       -2 0.48373201E+00 0.32510777E+04</pdfrwt>
<totfact> 0.56373629E-02</totfact>
</mgrwt>
</event>
<event>
 6    1  0.1773638E-005  0.1061509E+04  0.7818608E-02  0.9243542E-01
         -2   -1    0    0    0  501 -0.00000000000E+00  0.00000000000E+00  0.94267551779E+03  0.94267551779E+03  0.00000000000E+00 0.  1.
          2   -1    0    0  501    0  0.00000000000E+00 -0.00000000000E+00 -0.29883070154E+03  0.29883070154E+03  0.00000000000E+00 0. -1.
         23    2    1    2    0    0 -0.42941928048E+03 -0.59404128589E+02 -0.27973285909E+02  0.44196301766E+03  0.81357453946E+02 0.  0.
         13    1    3    3    0    0 -0.21177622047E+03  0.72095476905E+00  0.14239841456E+02  0.21225564873E+03  0.00000000000E+00 0.  1.
        -13    1    3    3    0    0 -0.21764306001E+03 -0.60125083358E+02 -0.42213127365E+02  0.22970736893E+03  0.00000000000E+00 0. -1.
         22    1    1    2    0    0  0.42941928048E+03  0.59404128589E+02  0.67181810216E+03  0.79954320166E+03  0.00000000000E+00 0.  1.
<mgrwt>
<rscale>  0 0.10615091E+04</rscale>
<asrwt>0</asrwt>
<pdfrwt beam="1">  1        2 0.45973954E-01 0.10615091E+04</pdfrwt>
<pdfrwt beam="2">  1       -2 0.14502700E+00 0.10615091E+04</pdfrwt>
<totfact> 0.35901743E+01</totfact>
</mgrwt>
</event>
<event>
 6    1  0.1773638E-005  0.1734957E+04  0.7818608E-02  0.8741675E-01
         -1   -1    0    0    0  501 -0.00000000000E+00  0.00000000000E+00  0.84707809616E+03  0.84707809616E+03  0.00000000000E+00 0.  1.
          1   -1    0    0  501    0  0.00000000000E+00 -0.00000000000E+00 -0.88837014797E+03  0.88837014797E+03  0.00000000000E+00 0. -1.
         23    2    1    2    0    0 -0.30410398029E+03 -0.23408538990E+03 -0.79612482610E+03  0.88866154270E+03  0.92894553864E+02 0.  0.
         13    1    3    3    0    0 -0.26162227913E+03 -0.15521558694E+03 -0.64120198152E+03  0.70970280855E+03  0.00000000000E+00 0. -1.
        -13    1    3    3    0    0 -0.42481701165E+02 -0.78869802954E+02 -0.15492284458E+03  0.17895873414E+03  0.00000000000E+00 0.  1.
         22    1    1    2    0    0  0.30410398029E+03  0.23408538990E+03  0.75483277428E+03  0.84678670143E+03  0.00000000000E+00 0.  1.
<mgrwt>
<rscale>  0 0.17349569E+04</rscale>
<asrwt>0</asrwt>
<pdfrwt beam="1">  1        1 0.13667233E+00 0.17349569E+04</pdfrwt>
<pdfrwt beam="2">  1       -1 0.13031971E+00 0.17349569E+04</pdfrwt>
<totfact> 0.88974974E+00</totfact>
</mgrwt>
</event>
<event>
 6    1  0.1773638E-005  0.3791624E+04  0.7818608E-02  0.8047955E-01
          1   -1    0    0  501    0  0.00000000000E+00  0.00000000000E+00  0.19823218514E+04  0.19823218514E+04  0.00000000000E+00 0. -1.
         -1   -1    0    0    0  501 -0.00000000000E+00 -0.00000000000E+00 -0.18130774122E+04  0.18130774122E+04  0.00000000000E+00 0.  1.
         23    2    1    2    0    0  0.16258579630E+04 -0.21933788646E+03  0.10334426351E+04  0.19411172607E+04  0.91702320258E+02 0.  0.
         11    1    3    3    0    0  0.10519702741E+04 -0.10870575730E+03  0.69973058296E+03  0.12681014502E+04  0.00000000000E+00 0. -1.
        -11    1    3    3    0    0  0.57388768891E+03 -0.11063212916E+03  0.33371205215E+03  0.67301581054E+03  0.00000000000E+00 0.  1.
         22    1    1    2    0    0 -0.16258579630E+04  0.21933788646E+03 -0.86419819597E+03  0.18542820029E+04  0.00000000000E+00 0.  1.
<mgrwt>
<rscale>  0 0.37916239E+04</rscale>
<asrwt>0</asrwt>
<pdfrwt beam="1">  1        1 0.30497259E+00 0.37916239E+04</pdfrwt>
<pdfrwt beam="2">  1       -1 0.27893499E+00 0.37916239E+04</pdfrwt>
<totfact> 0.11030330E-01</totfact>
</mgrwt>
</event>
<event>
 6    1  0.1773638E-005  0.2134495E+04  0.7818608E-02  0.8546199E-01
         -2   -1    0    0    0  501 -0.00000000000E+00  0.00000000000E+00  0.67149523862E+03  0.67149523862E+03  0.00000000000E+00 0.  1.
          2   -1    0    0  501    0  0.00000000000E+00 -0.00000000000E+00 -0.16962396435E+04  0.16962396435E+04  0.00000000000E+00 0. -1.
         23    2    1    2    0    0  0.18523346028E+03  0.97406489756E+03 -0.94545595045E+03  0.13730487415E+04  0.90895724823E+02 0.  0.
         11    1    3    3    0    0  0.53017250190E+01  0.15774696425E+03 -0.18269788848E+03  0.24143473544E+03  0.00000000000E+00 0. -1.
        -11    1    3    3    0    0  0.17993173526E+03  0.81631793331E+03 -0.76275806197E+03  0.11316140061E+04  0.00000000000E+00 0.  1.
         22    1    1    2    0    0 -0.18523346028E+03 -0.97406489756E+03 -0.79288454471E+02  0.99468614069E+03  0.00000000000E+00 0.  1.
<mgrwt>
<rscale>  0 0.21344946E+04</rscale>
<asrwt>0</asrwt>
<pdfrwt beam="1">  1        2 0.26095994E+00 0.21344946E+04</pdfrwt>
<pdfrwt beam="2">  1       -2 0.10330696E+00 0.21344946E+04</pdfrwt>
<totfact> 0.69217787E+00</totfact>
</mgrwt>
</event>
<event>
 6    1  0.1971860E-005  0.2863815E+04  0.7818608E-02  0.8283726E-01
         -2   -1    0    0    0  501 -0.00000000000E+00  0.00000000000E+00  0.12112047826E+04  0.12112047826E+04  0.00000000000E+00 0.  1.
          2   -1    0    0  501    0  0.00000000000E+00 -0.00000000000E+00 -0.16928257392E+04  0.16928257392E+04  0.00000000000E+00 0. -1.
         23    2    1    2    0    0 -0.69469228355E+03 -0.55767210702E+03  0.89387280768E+03  0.12652570037E+04  0.90945815423E+02 0.  0.
         11    1    3    3    0    0 -0.35203259681E+03 -0.31385622251E+03  0.41822052047E+03  0.63034996737E+03  0.00000000000E+00 0.  1.
        -11    1    3    3    0    0 -0.34265968674E+03 -0.24381588452E+03  0.47565228721E+03  0.63490703634E+03  0.00000000000E+00 0. -1.
         22    1    1    2    0    0  0.69469228355E+03  0.55767210702E+03 -0.13754937643E+04  0.16387735181E+04  0.00000000000E+00 0. -1.
<mgrwt>
<rscale>  0 0.28638147E+04</rscale>
<asrwt>0</asrwt>
<pdfrwt beam="1">  1        2 0.26043473E+00 0.28638147E+04</pdfrwt>
<pdfrwt beam="2">  1       -2 0.18633920E+00 0.28638147E+04</pdfrwt>
<totfact> 0.14059239E+00</totfact>
</mgrwt>
</event>
<event>
 6    1  0.1773638E-005  0.5837559E+04  0.7818608E-02  0.7710875E-01
          2   -1    0    0  501    0  0.00000000000E+00  0.00000000000E+00  0.37415739083E+04  0.37415739083E+04  0.00000000000E+00 0. -1.
         -2   -1    0    0    0  501 -0.00000000000E+00 -0.00000000000E+00 -0.22769222467E+04  0.22769222467E+04  0.00000000000E+00 0.  1.
         23    2    1    2    0    0 -0.78674765402E+03 -0.99850900001E+02  0.36278487197E+04  0.37145075298E+04  0.85660858763E+02 0.  0.
         11    1    3    3    0    0 -0.65544321363E+03 -0.98795753876E+02  0.28874552382E+04  0.29625604061E+04  0.00000000000E+00 0.  1.
        -11    1    3    3    0    0 -0.13130444039E+03 -0.10551461256E+01  0.74039348149E+03  0.75194712370E+03  0.00000000000E+00 0. -1.
         22    1    1    2    0    0  0.78674765402E+03  0.99850900001E+02 -0.21631970580E+04  0.23039886252E+04  0.00000000000E+00 0.  1.
<mgrwt>
<rscale>  0 0.58375587E+04</rscale>
<asrwt>0</asrwt>
<pdfrwt beam="1">  1        2 0.57562676E+00 0.58375587E+04</pdfrwt>
<pdfrwt beam="2">  1       -2 0.35029573E+00 0.58375587E+04</pdfrwt>
<totfact> 0.57207911E-03</totfact>
</mgrwt>
</event>
<event>
 6    1  0.1773638E-005  0.2556240E+04  0.7818608E-02  0.8383219E-01
         -2   -1    0    0    0  501 -0.00000000000E+00  0.00000000000E+00  0.63387619370E+03  0.63387619370E+03  0.00000000000E+00 0.  1.
          2   -1    0    0  501    0  0.00000000000E+00 -0.00000000000E+00 -0.25771457827E+04  0.25771457827E+04  0.00000000000E+00 0. -1.
         23    2    1    2    0    0  0.89418299193E+03  0.36771813042E+03  0.74026292657E+02  0.97400107336E+03  0.91751579789E+02 0.  0.
         13    1    3    3    0    0  0.12497218153E+03  0.86342980191E+02  0.19238157770E+02  0.15311192997E+03  0.00000000000E+00 0. -1.
        -13    1    3    3    0    0  0.76921081040E+03  0.28137515023E+03  0.54788134886E+02  0.82088914338E+03  0.00000000000E+00 0.  1.
         22    1    1    2    0    0 -0.89418299193E+03 -0.36771813042E+03 -0.20172958816E+04  0.22370209030E+04  0.00000000000E+00 0. -1.
<mgrwt>
<rscale>  0 0.25562405E+04</rscale>
<asrwt>0</asrwt>
<pdfrwt beam="1">  1        2 0.39648396E+00 0.25562405E+04</pdfrwt>
<pdfrwt beam="2">  1       -2 0.97519415E-01 0.25562405E+04</pdfrwt>
<totfact> 0.24417437E+00</totfact>
</mgrwt>
</event>
<event>
 6    1  0.1773638E-005  0.7533634E+03  0.7818608E-02  0.9630088E-01
          2   -1    0    0  501    0  0.00000000000E+00  0.00000000000E+00  0.41748734059E+03  0.41748734059E+03  0.00000000000E+00 0. -1.
         -2   -1    0    0    0  501 -0.00000000000E+00 -0.00000000000E+00 -0.33986447753E+03  0.33986447753E+03  0.00000000000E+00 0.  1.
         23    2    1    2    0    0 -0.25186551043E+03  0.22581417177E+03 -0.11411350369E+03  0.36851880787E+03  0.91410855537E+02 0.  0.
         11    1    3    3    0    0 -0.11520182389E+03  0.14103795861E+03 -0.22661321046E+02  0.18351212894E+03  0.00000000000E+00 0. -1.
        -11    1    3    3    0    0 -0.13666368655E+03  0.84776213164E+02 -0.91452182649E+02  0.18500667894E+03  0.00000000000E+00 0.  1.
         22    1    1    2    0    0  0.25186551043E+03 -0.22581417177E+03  0.19173636676E+03  0.38883301025E+03  0.00000000000E+00 0. -1.
<mgrwt>
<rscale>  0 0.75336344E+03</rscale>
<asrwt>0</asrwt>
<pdfrwt beam="1">  1        2 0.64228822E-01 0.75336344E+03</pdfrwt>
<pdfrwt beam="2">  1       -2 0.52286843E-01 0.75336344E+03</pdfrwt>
<totfact> 0.26376568E+02</totfact>
</mgrwt>
</event>
<event>
 6    1  0.1773638E-005  0.2231749E+04  0.7818608E-02  0.8505329E-01
          2   -1    0    0  501    0  0.00000000000E+00  0.00000000000E+00  0.11485352551E+04  0.11485352551E+04  0.00000000000E+00 0. -1.
         -2   -1    0    0    0  501 -0.00000000000E+00 -0.00000000000E+00 -0.10841422480E+04  0.10841422480E+04  0.00000000000E+00 0.  1.
         23    2    1    2    0    0  0.64862690339E+03 -0.44669137570E+03  0.82069252993E+03  0.11407805240E+04  0.87143159562E+02 0.  0.
         11    1    3    3    0    0  0.10235207403E+03 -0.94231034933E+02  0.10804817053E+03  0.17615289427E+03  0.00000000000E+00 0. -1.
        -11    1    3    3    0    0  0.54627482936E+03 -0.35246034076E+03  0.71264435940E+03  0.96462762970E+03  0.00000000000E+00 0.  1.
         22    1    1    2    0    0 -0.64862690339E+03  0.44669137570E+03 -0.75629952282E+03  0.10918969792E+04  0.00000000000E+00 0.  1.
<mgrwt>
<rscale>  0 0.22317487E+04</rscale>
<asrwt>0</asrwt>
<pdfrwt beam="1">  1        2 0.17669773E+00 0.22317487E+04</pdfrwt>
<pdfrwt beam="2">  1       -2 0.16679112E+00 0.22317487E+04</pdfrwt>
<totfact> 0.41678010E+00</totfact>
</mgrwt>
</event>
<event>
 6    1  0.1773638E-005  0.1659409E+04  0.7818608E-02  0.8784860E-01
         -1   -1    0    0    0  501 -0.00000000000E+00  0.00000000000E+00  0.14197113173E+04  0.14197113173E+04  0.00000000000E+00 0.  1.
          1   -1    0    0  501    0  0.00000000000E+00 -0.00000000000E+00 -0.48489394360E+03  0.48489394360E+03  0.00000000000E+00 0. -1.
         23    2    1    2    0    0  0.69713891995E+03  0.20388509389E+03  0.92488199773E+03  0.11781959294E+04  0.71882773415E+02 0.  0.
         11    1    3    3    0    0  0.71004488560E+02  0.13644879178E+02  0.12843733255E+03  0.14739053062E+03  0.00000000000E+00 0. -1.
        -11    1    3    3    0    0  0.62613443139E+03  0.19024021471E+03  0.79644466518E+03  0.10308053988E+04  0.00000000000E+00 0.  1.
         22    1    1    2    0    0 -0.69713891995E+03 -0.20388509389E+03  0.99353759859E+01  0.72640933152E+03  0.00000000000E+00 0. -1.
<mgrwt>
<rscale>  0 0.16594088E+04</rscale>
<asrwt>0</asrwt>
<pdfrwt beam="1">  1        1 0.74599069E-01 0.16594088E+04</pdfrwt>
<pdfrwt beam="2">  1       -1 0.21841712E+00 0.16594088E+04</pdfrwt>
<totfact> 0.49784509E+00</totfact>
</mgrwt>
</event>
<event>
 6    1  0.1773638E-005  0.2592754E+04  0.7818608E-02  0.8370666E-01
         -2   -1    0    0    0  501 -0.00000000000E+00  0.00000000000E+00  0.64511860274E+03  0.64511860274E+03  0.00000000000E+00 0.  1.
          2   -1    0    0  501    0  0.00000000000E+00 -0.00000000000E+00 -0.26050930137E+04  0.26050930137E+04  0.00000000000E+00 0. -1.
         23    2    1    2    0    0 -0.10882865199E+04  0.39147460283E+03 -0.17108697883E+04  0.20671338392E+04  0.91361712613E+02 0.  0.
         11    1    3    3    0    0 -0.32937169137E+03  0.74748989434E+02 -0.48885808130E+03  0.59418460612E+03  0.00000000000E+00 0. -1.
        -11    1    3    3    0    0 -0.75891482852E+03  0.31672561340E+03 -0.12220117070E+04  0.14729492331E+04  0.00000000000E+00 0.  1.
         22    1    1    2    0    0  0.10882865199E+04 -0.39147460283E+03 -0.24910462267E+03  0.11830777773E+04  0.00000000000E+00 0.  1.
<mgrwt>
<rscale>  0 0.25927545E+04</rscale>
<asrwt>0</asrwt>
<pdfrwt beam="1">  1        2 0.40078354E+00 0.25927545E+04</pdfrwt>
<pdfrwt beam="2">  1       -2 0.99249017E-01 0.25927545E+04</pdfrwt>
<totfact> 0.22488892E+00</totfact>
</mgrwt>
</event>
<event>
 6    1  0.1773638E-005  0.2421614E+04  0.7818608E-02  0.8431456E-01
          2   -1    0    0  501    0  0.00000000000E+00  0.00000000000E+00  0.72976502334E+03  0.72976502334E+03  0.00000000000E+00 0. -1.
         -2   -1    0    0    0  501 -0.00000000000E+00 -0.00000000000E+00 -0.20089389044E+04  0.20089389044E+04  0.00000000000E+00 0.  1.
         23    2    1    2    0    0  0.11738314913E+04  0.27531578694E+03 -0.53859261916E+03  0.13237340490E+04  0.92253295358E+02 0.  0.
         13    1    3    3    0    0  0.19789922842E+03  0.40744765530E+02 -0.53952256055E+02  0.20912935341E+03  0.00000000000E+00 0. -1.
        -13    1    3    3    0    0  0.97593226285E+03  0.23457102141E+03 -0.48464036310E+03  0.11146046955E+04  0.00000000000E+00 0.  1.
         22    1    1    2    0    0 -0.11738314913E+04 -0.27531578694E+03 -0.74058126194E+03  0.14149698788E+04  0.00000000000E+00 0.  1.
<mgrwt>
<rscale>  0 0.24216138E+04</rscale>
<asrwt>0</asrwt>
<pdfrwt beam="1">  1        2 0.11227154E+00 0.24216138E+04</pdfrwt>
<pdfrwt beam="2">  1       -2 0.30906752E+00 0.24216138E+04</pdfrwt>
<totfact> 0.97546450E-01</totfact>
</mgrwt>
</event>
<event>
 6    1  0.1773638E-005  0.1951537E+04  0.7818608E-02  0.8629620E-01
         -2   -1    0    0    0  501 -0.00000000000E+00  0.00000000000E+00  0.78158754622E+03  0.78158754622E+03  0.00000000000E+00 0.  1.
          2   -1    0    0  501    0  0.00000000000E+00 -0.00000000000E+00 -0.12181926672E+04  0.12181926672E+04  0.00000000000E+00 0. -1.
         23    2    1    2    0    0  0.49436719144E+03  0.82977898711E+03 -0.34521217173E+03  0.10295819045E+04  0.89080677790E+02 0.  0.
         11    1    3    3    0    0  0.24182802751E+03  0.44361151107E+03 -0.22293269931E+03  0.55224175509E+03  0.00000000000E+00 0.  1.
        -11    1    3    3    0    0  0.25253916393E+03  0.38616747604E+03 -0.12227947242E+03  0.47734014942E+03  0.00000000000E+00 0. -1.
         22    1    1    2    0    0 -0.49436719144E+03 -0.82977898711E+03 -0.91392949228E+02  0.97019830890E+03  0.00000000000E+00 0.  1.
<mgrwt>
<rscale>  0 0.19515371E+04</rscale>
<asrwt>0</asrwt>
<pdfrwt beam="1">  1        2 0.18741426E+00 0.19515371E+04</pdfrwt>
<pdfrwt beam="2">  1       -2 0.12024424E+00 0.19515371E+04</pdfrwt>
<totfact> 0.91043374E+00</totfact>
</mgrwt>
</event>
<event>
 6    1  0.1773638E-005  0.2418854E+04  0.7818608E-02  0.8432479E-01
         -2   -1    0    0    0  501 -0.00000000000E+00  0.00000000000E+00  0.25052608844E+04  0.25052608844E+04  0.00000000000E+00 0.  1.
          2   -1    0    0  501    0  0.00000000000E+00 -0.00000000000E+00 -0.58385676737E+03  0.58385676737E+03  0.00000000000E+00 0. -1.
         23    2    1    2    0    0  0.44290085733E+03  0.37807787684E+03 -0.38912918488E+03  0.70633184739E+03  0.91537455346E+02 0.  0.
         13    1    3    3    0    0  0.12826665986E+02  0.28960062909E+02 -0.45897097337E+01  0.32004281580E+02  0.00000000000E+00 0.  1.
        -13    1    3    3    0    0  0.43007419134E+03  0.34911781393E+03 -0.38453947514E+03  0.67432756581E+03  0.00000000000E+00 0. -1.
         22    1    1    2    0    0 -0.44290085733E+03 -0.37807787684E+03  0.23105333019E+04  0.23827858044E+04  0.00000000000E+00 0.  1.
<mgrwt>
<rscale>  0 0.24188539E+04</rscale>
<asrwt>0</asrwt>
<pdfrwt beam="1">  1        2 0.89824119E-01 0.24188539E+04</pdfrwt>
<pdfrwt beam="2">  1       -2 0.38542475E+00 0.24188539E+04</pdfrwt>
<totfact> 0.42532855E-01</totfact>
</mgrwt>
</event>
<event>
 6    1  0.1773638E-005  0.2970184E+04  0.7818608E-02  0.8252297E-01
         -2   -1    0    0    0  501 -0.00000000000E+00  0.00000000000E+00  0.64313197132E+03  0.64313197132E+03  0.00000000000E+00 0. -1.
          2   -1    0    0  501    0  0.00000000000E+00 -0.00000000000E+00 -0.34293091888E+04  0.34293091888E+04  0.00000000000E+00 0.  1.
         23    2    1    2    0    0 -0.84741090913E+03  0.45846746089E+03 -0.29413909003E+04  0.30965369902E+04  0.91995876658E+02 0.  0.
         11    1    3    3    0    0 -0.31716267180E+03  0.13946911372E+03 -0.11664493770E+04  0.12168187799E+04  0.00000000000E+00 0. -1.
        -11    1    3    3    0    0 -0.53024823733E+03  0.31899834717E+03 -0.17749415233E+04  0.18797182103E+04  0.00000000000E+00 0.  1.
         22    1    1    2    0    0  0.84741090913E+03 -0.45846746089E+03  0.15521368285E+03  0.97590416996E+03  0.00000000000E+00 0. -1.
<mgrwt>
<rscale>  0 0.29701841E+04</rscale>
<asrwt>0</asrwt>
<pdfrwt beam="1">  1        2 0.52758602E+00 0.29701841E+04</pdfrwt>
<pdfrwt beam="2">  1       -2 0.98943382E-01 0.29701841E+04</pdfrwt>
<totfact> 0.66116038E-01</totfact>
</mgrwt>
</event>
<event>
 6    1  0.1773638E-005  0.2634315E+04  0.7818608E-02  0.8356638E-01
         -2   -1    0    0    0  501 -0.00000000000E+00  0.00000000000E+00  0.83797701207E+03  0.83797701207E+03  0.00000000000E+00 0.  1.
          2   -1    0    0  501    0  0.00000000000E+00 -0.00000000000E+00 -0.20703478052E+04  0.20703478052E+04  0.00000000000E+00 0. -1.
         23    2    1    2    0    0 -0.38982283745E+02  0.10939823024E+04  0.18860466205E+03  0.11145890116E+04  0.91760830012E+02 0.  0.
         11    1    3    3    0    0 -0.55611277913E+02  0.98379660199E+03  0.15034690340E+03  0.99677106684E+03  0.00000000000E+00 0.  1.
        -11    1    3    3    0    0  0.16628994168E+02  0.11018570036E+03  0.38257758651E+02  0.11781794476E+03  0.00000000000E+00 0. -1.
         22    1    1    2    0    0  0.38982283745E+02 -0.10939823024E+04 -0.14209754552E+04  0.17937358057E+04  0.00000000000E+00 0.  1.
<mgrwt>
<rscale>  0 0.26343150E+04</rscale>
<asrwt>0</asrwt>
<pdfrwt beam="1">  1        2 0.31851504E+00 0.26343150E+04</pdfrwt>
<pdfrwt beam="2">  1       -2 0.12891954E+00 0.26343150E+04</pdfrwt>
<totfact> 0.23883874E+00</totfact>
</mgrwt>
</event>
<event>
 6    1  0.1773638E-005  0.2404552E+04  0.7818608E-02  0.8437801E-01
         -1   -1    0    0    0  501 -0.00000000000E+00  0.00000000000E+00  0.52350240018E+03  0.52350240018E+03  0.00000000000E+00 0.  1.
          1   -1    0    0  501    0  0.00000000000E+00 -0.00000000000E+00 -0.27611481283E+04  0.27611481283E+04  0.00000000000E+00 0. -1.
         23    2    1    2    0    0  0.64294653365E+03 -0.89903171043E+03 -0.17607188836E+04  0.20808658814E+04  0.90739009423E+02 0.  0.
         13    1    3    3    0    0  0.22061837969E+03 -0.35667020732E+03 -0.73172241649E+03  0.84338828604E+03  0.00000000000E+00 0. -1.
        -13    1    3    3    0    0  0.42232815396E+03 -0.54236150311E+03 -0.10289964671E+04  0.12374775953E+04  0.00000000000E+00 0.  1.
         22    1    1    2    0    0 -0.64294653365E+03  0.89903171043E+03 -0.47692684449E+03  0.12037846471E+04  0.00000000000E+00 0.  1.
<mgrwt>
<rscale>  0 0.24045521E+04</rscale>
<asrwt>0</asrwt>
<pdfrwt beam="1">  1        1 0.42479202E+00 0.24045521E+04</pdfrwt>
<pdfrwt beam="2">  1       -1 0.80538831E-01 0.24045521E+04</pdfrwt>
<totfact> 0.12233649E+00</totfact>
</mgrwt>
</event>
<event>
 6    1  0.1773638E-005  0.2077494E+04  0.7818608E-02  0.8571223E-01
         -2   -1    0    0    0  501 -0.00000000000E+00  0.00000000000E+00  0.91902332936E+03  0.91902332936E+03  0.00000000000E+00 0.  1.
          2   -1    0    0  501    0  0.00000000000E+00 -0.00000000000E+00 -0.11740676985E+04  0.11740676985E+04  0.00000000000E+00 0. -1.
         23    2    1    2    0    0 -0.15244629858E+03  0.71398274840E+03  0.61376133330E+03  0.95826302875E+03  0.92486858770E+02 0.  0.
         13    1    3    3    0    0 -0.11628026306E+03  0.59998604298E+03  0.46825261173E+03  0.76991224158E+03  0.00000000000E+00 0. -1.
        -13    1    3    3    0    0 -0.36166035522E+02  0.11399670542E+03  0.14550872158E+03  0.18835078717E+03  0.00000000000E+00 0.  1.
         22    1    1    2    0    0  0.15244629858E+03 -0.71398274840E+03 -0.86880570243E+03  0.11348279991E+04  0.00000000000E+00 0. -1.
<mgrwt>
<rscale>  0 0.20774943E+04</rscale>
<asrwt>0</asrwt>
<pdfrwt beam="1">  1        2 0.18062580E+00 0.20774943E+04</pdfrwt>
<pdfrwt beam="2">  1       -2 0.14138820E+00 0.20774943E+04</pdfrwt>
<totfact> 0.63454079E+00</totfact>
</mgrwt>
</event>
<event>
 6    1  0.1773638E-005  0.1724038E+04  0.7818608E-02  0.8747772E-01
         -2   -1    0    0    0  501 -0.00000000000E+00  0.00000000000E+00  0.38318551885E+03  0.38318551885E+03  0.00000000000E+00 0.  1.
          2   -1    0    0  501    0  0.00000000000E+00 -0.00000000000E+00 -0.19392082944E+04  0.19392082944E+04  0.00000000000E+00 0. -1.
         23    2    1    2    0    0 -0.65919807632E+03  0.43983545829E+03 -0.12262370503E+04  0.14640489182E+04  0.10855688491E+03 0.  0.
         13    1    3    3    0    0 -0.41436606105E+03  0.32254687583E+03 -0.86956230749E+03  0.10158121511E+04  0.00000000000E+00 0. -1.
        -13    1    3    3    0    0 -0.24483201527E+03  0.11728858246E+03 -0.35667474279E+03  0.44823676715E+03  0.00000000000E+00 0.  1.
         22    1    1    2    0    0  0.65919807632E+03 -0.43983545829E+03 -0.32978572523E+03  0.85834489499E+03  0.00000000000E+00 0.  1.
<mgrwt>
<rscale>  0 0.17240377E+04</rscale>
<asrwt>0</asrwt>
<pdfrwt beam="1">  1        2 0.29833974E+00 0.17240377E+04</pdfrwt>
<pdfrwt beam="2">  1       -2 0.58951618E-01 0.17240377E+04</pdfrwt>
<totfact> 0.18439374E+01</totfact>
</mgrwt>
</event>
<event>
 6    1  0.1773638E-005  0.9224948E+03  0.7818608E-02  0.9397891E-01
         -2   -1    0    0    0  501 -0.00000000000E+00  0.00000000000E+00  0.24022368330E+03  0.24022368330E+03  0.00000000000E+00 0.  1.
          2   -1    0    0  501    0  0.00000000000E+00 -0.00000000000E+00 -0.88562942416E+03  0.88562942416E+03  0.00000000000E+00 0. -1.
         23    2    1    2    0    0 -0.37062956758E+03 -0.11639133254E+03 -0.61845539811E+03  0.73644388874E+03  0.94600756627E+02 0.  0.
         11    1    3    3    0    0 -0.18574154350E+03 -0.10632459943E+03 -0.31064917299E+03  0.37723699462E+03  0.00000000000E+00 0. -1.
        -11    1    3    3    0    0 -0.18488802408E+03 -0.10066733104E+02 -0.30780622512E+03  0.35920689412E+03  0.00000000000E+00 0.  1.
         22    1    1    2    0    0  0.37062956758E+03  0.11639133254E+03 -0.26950342750E+02  0.38940921872E+03  0.00000000000E+00 0.  1.
<mgrwt>
<rscale>  0 0.92249480E+03</rscale>
<asrwt>0</asrwt>
<pdfrwt beam="1">  1        2 0.13625068E+00 0.92249480E+03</pdfrwt>
<pdfrwt beam="2">  1       -2 0.36957490E-01 0.92249480E+03</pdfrwt>
<totfact> 0.20708745E+02</totfact>
</mgrwt>
</event>
<event>
 6    1  0.1773638E-005  0.1631396E+04  0.7818608E-02  0.8801489E-01
         -2   -1    0    0    0  501 -0.00000000000E+00  0.00000000000E+00  0.10800811301E+04  0.10800811301E+04  0.00000000000E+00 0.  1.
          2   -1    0    0  501    0  0.00000000000E+00 -0.00000000000E+00 -0.61603082651E+03  0.61603082651E+03  0.00000000000E+00 0. -1.
         23    2    1    2    0    0  0.38733111396E+03 -0.26501118698E+03  0.92471151543E+03  0.10384911896E+04  0.55823319726E+02 0.  0.
         11    1    3    3    0    0  0.96944112609E+02 -0.63380736023E+02  0.28416799942E+03  0.30686598144E+03  0.00000000000E+00 0. -1.
        -11    1    3    3    0    0  0.29038700135E+03 -0.20163045096E+03  0.64054351602E+03  0.73162520816E+03  0.00000000000E+00 0.  1.
         22    1    1    2    0    0 -0.38733111396E+03  0.26501118698E+03 -0.46066121187E+03  0.65762076700E+03  0.00000000000E+00 0. -1.
<mgrwt>
<rscale>  0 0.16313961E+04</rscale>
<asrwt>0</asrwt>
<pdfrwt beam="1">  1        2 0.94773973E-01 0.16313961E+04</pdfrwt>
<pdfrwt beam="2">  1       -2 0.16616633E+00 0.16313961E+04</pdfrwt>
<totfact> 0.10424111E+01</totfact>
</mgrwt>
</event>
<event>
 6    1  0.1773638E-005  0.2868103E+04  0.7818608E-02  0.8282432E-01
          2   -1    0    0  501    0  0.00000000000E+00  0.00000000000E+00  0.27345103659E+04  0.27345103659E+04  0.00000000000E+00 0. -1.
         -2   -1    0    0    0  501 -0.00000000000E+00 -0.00000000000E+00 -0.75205541416E+03  0.75205541416E+03  0.00000000000E+00 0.  1.
         23    2    1    2    0    0  0.71625554653E+03 -0.23908943944E+02  0.25001761801E+04  0.26024679824E+04  0.91460496404E+02 0.  0.
         13    1    3    3    0    0  0.37447248693E+03 -0.28789022800E+02  0.11543480342E+04  0.12139101431E+04  0.00000000000E+00 0. -1.
        -13    1    3    3    0    0  0.34178305960E+03  0.48800788557E+01  0.13458281459E+04  0.13885578393E+04  0.00000000000E+00 0.  1.
         22    1    1    2    0    0 -0.71625554653E+03  0.23908943944E+02 -0.51772122835E+03  0.88409779766E+03  0.00000000000E+00 0.  1.
<mgrwt>
<rscale>  0 0.28681027E+04</rscale>
<asrwt>0</asrwt>
<pdfrwt beam="1">  1        2 0.42069390E+00 0.28681027E+04</pdfrwt>
<pdfrwt beam="2">  1       -2 0.11570083E+00 0.28681027E+04</pdfrwt>
<totfact> 0.12725569E+00</totfact>
</mgrwt>
</event>
<event>
 6    1  0.1773638E-005  0.3590656E+03  0.7818608E-02  0.1058954E+00
         -1   -1    0    0    0  501 -0.00000000000E+00  0.00000000000E+00  0.31875750979E+03  0.31875750979E+03  0.00000000000E+00 0.  1.
          1   -1    0    0  501    0  0.00000000000E+00 -0.00000000000E+00 -0.10111770686E+03  0.10111770686E+03  0.00000000000E+00 0. -1.
         23    2    1    2    0    0 -0.70772602204E+02 -0.19215456662E+01  0.29348985820E+03  0.31611740035E+03  0.93709446558E+02 0.  0.
         13    1    3    3    0    0 -0.70919493323E+02  0.24442903614E+02  0.12657755406E+03  0.14713567638E+03  0.00000000000E+00 0. -1.
        -13    1    3    3    0    0  0.14689111942E+00 -0.26364449281E+02  0.16691230414E+03  0.16898172397E+03  0.00000000000E+00 0.  1.
         22    1    1    2    0    0  0.70772602204E+02  0.19215456662E+01 -0.75850055272E+02  0.10375781631E+03  0.00000000000E+00 0. -1.
<mgrwt>
<rscale>  0 0.35906561E+03</rscale>
<asrwt>0</asrwt>
<pdfrwt beam="1">  1        1 0.15556570E-01 0.35906561E+03</pdfrwt>
<pdfrwt beam="2">  1       -1 0.49039617E-01 0.35906561E+03</pdfrwt>
<totfact> 0.15182022E+03</totfact>
</mgrwt>
</event>
<event>
 6    1  0.1773638E-005  0.1680040E+04  0.7818608E-02  0.8772831E-01
         -1   -1    0    0    0  501 -0.00000000000E+00  0.00000000000E+00  0.48813329301E+03  0.48813329301E+03  0.00000000000E+00 0.  1.
          1   -1    0    0  501    0  0.00000000000E+00 -0.00000000000E+00 -0.14455760510E+04  0.14455760510E+04  0.00000000000E+00 0. -1.
         23    2    1    2    0    0  0.19182320407E+03  0.28223367406E+03 -0.13604793998E+04  0.14056084795E+04  0.91536943703E+02 0.  0.
         11    1    3    3    0    0  0.80323429767E+02  0.14427342039E+03 -0.82972473688E+03  0.84599634289E+03  0.00000000000E+00 0. -1.
        -11    1    3    3    0    0  0.11149977430E+03  0.13796025367E+03 -0.53075466293E+03  0.55961213665E+03  0.00000000000E+00 0.  1.
         22    1    1    2    0    0 -0.19182320407E+03 -0.28223367406E+03  0.40303664182E+03  0.52810086446E+03  0.00000000000E+00 0.  1.
<mgrwt>
<rscale>  0 0.16800402E+04</rscale>
<asrwt>0</asrwt>
<pdfrwt beam="1">  1        1 0.22239632E+00 0.16800402E+04</pdfrwt>
<pdfrwt beam="2">  1       -1 0.75097430E-01 0.16800402E+04</pdfrwt>
<totfact> 0.12131525E+01</totfact>
</mgrwt>
</event>
<event>
 6    1  0.1773638E-005  0.7515114E+03  0.7818608E-02  0.9632982E-01
          1   -1    0    0  501    0  0.00000000000E+00  0.00000000000E+00  0.11791413550E+04  0.11791413550E+04  0.00000000000E+00 0. -1.
         -1   -1    0    0    0  501 -0.00000000000E+00 -0.00000000000E+00 -0.11974165707E+03  0.11974165707E+03  0.00000000000E+00 0.  1.
         23    2    1    2    0    0 -0.28651671621E+03  0.20194843468E+03  0.32554997122E+03  0.48561158116E+03  0.83431559137E+02 0.  0.
         11    1    3    3    0    0 -0.91164854622E+02  0.25699680636E+02  0.61986025833E+02  0.11319793153E+03  0.00000000000E+00 0. -1.
        -11    1    3    3    0    0 -0.19535186159E+03  0.17624875404E+03  0.26356394539E+03  0.37241364963E+03  0.00000000000E+00 0.  1.
         22    1    1    2    0    0  0.28651671621E+03 -0.20194843468E+03  0.73384972672E+03  0.81327143091E+03  0.00000000000E+00 0. -1.
<mgrwt>
<rscale>  0 0.75151138E+03</rscale>
<asrwt>0</asrwt>
<pdfrwt beam="1">  1        1 0.18140635E+00 0.75151138E+03</pdfrwt>
<pdfrwt beam="2">  1       -1 0.18421794E-01 0.75151138E+03</pdfrwt>
<totfact> 0.26305665E+02</totfact>
</mgrwt>
</event>
<event>
 6    1  0.1773638E-005  0.3035102E+04  0.7818608E-02  0.8233778E-01
         -2   -1    0    0    0  501 -0.00000000000E+00  0.00000000000E+00  0.18925670122E+04  0.18925670122E+04  0.00000000000E+00 0. -1.
          2   -1    0    0  501    0  0.00000000000E+00 -0.00000000000E+00 -0.12168449685E+04  0.12168449685E+04  0.00000000000E+00 0.  1.
         23    2    1    2    0    0  0.53931213330E+03 -0.35540953676E+03 -0.10671325704E+04  0.12507254224E+04  0.91480289549E+02 0.  0.
         11    1    3    3    0    0  0.39521638704E+03 -0.30046168417E+03 -0.85072398895E+03  0.98498960482E+03  0.00000000000E+00 0.  1.
        -11    1    3    3    0    0  0.14409574626E+03 -0.54947852585E+02 -0.21640858150E+03  0.26573581757E+03  0.00000000000E+00 0. -1.
         22    1    1    2    0    0 -0.53931213330E+03  0.35540953676E+03  0.17428546142E+04  0.18586865583E+04  0.00000000000E+00 0. -1.
<mgrwt>
<rscale>  0 0.30351017E+04</rscale>
<asrwt>0</asrwt>
<pdfrwt beam="1">  1        2 0.18720692E+00 0.30351017E+04</pdfrwt>
<pdfrwt beam="2">  1       -2 0.29116416E+00 0.30351017E+04</pdfrwt>
<totfact> 0.56857977E-01</totfact>
</mgrwt>
</event>
<event>
 6    1  0.1773638E-005  0.9942012E+03  0.7818608E-02  0.9314928E-01
          2   -1    0    0  501    0  0.00000000000E+00  0.00000000000E+00  0.24472778176E+04  0.24472778176E+04  0.00000000000E+00 0.  1.
         -2   -1    0    0    0  501 -0.00000000000E+00 -0.00000000000E+00 -0.10097301890E+03  0.10097301890E+03  0.00000000000E+00 0. -1.
         23    2    1    2    0    0 -0.95340718040E+02 -0.42037022361E+03  0.56830169691E+03  0.71874379705E+03  0.88458180340E+02 0.  0.
         11    1    3    3    0    0 -0.69518354987E+02 -0.25612434791E+03  0.41493083680E+03  0.49254449809E+03  0.00000000000E+00 0. -1.
        -11    1    3    3    0    0 -0.25822363054E+02 -0.16424587569E+03  0.15337086011E+03  0.22619929895E+03  0.00000000000E+00 0.  1.
         22    1    1    2    0    0  0.95340718040E+02  0.42037022361E+03  0.17780031018E+04  0.18295070394E+04  0.00000000000E+00 0.  1.
<mgrwt>
<rscale>  0 0.99420125E+03</rscale>
<asrwt>0</asrwt>
<pdfrwt beam="1">  1        2 0.37650424E+00 0.99420125E+03</pdfrwt>
<pdfrwt beam="2">  1       -2 0.15534312E-01 0.99420125E+03</pdfrwt>
<totfact> 0.12482878E+02</totfact>
</mgrwt>
</event>
<event>
 6    1  0.1773638E-005  0.1044989E+04  0.7818608E-02  0.9260533E-01
          1   -1    0    0  501    0  0.00000000000E+00  0.00000000000E+00  0.16900102717E+03  0.16900102717E+03  0.00000000000E+00 0. -1.
         -1   -1    0    0    0  501 -0.00000000000E+00 -0.00000000000E+00 -0.16153785463E+04  0.16153785463E+04  0.00000000000E+00 0.  1.
         23    2    1    2    0    0  0.26375226449E+03  0.58423099183E+02  0.27134658576E+02  0.28630859605E+03  0.90872476209E+02 0.  0.
         11    1    3    3    0    0  0.25464221449E+02  0.38150948386E+02  0.39233952939E+01  0.46036012722E+02  0.00000000000E+00 0. -1.
        -11    1    3    3    0    0  0.23828804304E+03  0.20272150797E+02  0.23211263282E+02  0.24027258332E+03  0.00000000000E+00 0.  1.
         22    1    1    2    0    0 -0.26375226449E+03 -0.58423099183E+02 -0.14735121777E+04  0.14980709774E+04  0.00000000000E+00 0.  1.
<mgrwt>
<rscale>  0 0.10449893E+04</rscale>
<asrwt>0</asrwt>
<pdfrwt beam="1">  1        1 0.26000159E-01 0.10449893E+04</pdfrwt>
<pdfrwt beam="2">  1       -1 0.24851977E+00 0.10449893E+04</pdfrwt>
<totfact> 0.13288746E+01</totfact>
</mgrwt>
</event>
<event>
 6    1  0.1773638E-005  0.1772768E+04  0.7818608E-02  0.8720917E-01
          1   -1    0    0  501    0  0.00000000000E+00  0.00000000000E+00  0.75346985756E+03  0.75346985756E+03  0.00000000000E+00 0. -1.
         -1   -1    0    0    0  501 -0.00000000000E+00 -0.00000000000E+00 -0.10427441475E+04  0.10427441475E+04  0.00000000000E+00 0.  1.
         23    2    1    2    0    0 -0.53365833223E+03  0.54779888374E+03 -0.59432142585E+03  0.97284981603E+03  0.91345359701E+02 0.  0.
         11    1    3    3    0    0 -0.43821808110E+03  0.40535879762E+03 -0.43325854568E+03  0.73760681180E+03  0.00000000000E+00 0. -1.
        -11    1    3    3    0    0 -0.95440251130E+02  0.14244008612E+03 -0.16106288017E+03  0.23524300423E+03  0.00000000000E+00 0.  1.
         22    1    1    2    0    0  0.53365833223E+03 -0.54779888374E+03  0.30504713595E+03  0.82336418900E+03  0.00000000000E+00 0. -1.
<mgrwt>
<rscale>  0 0.17727676E+04</rscale>
<asrwt>0</asrwt>
<pdfrwt beam="1">  1        1 0.11591844E+00 0.17727676E+04</pdfrwt>
<pdfrwt beam="2">  1       -1 0.16042218E+00 0.17727676E+04</pdfrwt>
<totfact> 0.66717607E+00</totfact>
</mgrwt>
</event>
<event>
 6    1  0.1773638E-005  0.1703926E+04  0.7818608E-02  0.8759128E-01
          1   -1    0    0  501    0  0.00000000000E+00  0.00000000000E+00  0.29623096992E+04  0.29623096992E+04  0.00000000000E+00 0. -1.
         -1   -1    0    0    0  501 -0.00000000000E+00 -0.00000000000E+00 -0.24502536531E+03  0.24502536531E+03  0.00000000000E+00 0.  1.
         23    2    1    2    0    0  0.95978012437E+01 -0.83422465131E+03  0.16638888535E+04  0.18635847437E+04  0.91646567636E+02 0.  0.
         11    1    3    3    0    0  0.18959173466E+01 -0.49468338771E+03  0.10843707255E+04  0.11918788188E+04  0.00000000000E+00 0.  1.
        -11    1    3    3    0    0  0.77018838971E+01 -0.33954126360E+03  0.57951812803E+03  0.67170592480E+03  0.00000000000E+00 0. -1.
         22    1    1    2    0    0 -0.95978012437E+01  0.83422465131E+03  0.10533954804E+04  0.13437503208E+04  0.00000000000E+00 0.  1.
<mgrwt>
<rscale>  0 0.17039261E+04</rscale>
<asrwt>0</asrwt>
<pdfrwt beam="1">  1        1 0.45573993E+00 0.17039261E+04</pdfrwt>
<pdfrwt beam="2">  1       -1 0.37696212E-01 0.17039261E+04</pdfrwt>
<totfact> 0.41265781E+00</totfact>
</mgrwt>
</event>
<event>
 6    1  0.1773638E-005  0.4245538E+04  0.7818608E-02  0.7956766E-01
          2   -1    0    0  501    0  0.00000000000E+00  0.00000000000E+00  0.17553175690E+04  0.17553175690E+04  0.00000000000E+00 0.  1.
         -2   -1    0    0    0  501 -0.00000000000E+00 -0.00000000000E+00 -0.25671416951E+04  0.25671416951E+04  0.00000000000E+00 0. -1.
         23    2    1    2    0    0  0.14805100676E+04 -0.12321188619E+04  0.49994033055E+03  0.19920616715E+04  0.91336842706E+02 0.  0.
         13    1    3    3    0    0  0.75305811708E+03 -0.57510831309E+03  0.22236904753E+03  0.97329034351E+03  0.00000000000E+00 0. -1.
        -13    1    3    3    0    0  0.72745195053E+03 -0.65701054879E+03  0.27757128303E+03  0.10187713280E+04  0.00000000000E+00 0.  1.
         22    1    1    2    0    0 -0.14805100676E+04  0.12321188619E+04 -0.13117644567E+04  0.23303975927E+04  0.00000000000E+00 0. -1.
<mgrwt>
<rscale>  0 0.42455383E+04</rscale>
<asrwt>0</asrwt>
<pdfrwt beam="1">  1        2 0.27004886E+00 0.42455383E+04</pdfrwt>
<pdfrwt beam="2">  1       -2 0.39494487E+00 0.42455383E+04</pdfrwt>
<totfact> 0.56579431E-02</totfact>
</mgrwt>
</event>
<event>
 6    1  0.1773638E-005  0.3254096E+04  0.7818608E-02  0.8174675E-01
          2   -1    0    0  501    0  0.00000000000E+00  0.00000000000E+00  0.12436901638E+04  0.12436901638E+04  0.00000000000E+00 0. -1.
         -2   -1    0    0    0  501 -0.00000000000E+00 -0.00000000000E+00 -0.21285734807E+04  0.21285734807E+04  0.00000000000E+00 0.  1.
         23    2    1    2    0    0 -0.37998873652E+03 -0.92890651953E+03  0.88252584735E+03  0.13397789788E+04  0.94324328793E+02 0.  0.
         13    1    3    3    0    0 -0.22043768543E+03 -0.42884670093E+03  0.45184960297E+03  0.66081035839E+03  0.00000000000E+00 0.  1.
        -13    1    3    3    0    0 -0.15955105109E+03 -0.50005981860E+03  0.43067624437E+03  0.67896862045E+03  0.00000000000E+00 0. -1.
         22    1    1    2    0    0  0.37998873652E+03  0.92890651953E+03 -0.17674091643E+04  0.20324846656E+04  0.00000000000E+00 0.  1.
<mgrwt>
<rscale>  0 0.32540964E+04</rscale>
<asrwt>0</asrwt>
<pdfrwt beam="1">  1        2 0.19133695E+00 0.32540964E+04</pdfrwt>
<pdfrwt beam="2">  1       -2 0.32747284E+00 0.32540964E+04</pdfrwt>
<totfact> 0.32181616E-01</totfact>
</mgrwt>
</event>
<event>
 6    1  0.1773638E-005  0.1458633E+04  0.7818608E-02  0.8912437E-01
         -1   -1    0    0    0  501 -0.00000000000E+00  0.00000000000E+00  0.32620611208E+03  0.32620611208E+03  0.00000000000E+00 0.  1.
          1   -1    0    0  501    0  0.00000000000E+00 -0.00000000000E+00 -0.16305729258E+04  0.16305729258E+04  0.00000000000E+00 0. -1.
         23    2    1    2    0    0  0.29669348570E+03  0.51904033257E+03 -0.10095236024E+03  0.61303939117E+03  0.90531899343E+02 0.  0.
         11    1    3    3    0    0  0.16001388713E+03  0.21348947356E+03 -0.75846943110E+02  0.27737151652E+03  0.00000000000E+00 0. -1.
        -11    1    3    3    0    0  0.13667959858E+03  0.30555085901E+03 -0.25105417126E+02  0.33566787466E+03  0.00000000000E+00 0.  1.
         22    1    1    2    0    0 -0.29669348570E+03 -0.51904033257E+03 -0.12034144535E+04  0.13437396468E+04  0.00000000000E+00 0. -1.
<mgrwt>
<rscale>  0 0.14586334E+04</rscale>
<asrwt>0</asrwt>
<pdfrwt beam="1">  1        1 0.25085737E+00 0.14586334E+04</pdfrwt>
<pdfrwt beam="2">  1       -1 0.50185556E-01 0.14586334E+04</pdfrwt>
<totfact> 0.20567588E+01</totfact>
</mgrwt>
</event>
<event>
 6    1  0.1773638E-005  0.1889398E+04  0.7818608E-02  0.8660152E-01
          1   -1    0    0  501    0  0.00000000000E+00  0.00000000000E+00  0.10682276257E+04  0.10682276257E+04  0.00000000000E+00 0. -1.
         -1   -1    0    0    0  501 -0.00000000000E+00 -0.00000000000E+00 -0.83545488659E+03  0.83545488659E+03  0.00000000000E+00 0.  1.
         23    2    1    2    0    0 -0.35321111667E+03 -0.72165963131E+03  0.61312966462E+03  0.10147381342E+04  0.90635418247E+02 0.  0.
         13    1    3    3    0    0 -0.42946617013E+02 -0.17284520407E+03  0.13731034402E+03  0.22488665381E+03  0.00000000000E+00 0. -1.
        -13    1    3    3    0    0 -0.31026449966E+03 -0.54881442724E+03  0.47581932060E+03  0.78985148044E+03  0.00000000000E+00 0.  1.
         22    1    1    2    0    0  0.35321111667E+03  0.72165963131E+03 -0.38035692553E+03  0.88894437802E+03  0.00000000000E+00 0.  1.
<mgrwt>
<rscale>  0 0.18893978E+04</rscale>
<asrwt>0</asrwt>
<pdfrwt beam="1">  1        1 0.16434271E+00 0.18893978E+04</pdfrwt>
<pdfrwt beam="2">  1       -1 0.12853152E+00 0.18893978E+04</pdfrwt>
<totfact> 0.65508598E+00</totfact>
</mgrwt>
</event>
<event>
 6    1  0.1773638E-005  0.3219021E+04  0.7818608E-02  0.8183812E-01
         -2   -1    0    0    0  501 -0.00000000000E+00  0.00000000000E+00  0.90728424490E+03  0.90728424490E+03  0.00000000000E+00 0. -1.
          2   -1    0    0  501    0  0.00000000000E+00 -0.00000000000E+00 -0.28552506212E+04  0.28552506212E+04  0.00000000000E+00 0.  1.
         23    2    1    2    0    0 -0.91709533840E+03  0.84409661239E+03  0.21304136104E+03  0.12678370103E+04  0.91984305676E+02 0.  0.
         11    1    3    3    0    0 -0.21692707444E+03  0.25292667805E+03  0.67771735807E+02  0.34003274588E+03  0.00000000000E+00 0. -1.
        -11    1    3    3    0    0 -0.70016826396E+03  0.59116993433E+03  0.14526962523E+03  0.92780426445E+03  0.00000000000E+00 0.  1.
         22    1    1    2    0    0  0.91709533840E+03 -0.84409661239E+03 -0.21610077373E+04  0.24946978558E+04  0.00000000000E+00 0.  1.
<mgrwt>
<rscale>  0 0.32190209E+04</rscale>
<asrwt>0</asrwt>
<pdfrwt beam="1">  1        2 0.43926933E+00 0.32190209E+04</pdfrwt>
<pdfrwt beam="2">  1       -2 0.13958219E+00 0.32190209E+04</pdfrwt>
<totfact> 0.65093999E-01</totfact>
</mgrwt>
</event>
<event>
 6    1  0.1773638E-005  0.3239282E+04  0.7818608E-02  0.8178519E-01
          2   -1    0    0  501    0  0.00000000000E+00  0.00000000000E+00  0.22671336345E+04  0.22671336345E+04  0.00000000000E+00 0.  1.
         -2   -1    0    0    0  501 -0.00000000000E+00 -0.00000000000E+00 -0.11570717999E+04  0.11570717999E+04  0.00000000000E+00 0. -1.
         23    2    1    2    0    0 -0.93471752685E+03 -0.19745200654E+03  0.19365105481E+04  0.21609945946E+04  0.84500800125E+02 0.  0.
         11    1    3    3    0    0 -0.34735312338E+03 -0.11165246351E+03  0.77520205556E+03  0.85677225205E+03  0.00000000000E+00 0.  1.
        -11    1    3    3    0    0 -0.58736440346E+03 -0.85799543033E+02  0.11613084925E+04  0.13042223425E+04  0.00000000000E+00 0. -1.
         22    1    1    2    0    0  0.93471752685E+03  0.19745200654E+03 -0.82644871344E+03  0.12632108398E+04  0.00000000000E+00 0. -1.
<mgrwt>
<rscale>  0 0.32392816E+04</rscale>
<asrwt>0</asrwt>
<pdfrwt beam="1">  1        2 0.34878979E+00 0.32392816E+04</pdfrwt>
<pdfrwt beam="2">  1       -2 0.17801105E+00 0.32392816E+04</pdfrwt>
<totfact> 0.74347196E-01</totfact>
</mgrwt>
</event>
<event>
 6    1  0.1773638E-005  0.9898756E+03  0.7818608E-02  0.9319719E-01
         -1   -1    0    0    0  501 -0.00000000000E+00  0.00000000000E+00  0.45908211716E+03  0.45908211716E+03  0.00000000000E+00 0.  1.
          1   -1    0    0  501    0  0.00000000000E+00 -0.00000000000E+00 -0.53359388018E+03  0.53359388018E+03  0.00000000000E+00 0. -1.
         23    2    1    2    0    0  0.12244585760E+03 -0.52587579591E+02 -0.51116385588E+03  0.53614177981E+03  0.91657399748E+02 0.  0.
         13    1    3    3    0    0  0.80070964519E+02 -0.12392347269E+02 -0.42091360947E+03  0.42864110427E+03  0.00000000000E+00 0. -1.
        -13    1    3    3    0    0  0.42374893083E+02 -0.40195232322E+02 -0.90250246412E+02  0.10750067555E+03  0.00000000000E+00 0.  1.
         22    1    1    2    0    0 -0.12244585760E+03  0.52587579591E+02  0.43665209286E+03  0.45653421753E+03  0.00000000000E+00 0.  1.
<mgrwt>
<rscale>  0 0.98987556E+03</rscale>
<asrwt>0</asrwt>
<pdfrwt beam="1">  1        1 0.82091366E-01 0.98987556E+03</pdfrwt>
<pdfrwt beam="2">  1       -1 0.70628019E-01 0.98987556E+03</pdfrwt>
<totfact> 0.82303479E+01</totfact>
</mgrwt>
</event>
<event>
 6    1  0.1773638E-005  0.2661021E+04  0.7818608E-02  0.8347764E-01
         -2   -1    0    0    0  501 -0.00000000000E+00  0.00000000000E+00  0.11287910014E+04  0.11287910014E+04  0.00000000000E+00 0.  1.
          2   -1    0    0  501    0  0.00000000000E+00 -0.00000000000E+00 -0.15682777720E+04  0.15682777720E+04  0.00000000000E+00 0. -1.
         23    2    1    2    0    0 -0.84239045194E+02 -0.12509518420E+04 -0.66647846349E+03  0.14229016115E+04  0.92079997870E+02 0.  0.
         11    1    3    3    0    0 -0.23676202424E+02 -0.86746004481E+03 -0.43230932196E+03  0.96950443102E+03  0.00000000000E+00 0.  1.
        -11    1    3    3    0    0 -0.60562842770E+02 -0.38349179715E+03 -0.23416914154E+03  0.45339718047E+03  0.00000000000E+00 0. -1.
         22    1    1    2    0    0  0.84239045194E+02  0.12509518420E+04  0.22699169289E+03  0.12741671618E+04  0.00000000000E+00 0.  1.
<mgrwt>
<rscale>  0 0.26610207E+04</rscale>
<asrwt>0</asrwt>
<pdfrwt beam="1">  1        2 0.24127350E+00 0.26610207E+04</pdfrwt>
<pdfrwt beam="2">  1       -2 0.17366015E+00 0.26610207E+04</pdfrwt>
<totfact> 0.20534934E+00</totfact>
</mgrwt>
</event>
<event>
 6    1  0.1773638E-005  0.2134365E+04  0.7818608E-02  0.8546255E-01
          2   -1    0    0  501    0  0.00000000000E+00  0.00000000000E+00  0.13240501686E+04  0.13240501686E+04  0.00000000000E+00 0.  1.
         -2   -1    0    0    0  501 -0.00000000000E+00 -0.00000000000E+00 -0.86014737959E+03  0.86014737959E+03  0.00000000000E+00 0. -1.
         23    2    1    2    0    0 -0.46226820551E+03 -0.84224999045E+03  0.70314440646E+03  0.11940897299E+04  0.91440070721E+02 0.  0.
         11    1    3    3    0    0 -0.25628225027E+03 -0.53165357836E+03  0.47002894611E+03  0.75449541375E+03  0.00000000000E+00 0.  1.
        -11    1    3    3    0    0 -0.20598595523E+03 -0.31059641210E+03  0.23311546035E+03  0.43959431618E+03  0.00000000000E+00 0. -1.
         22    1    1    2    0    0  0.46226820551E+03  0.84224999045E+03 -0.23924161746E+03  0.99010781825E+03  0.00000000000E+00 0. -1.
<mgrwt>
<rscale>  0 0.21343648E+04</rscale>
<asrwt>0</asrwt>
<pdfrwt beam="1">  1        2 0.20370003E+00 0.21343648E+04</pdfrwt>
<pdfrwt beam="2">  1       -2 0.13233037E+00 0.21343648E+04</pdfrwt>
<totfact> 0.61076032E+00</totfact>
</mgrwt>
</event>
<event>
 6    1  0.1773638E-005  0.3564533E+04  0.7818608E-02  0.8098664E-01
          1   -1    0    0  501    0  0.00000000000E+00  0.00000000000E+00  0.40946786407E+04  0.40946786407E+04  0.00000000000E+00 0. -1.
         -1   -1    0    0    0  501 -0.00000000000E+00 -0.00000000000E+00 -0.77575659541E+03  0.77575659541E+03  0.00000000000E+00 0.  1.
         23    2    1    2    0    0 -0.81418400964E+03 -0.59271396494E+03  0.36677720743E+04  0.38046483022E+04  0.92689094741E+02 0.  0.
         11    1    3    3    0    0 -0.40596017052E+03 -0.33621176658E+03  0.17926957268E+04  0.18685823452E+04  0.00000000000E+00 0. -1.
        -11    1    3    3    0    0 -0.40822383912E+03 -0.25650219836E+03  0.18750763475E+04  0.19360659569E+04  0.00000000000E+00 0.  1.
         22    1    1    2    0    0  0.81418400964E+03  0.59271396494E+03 -0.34885002904E+03  0.10657869339E+04  0.00000000000E+00 0.  1.
<mgrwt>
<rscale>  0 0.35645330E+04</rscale>
<asrwt>0</asrwt>
<pdfrwt beam="1">  1        1 0.62995055E+00 0.35645330E+04</pdfrwt>
<pdfrwt beam="2">  1       -1 0.11934717E+00 0.35645330E+04</pdfrwt>
<totfact> 0.40103261E-02</totfact>
</mgrwt>
</event>
<event>
 6    1  0.1773638E-005  0.1851227E+04  0.7818608E-02  0.8679522E-01
          2   -1    0    0  501    0  0.00000000000E+00  0.00000000000E+00  0.23945064149E+04  0.23945064149E+04  0.00000000000E+00 0. -1.
         -2   -1    0    0    0  501 -0.00000000000E+00 -0.00000000000E+00 -0.35780248950E+03  0.35780248950E+03  0.00000000000E+00 0.  1.
         23    2    1    2    0    0 -0.59140705865E+03  0.45684882562E+03  0.18271346755E+04  0.19761694652E+04  0.91386401242E+02 0.  0.
         11    1    3    3    0    0 -0.23795174041E+03  0.22287663537E+03  0.88222336288E+03  0.94053872189E+03  0.00000000000E+00 0. -1.
        -11    1    3    3    0    0 -0.35345531825E+03  0.23397219025E+03  0.94491131264E+03  0.10356307433E+04  0.00000000000E+00 0.  1.
         22    1    1    2    0    0  0.59140705865E+03 -0.45684882562E+03  0.20956924985E+03  0.77613943913E+03  0.00000000000E+00 0.  1.
<mgrwt>
<rscale>  0 0.18512270E+04</rscale>
<asrwt>0</asrwt>
<pdfrwt beam="1">  1        2 0.36838559E+00 0.18512270E+04</pdfrwt>
<pdfrwt beam="2">  1       -2 0.55046538E-01 0.18512270E+04</pdfrwt>
<totfact> 0.11692328E+01</totfact>
</mgrwt>
</event>
<event>
 6    1  0.1773638E-005  0.1985590E+04  0.7818608E-02  0.8613387E-01
          1   -1    0    0  501    0  0.00000000000E+00  0.00000000000E+00  0.29534920811E+04  0.29534920811E+04  0.00000000000E+00 0.  1.
         -1   -1    0    0    0  501 -0.00000000000E+00 -0.00000000000E+00 -0.33372092529E+03  0.33372092529E+03  0.00000000000E+00 0. -1.
         23    2    1    2    0    0 -0.15481922750E+03  0.22940067624E+03  0.28877616916E+04  0.29019694591E+04  0.75269453325E+02 0.  0.
         11    1    3    3    0    0 -0.16055557437E+03  0.23006070454E+03  0.28490734770E+04  0.28628527202E+04  0.00000000000E+00 0.  1.
        -11    1    3    3    0    0  0.57363468688E+01 -0.66002830016E+00  0.38688214525E+02  0.39116738820E+02  0.00000000000E+00 0. -1.
         22    1    1    2    0    0  0.15481922750E+03 -0.22940067624E+03 -0.26799053579E+03  0.38524354730E+03  0.00000000000E+00 0. -1.
<mgrwt>
<rscale>  0 0.19855902E+04</rscale>
<asrwt>0</asrwt>
<pdfrwt beam="1">  1        1 0.45438338E+00 0.19855902E+04</pdfrwt>
<pdfrwt beam="2">  1       -1 0.51341683E-01 0.19855902E+04</pdfrwt>
<totfact> 0.22943757E+00</totfact>
</mgrwt>
</event>
<event>
 6    1  0.1773638E-005  0.1663577E+04  0.7818608E-02  0.8782415E-01
          1   -1    0    0  501    0  0.00000000000E+00  0.00000000000E+00  0.16971785077E+04  0.16971785077E+04  0.00000000000E+00 0. -1.
         -1   -1    0    0    0  501 -0.00000000000E+00 -0.00000000000E+00 -0.40766003551E+03  0.40766003551E+03  0.00000000000E+00 0.  1.
         23    2    1    2    0    0 -0.32693088834E+03 -0.58111924144E+03  0.22749647444E+02  0.67330557682E+03  0.90771552765E+02 0.  0.
         11    1    3    3    0    0 -0.23538568926E+03 -0.36878317411E+03 -0.20864931461E+02  0.43799862737E+03  0.00000000000E+00 0.  1.
        -11    1    3    3    0    0 -0.91545199079E+02 -0.21233606733E+03  0.43614578905E+02  0.23530694945E+03  0.00000000000E+00 0. -1.
         22    1    1    2    0    0  0.32693088834E+03  0.58111924144E+03  0.12667688248E+04  0.14315329664E+04  0.00000000000E+00 0. -1.
<mgrwt>
<rscale>  0 0.16635767E+04</rscale>
<asrwt>0</asrwt>
<pdfrwt beam="1">  1        1 0.26110438E+00 0.16635767E+04</pdfrwt>
<pdfrwt beam="2">  1       -1 0.62716929E-01 0.16635767E+04</pdfrwt>
<totfact> 0.11782680E+01</totfact>
</mgrwt>
</event>
<event>
 6    1  0.1773638E-005  0.1154646E+04  0.7818608E-02  0.9153508E-01
          1   -1    0    0  501    0  0.00000000000E+00  0.00000000000E+00  0.86314147523E+03  0.86314147523E+03  0.00000000000E+00 0. -1.
         -1   -1    0    0    0  501 -0.00000000000E+00 -0.00000000000E+00 -0.38614985942E+03  0.38614985942E+03  0.00000000000E+00 0.  1.
         23    2    1    2    0    0  0.92029489755E+01 -0.18069013419E+03 -0.34971978149E+03  0.40301398454E+03  0.85922798515E+02 0.  0.
         13    1    3    3    0    0  0.40925076895E+02 -0.82993486858E+02 -0.21104558362E+03  0.23044092333E+03  0.00000000000E+00 0.  1.
        -13    1    3    3    0    0 -0.31722127920E+02 -0.97696647336E+02 -0.13867419787E+03  0.17257306121E+03  0.00000000000E+00 0. -1.
         22    1    1    2    0    0 -0.92029489755E+01  0.18069013419E+03  0.82671139730E+03  0.84627735010E+03  0.00000000000E+00 0. -1.
<mgrwt>
<rscale>  0 0.11546462E+04</rscale>
<asrwt>0</asrwt>
<pdfrwt beam="1">  1        1 0.13279100E+00 0.11546462E+04</pdfrwt>
<pdfrwt beam="2">  1       -1 0.59407671E-01 0.11546462E+04</pdfrwt>
<totfact> 0.55682451E+01</totfact>
</mgrwt>
</event>
<event>
 6    1  0.1773638E-005  0.3883739E+04  0.7818608E-02  0.8028420E-01
         -2   -1    0    0    0  501 -0.00000000000E+00  0.00000000000E+00  0.16452406167E+04  0.16452406167E+04  0.00000000000E+00 0.  1.
          2   -1    0    0  501    0  0.00000000000E+00 -0.00000000000E+00 -0.22919794974E+04  0.22919794974E+04  0.00000000000E+00 0. -1.
         23    2    1    2    0    0  0.19400267014E+04  0.54746618220E+02 -0.31795965595E+03  0.19687698168E+04  0.90859529660E+02 0.  0.
         13    1    3    3    0    0  0.12310367071E+04  0.56877672150E+02 -0.24001071405E+03  0.12555045148E+04  0.00000000000E+00 0.  1.
        -13    1    3    3    0    0  0.70898999432E+03 -0.21310539300E+01 -0.77948941908E+02  0.71326530196E+03  0.00000000000E+00 0. -1.
         22    1    1    2    0    0 -0.19400267014E+04 -0.54746618220E+02 -0.32877922467E+03  0.19684502973E+04  0.00000000000E+00 0. -1.
<mgrwt>
<rscale>  0 0.38837393E+04</rscale>
<asrwt>0</asrwt>
<pdfrwt beam="1">  1        2 0.35261223E+00 0.38837393E+04</pdfrwt>
<pdfrwt beam="2">  1       -2 0.25311394E+00 0.38837393E+04</pdfrwt>
<totfact> 0.22434805E-01</totfact>
</mgrwt>
</event>
<event>
 6    1  0.1773638E-005  0.1212044E+04  0.7818608E-02  0.9102380E-01
         -1   -1    0    0    0  501 -0.00000000000E+00  0.00000000000E+00  0.43916171084E+03  0.43916171084E+03  0.00000000000E+00 0. -1.
          1   -1    0    0  501    0  0.00000000000E+00 -0.00000000000E+00 -0.83628062135E+03  0.83628062135E+03  0.00000000000E+00 0.  1.
         23    2    1    2    0    0 -0.37982852312E+03 -0.54243154713E+02  0.28956552268E+03  0.48883726126E+03  0.88891221494E+02 0.  0.
         13    1    3    3    0    0 -0.12337926816E+03  0.13061221480E+02  0.12846960625E+03  0.17859865355E+03  0.00000000000E+00 0.  1.
        -13    1    3    3    0    0 -0.25644925496E+03 -0.67304376193E+02  0.16109591643E+03  0.31023860771E+03  0.00000000000E+00 0. -1.
         22    1    1    2    0    0  0.37982852312E+03  0.54243154713E+02 -0.68668443320E+03  0.78660507093E+03  0.00000000000E+00 0.  1.
<mgrwt>
<rscale>  0 0.12120436E+04</rscale>
<asrwt>0</asrwt>
<pdfrwt beam="1">  1        1 0.12865856E+00 0.12120436E+04</pdfrwt>
<pdfrwt beam="2">  1       -1 0.67563341E-01 0.12120436E+04</pdfrwt>
<totfact> 0.45142653E+01</totfact>
</mgrwt>
</event>
<event>
 6    1  0.1773638E-005  0.1778735E+04  0.7818608E-02  0.8717690E-01
         -2   -1    0    0    0  501 -0.00000000000E+00  0.00000000000E+00  0.35810005886E+03  0.35810005886E+03  0.00000000000E+00 0.  1.
          2   -1    0    0  501    0  0.00000000000E+00 -0.00000000000E+00 -0.22088099333E+04  0.22088099333E+04  0.00000000000E+00 0. -1.
         23    2    1    2    0    0  0.66512000991E+03 -0.35544345489E+03 -0.25421379529E+03  0.80125872196E+03  0.93092473404E+02 0.  0.
         11    1    3    3    0    0  0.50775191464E+03 -0.22573632784E+03 -0.19520723230E+03  0.58896074578E+03  0.00000000000E+00 0.  1.
        -11    1    3    3    0    0  0.15736809527E+03 -0.12970712705E+03 -0.59006562986E+02  0.21229797618E+03  0.00000000000E+00 0. -1.
         22    1    1    2    0    0 -0.66512000991E+03  0.35544345489E+03 -0.15964960792E+04  0.17656512702E+04  0.00000000000E+00 0. -1.
<mgrwt>
<rscale>  0 0.17787355E+04</rscale>
<asrwt>0</asrwt>
<pdfrwt beam="1">  1        2 0.33981690E+00 0.17787355E+04</pdfrwt>
<pdfrwt beam="2">  1       -2 0.55092318E-01 0.17787355E+04</pdfrwt>
<totfact> 0.14962485E+01</totfact>
</mgrwt>
</event>
<event>
 6    1  0.1773638E-005  0.2220976E+04  0.7818608E-02  0.8509748E-01
          2   -1    0    0  501    0  0.00000000000E+00  0.00000000000E+00  0.11361330971E+04  0.11361330971E+04  0.00000000000E+00 0. -1.
         -2   -1    0    0    0  501 -0.00000000000E+00 -0.00000000000E+00 -0.10854218716E+04  0.10854218716E+04  0.00000000000E+00 0.  1.
         23    2    1    2    0    0  0.44934452039E+03  0.60675891045E+03 -0.78662476963E+03  0.10940806045E+04  0.90371275819E+02 0.  0.
         13    1    3    3    0    0  0.23719876181E+03  0.25305385971E+03 -0.32976810994E+03  0.47858804295E+03  0.00000000000E+00 0.  1.
        -13    1    3    3    0    0  0.21214575858E+03  0.35370505073E+03 -0.45685665969E+03  0.61549256153E+03  0.00000000000E+00 0. -1.
         22    1    1    2    0    0 -0.44934452039E+03 -0.60675891045E+03  0.83733599507E+03  0.11274743643E+04  0.00000000000E+00 0. -1.
<mgrwt>
<rscale>  0 0.22209761E+04</rscale>
<asrwt>0</asrwt>
<pdfrwt beam="1">  1        2 0.17478971E+00 0.22209761E+04</pdfrwt>
<pdfrwt beam="2">  1       -2 0.16698798E+00 0.22209761E+04</pdfrwt>
<totfact> 0.42307664E+00</totfact>
</mgrwt>
</event>
<event>
 6    1  0.1773638E-005  0.2332593E+04  0.7818608E-02  0.8465180E-01
          2   -1    0    0  501    0  0.00000000000E+00  0.00000000000E+00  0.37875252520E+04  0.37875252520E+04  0.00000000000E+00 0. -1.
         -2   -1    0    0    0  501 -0.00000000000E+00 -0.00000000000E+00 -0.35913884628E+03  0.35913884628E+03  0.00000000000E+00 0.  1.
         23    2    1    2    0    0  0.23479280778E+03 -0.11294735743E+04  0.14333673088E+04  0.18421165473E+04  0.89517116981E+02 0.  0.
         13    1    3    3    0    0  0.20922038144E+03 -0.81343516507E+03  0.10293966814E+04  0.13285734694E+04  0.00000000000E+00 0. -1.
        -13    1    3    3    0    0  0.25572426332E+02 -0.31603840924E+03  0.40397062734E+03  0.51354307790E+03  0.00000000000E+00 0.  1.
         22    1    1    2    0    0 -0.23479280778E+03  0.11294735743E+04  0.19950190969E+04  0.23045475510E+04  0.00000000000E+00 0. -1.
<mgrwt>
<rscale>  0 0.23325929E+04</rscale>
<asrwt>0</asrwt>
<pdfrwt beam="1">  1        2 0.58269617E+00 0.23325929E+04</pdfrwt>
<pdfrwt beam="2">  1       -2 0.55252133E-01 0.23325929E+04</pdfrwt>
<totfact> 0.14032956E+00</totfact>
</mgrwt>
</event>
<event>
 6    1  0.1773638E-005  0.2817451E+04  0.7818608E-02  0.8297871E-01
          1   -1    0    0  501    0  0.00000000000E+00  0.00000000000E+00  0.30684591632E+04  0.30684591632E+04  0.00000000000E+00 0. -1.
         -1   -1    0    0    0  501 -0.00000000000E+00 -0.00000000000E+00 -0.64674417659E+03  0.64674417659E+03  0.00000000000E+00 0.  1.
         23    2    1    2    0    0  0.13291466637E+04 -0.46191623219E+03  0.11875883440E+04  0.18435553950E+04  0.91285050597E+02 0.  0.
         11    1    3    3    0    0  0.32162015177E+03 -0.13631881720E+03  0.33712562178E+03  0.48546475341E+03  0.00000000000E+00 0. -1.
        -11    1    3    3    0    0  0.10075265119E+04 -0.32559741499E+03  0.85046272223E+03  0.13580906416E+04  0.00000000000E+00 0.  1.
         22    1    1    2    0    0 -0.13291466637E+04  0.46191623219E+03  0.12341266426E+04  0.18716479447E+04  0.00000000000E+00 0.  1.
<mgrwt>
<rscale>  0 0.28174514E+04</rscale>
<asrwt>0</asrwt>
<pdfrwt beam="1">  1        1 0.47207063E+00 0.28174514E+04</pdfrwt>
<pdfrwt beam="2">  1       -1 0.99499106E-01 0.28174514E+04</pdfrwt>
<totfact> 0.44351057E-01</totfact>
</mgrwt>
</event>
<event>
 6    1  0.1773638E-005  0.9668344E+03  0.7818608E-02  0.9345687E-01
          2   -1    0    0  501    0  0.00000000000E+00  0.00000000000E+00  0.90087238989E+03  0.90087238989E+03  0.00000000000E+00 0. -1.
         -2   -1    0    0    0  501 -0.00000000000E+00 -0.00000000000E+00 -0.25940655330E+03  0.25940655330E+03  0.00000000000E+00 0.  1.
         23    2    1    2    0    0 -0.24699080906E+03 -0.17908601736E+03 -0.11981120054E+03  0.34014542440E+03  0.90928128696E+02 0.  0.
         11    1    3    3    0    0 -0.17790736838E+03 -0.82189176067E+02 -0.98182340578E+02  0.21919366868E+03  0.00000000000E+00 0. -1.
        -11    1    3    3    0    0 -0.69083440684E+02 -0.96896841288E+02 -0.21628859963E+02  0.12095175572E+03  0.00000000000E+00 0.  1.
         22    1    1    2    0    0  0.24699080906E+03  0.17908601736E+03  0.76127703713E+03  0.82013351879E+03  0.00000000000E+00 0. -1.
<mgrwt>
<rscale>  0 0.96683443E+03</rscale>
<asrwt>0</asrwt>
<pdfrwt beam="1">  1        2 0.13859575E+00 0.96683443E+03</pdfrwt>
<pdfrwt beam="2">  1       -2 0.39908701E-01 0.96683443E+03</pdfrwt>
<totfact> 0.17381505E+02</totfact>
</mgrwt>
</event>
<event>
 6    1  0.1773638E-005  0.2099577E+04  0.7818608E-02  0.8561430E-01
         -1   -1    0    0    0  501 -0.00000000000E+00  0.00000000000E+00  0.62718995008E+03  0.62718995008E+03  0.00000000000E+00 0.  1.
          1   -1    0    0  501    0  0.00000000000E+00 -0.00000000000E+00 -0.17571332938E+04  0.17571332938E+04  0.00000000000E+00 0. -1.
         23    2    1    2    0    0  0.28422294533E+03 -0.88762008254E+03 -0.11098560458E+04  0.14520917313E+04  0.90210088788E+02 0.  0.
         13    1    3    3    0    0  0.15073506638E+03 -0.37299829196E+03 -0.42687226441E+03  0.58657370906E+03  0.00000000000E+00 0.  1.
        -13    1    3    3    0    0  0.13348787894E+03 -0.51462179058E+03 -0.68298378140E+03  0.86551802224E+03  0.00000000000E+00 0. -1.
         22    1    1    2    0    0 -0.28422294533E+03  0.88762008254E+03 -0.20087297945E+02  0.93223151262E+03  0.00000000000E+00 0.  1.
<mgrwt>
<rscale>  0 0.20995774E+04</rscale>
<asrwt>0</asrwt>
<pdfrwt beam="1">  1        1 0.27032820E+00 0.20995774E+04</pdfrwt>
<pdfrwt beam="2">  1       -1 0.96490762E-01 0.20995774E+04</pdfrwt>
<totfact> 0.41422803E+00</totfact>
</mgrwt>
</event>
<event>
 6    1  0.1773638E-005  0.3082447E+04  0.7818608E-02  0.8220572E-01
          1   -1    0    0  501    0  0.00000000000E+00  0.00000000000E+00  0.30226291877E+04  0.30226291877E+04  0.00000000000E+00 0. -1.
         -1   -1    0    0    0  501 -0.00000000000E+00 -0.00000000000E+00 -0.78586212533E+03  0.78586212533E+03  0.00000000000E+00 0.  1.
         23    2    1    2    0    0 -0.52685124590E+03  0.11366458774E+04  0.15384941851E+02  0.12581825844E+04  0.11511139543E+03 0.  0.
         13    1    3    3    0    0 -0.29066167170E+03  0.73017476937E+03  0.44598872060E+02  0.78716482429E+03  0.00000000000E+00 0.  1.
        -13    1    3    3    0    0 -0.23618957420E+03  0.40647110803E+03 -0.29213930209E+02  0.47101776012E+03  0.00000000000E+00 0. -1.
         22    1    1    2    0    0  0.52685124590E+03 -0.11366458774E+04  0.22213821205E+04  0.25503087286E+04  0.00000000000E+00 0. -1.
<mgrwt>
<rscale>  0 0.30824469E+04</rscale>
<asrwt>0</asrwt>
<pdfrwt beam="1">  1        1 0.46501987E+00 0.30824469E+04</pdfrwt>
<pdfrwt beam="2">  1       -1 0.12090187E+00 0.30824469E+04</pdfrwt>
<totfact> 0.29530470E-01</totfact>
</mgrwt>
</event>
<event>
 6    1  0.1773638E-005  0.8607514E+03  0.7818608E-02  0.9476019E-01
         -2   -1    0    0    0  501 -0.00000000000E+00  0.00000000000E+00  0.86666611901E+02  0.86666611901E+02  0.00000000000E+00 0.  1.
          2   -1    0    0  501    0  0.00000000000E+00 -0.00000000000E+00 -0.21371924982E+04  0.21371924982E+04  0.00000000000E+00 0. -1.
         23    2    1    2    0    0 -0.34726959060E+03 -0.23077070900E+03 -0.12671526857E+04  0.13364331357E+04  0.80785571317E+02 0.  0.
         13    1    3    3    0    0 -0.24628968463E+03 -0.15124080795E+03 -0.75589487334E+03  0.80926475908E+03  0.00000000000E+00 0.  1.
        -13    1    3    3    0    0 -0.10097990597E+03 -0.79529901057E+02 -0.51125781240E+03  0.52716837662E+03  0.00000000000E+00 0. -1.
         22    1    1    2    0    0  0.34726959060E+03  0.23077070900E+03 -0.78337320058E+03  0.88742597442E+03  0.00000000000E+00 0.  1.
<mgrwt>
<rscale>  0 0.86075138E+03</rscale>
<asrwt>0</asrwt>
<pdfrwt beam="1">  1        2 0.32879880E+00 0.86075138E+03</pdfrwt>
<pdfrwt beam="2">  1       -2 0.13333327E-01 0.86075138E+03</pdfrwt>
<totfact> 0.24351269E+02</totfact>
</mgrwt>
</event>
<event>
 6    1  0.1773638E-005  0.1920049E+04  0.7818608E-02  0.8644941E-01
         -2   -1    0    0    0  501 -0.00000000000E+00  0.00000000000E+00  0.59610595163E+03  0.59610595163E+03  0.00000000000E+00 0.  1.
          2   -1    0    0  501    0  0.00000000000E+00 -0.00000000000E+00 -0.15461120117E+04  0.15461120117E+04  0.00000000000E+00 0. -1.
         23    2    1    2    0    0  0.77778424804E+03  0.18083420224E+03  0.11393360779E+03  0.81194845602E+03  0.92898240346E+02 0.  0.
         11    1    3    3    0    0  0.71546866082E+03  0.14084011434E+03  0.11295897940E+03  0.73789638396E+03  0.00000000000E+00 0. -1.
        -11    1    3    3    0    0  0.62315587215E+02  0.39994087903E+02  0.97462838699E+00  0.74052072068E+02  0.00000000000E+00 0.  1.
         22    1    1    2    0    0 -0.77778424804E+03 -0.18083420224E+03 -0.10639396678E+04  0.13302695073E+04  0.00000000000E+00 0. -1.
<mgrwt>
<rscale>  0 0.19200485E+04</rscale>
<asrwt>0</asrwt>
<pdfrwt beam="1">  1        2 0.23786338E+00 0.19200485E+04</pdfrwt>
<pdfrwt beam="2">  1       -2 0.91708609E-01 0.19200485E+04</pdfrwt>
<totfact> 0.11312114E+01</totfact>
</mgrwt>
</event>
<event>
 6    1  0.1773638E-005  0.4489113E+03  0.7818608E-02  0.1028047E+00
         -4   -1    0    0    0  501 -0.00000000000E+00  0.00000000000E+00  0.27600973892E+03  0.27600973892E+03  0.00000000000E+00 0.  1.
          4   -1    0    0  501    0  0.00000000000E+00 -0.00000000000E+00 -0.18253098218E+03  0.18253098218E+03  0.00000000000E+00 0. -1.
         23    2    1    2    0    0 -0.24914387922E+02  0.83747239887E+02  0.24958618601E+03  0.27964450431E+03  0.90958548965E+02 0.  0.
         13    1    3    3    0    0 -0.48304801047E+02  0.17712926942E+02  0.69966930685E+02  0.86847412020E+02  0.00000000000E+00 0. -1.
        -13    1    3    3    0    0  0.23390413125E+02  0.66034312945E+02  0.17961925532E+03  0.19279709229E+03  0.00000000000E+00 0.  1.
         22    1    1    2    0    0  0.24914387922E+02 -0.83747239887E+02 -0.15610742926E+03  0.17889621680E+03  0.00000000000E+00 0. -1.
<mgrwt>
<rscale>  0 0.44891126E+03</rscale>
<asrwt>0</asrwt>
<pdfrwt beam="1">  1        4 0.28081689E-01 0.44891126E+03</pdfrwt>
<pdfrwt beam="2">  1       -4 0.42463037E-01 0.44891126E+03</pdfrwt>
<totfact> 0.12713802E+02</totfact>
</mgrwt>
</event>
<event>
 6    1  0.1773638E-005  0.4849342E+04  0.7818608E-02  0.7852177E-01
         -2   -1    0    0    0  501 -0.00000000000E+00  0.00000000000E+00  0.20780679182E+04  0.20780679182E+04  0.00000000000E+00 0. -1.
          2   -1    0    0  501    0  0.00000000000E+00 -0.00000000000E+00 -0.28290847445E+04  0.28290847445E+04  0.00000000000E+00 0.  1.
         23    2    1    2    0    0  0.91120140562E+03  0.21396903256E+04 -0.10666574944E+04  0.25601989516E+04  0.91092097981E+02 0.  0.
         11    1    3    3    0    0  0.55314311083E+03  0.12331145710E+04 -0.66012567358E+03  0.15040959913E+04  0.00000000000E+00 0. -1.
        -11    1    3    3    0    0  0.35805829480E+03  0.90657575460E+03 -0.40653182077E+03  0.10561029602E+04  0.00000000000E+00 0.  1.
         22    1    1    2    0    0 -0.91120140562E+03 -0.21396903256E+04  0.31564066809E+03  0.23469537112E+04  0.00000000000E+00 0.  1.
<mgrwt>
<rscale>  0 0.48493423E+04</rscale>
<asrwt>0</asrwt>
<pdfrwt beam="1">  1        2 0.43524380E+00 0.48493423E+04</pdfrwt>
<pdfrwt beam="2">  1       -2 0.31970276E+00 0.48493423E+04</pdfrwt>
<totfact> 0.39326344E-02</totfact>
</mgrwt>
</event>
<event>
 6    1  0.1773638E-005  0.2469796E+04  0.7818608E-02  0.8413826E-01
         -1   -1    0    0    0  501 -0.00000000000E+00  0.00000000000E+00  0.88189275187E+03  0.88189275187E+03  0.00000000000E+00 0.  1.
          1   -1    0    0  501    0  0.00000000000E+00 -0.00000000000E+00 -0.17292045811E+04  0.17292045811E+04  0.00000000000E+00 0. -1.
         23    2    1    2    0    0  0.58202579735E+03  0.43268723380E+03 -0.14786933600E+04  0.16495283502E+04  0.91855616137E+02 0.  0.
         13    1    3    3    0    0  0.14115444524E+03  0.11668238052E+03 -0.46638769566E+03  0.50105572344E+03  0.00000000000E+00 0.  1.
        -13    1    3    3    0    0  0.44087135211E+03  0.31600485328E+03 -0.10123056643E+04  0.11484726268E+04  0.00000000000E+00 0. -1.
         22    1    1    2    0    0 -0.58202579735E+03 -0.43268723380E+03  0.63138153080E+03  0.96156898271E+03  0.00000000000E+00 0.  1.
<mgrwt>
<rscale>  0 0.24697959E+04</rscale>
<asrwt>0</asrwt>
<pdfrwt beam="1">  1        1 0.26603147E+00 0.24697959E+04</pdfrwt>
<pdfrwt beam="2">  1       -1 0.13567581E+00 0.24697959E+04</pdfrwt>
<totfact> 0.18439242E+00</totfact>
</mgrwt>
</event>
<event>
 6    1  0.1773638E-005  0.4314123E+04  0.7818608E-02  0.7944012E-01
         -3   -1    0    0    0  501 -0.00000000000E+00  0.00000000000E+00  0.97269552454E+03  0.97269552454E+03  0.00000000000E+00 0.  1.
          3   -1    0    0  501    0  0.00000000000E+00 -0.00000000000E+00 -0.47835269045E+04  0.47835269045E+04  0.00000000000E+00 0. -1.
         23    2    1    2    0    0 -0.21439837630E+04  0.77712607523E+02 -0.21927469620E+04  0.30690486704E+04  0.90635957186E+02 0.  0.
         13    1    3    3    0    0 -0.16929845004E+04  0.37226204182E+02 -0.17695308196E+04  0.24492491973E+04  0.00000000000E+00 0.  1.
        -13    1    3    3    0    0 -0.45099926264E+03  0.40486403341E+02 -0.42321614231E+03  0.61979947311E+03  0.00000000000E+00 0. -1.
         22    1    1    2    0    0  0.21439837630E+04 -0.77712607523E+02 -0.16180844181E+04  0.26871737587E+04  0.00000000000E+00 0.  1.
<mgrwt>
<rscale>  0 0.43141234E+04</rscale>
<asrwt>0</asrwt>
<pdfrwt beam="1">  1        3 0.73592721E+00 0.43141234E+04</pdfrwt>
<pdfrwt beam="2">  1       -3 0.14964547E+00 0.43141234E+04</pdfrwt>
<totfact> 0.12521966E-04</totfact>
</mgrwt>
</event>
<event>
 6    1  0.1773638E-005  0.2853011E+04  0.7818608E-02  0.8286997E-01
         -2   -1    0    0    0  501 -0.00000000000E+00  0.00000000000E+00  0.18678353112E+04  0.18678353112E+04  0.00000000000E+00 0.  1.
          2   -1    0    0  501    0  0.00000000000E+00 -0.00000000000E+00 -0.10894524970E+04  0.10894524970E+04  0.00000000000E+00 0. -1.
         23    2    1    2    0    0 -0.77941921251E+03  0.11918170345E+04  0.33428160175E+03  0.14655947970E+04  0.91114034472E+02 0.  0.
         11    1    3    3    0    0 -0.56863236473E+03  0.91633572058E+03  0.28305628144E+03  0.11149595407E+04  0.00000000000E+00 0.  1.
        -11    1    3    3    0    0 -0.21078684777E+03  0.27548131393E+03  0.51225320308E+02  0.35063525630E+03  0.00000000000E+00 0. -1.
         22    1    1    2    0    0  0.77941921251E+03 -0.11918170345E+04  0.44410121242E+03  0.14916930111E+04  0.00000000000E+00 0.  1.
<mgrwt>
<rscale>  0 0.28530109E+04</rscale>
<asrwt>0</asrwt>
<pdfrwt beam="1">  1        2 0.16760808E+00 0.28530109E+04</pdfrwt>
<pdfrwt beam="2">  1       -2 0.28735928E+00 0.28530109E+04</pdfrwt>
<totfact> 0.72761953E-01</totfact>
</mgrwt>
</event>
<event>
 6    1  0.1773638E-005  0.2255349E+04  0.7818608E-02  0.8495738E-01
          2   -1    0    0  501    0  0.00000000000E+00  0.00000000000E+00  0.16425047930E+04  0.16425047930E+04  0.00000000000E+00 0. -1.
         -2   -1    0    0    0  501 -0.00000000000E+00 -0.00000000000E+00 -0.77421348681E+03  0.77421348681E+03  0.00000000000E+00 0.  1.
         23    2    1    2    0    0  0.10605131260E+03 -0.10019818392E+04  0.97321848389E+03  0.14036910346E+04  0.89329816457E+02 0.  0.
         13    1    3    3    0    0  0.43658102355E+02 -0.74410171608E+03  0.74235897394E+03  0.10519934600E+04  0.00000000000E+00 0.  1.
        -13    1    3    3    0    0  0.62393210241E+02 -0.25788012314E+03  0.23085950995E+03  0.35169757453E+03  0.00000000000E+00 0. -1.
         22    1    1    2    0    0 -0.10605131260E+03  0.10019818392E+04 -0.10492717768E+03  0.10130272453E+04  0.00000000000E+00 0.  1.
<mgrwt>
<rscale>  0 0.22553486E+04</rscale>
<asrwt>0</asrwt>
<pdfrwt beam="1">  1        2 0.25269304E+00 0.22553486E+04</pdfrwt>
<pdfrwt beam="2">  1       -2 0.11910977E+00 0.22553486E+04</pdfrwt>
<totfact> 0.51973012E+00</totfact>
</mgrwt>
</event>
<event>
 6    1  0.1773638E-005  0.2076158E+04  0.7818608E-02  0.8571819E-01
         -1   -1    0    0    0  501 -0.00000000000E+00  0.00000000000E+00  0.84692875622E+03  0.84692875622E+03  0.00000000000E+00 0.  1.
          1   -1    0    0  501    0  0.00000000000E+00 -0.00000000000E+00 -0.12723711914E+04  0.12723711914E+04  0.00000000000E+00 0. -1.
         23    2    1    2    0    0 -0.19939175935E+03  0.69439157288E+03  0.54487251737E+03  0.90956946634E+03  0.92161942968E+02 0.  0.
         11    1    3    3    0    0 -0.19830420312E+03  0.56592661509E+03  0.45620256037E+03  0.75347081346E+03  0.00000000000E+00 0. -1.
        -11    1    3    3    0    0 -0.10875562359E+01  0.12846495779E+03  0.88669956999E+02  0.15609865289E+03  0.00000000000E+00 0.  1.
         22    1    1    2    0    0  0.19939175935E+03 -0.69439157288E+03 -0.97031495250E+03  0.12097304812E+04  0.00000000000E+00 0.  1.
<mgrwt>
<rscale>  0 0.20761577E+04</rscale>
<asrwt>0</asrwt>
<pdfrwt beam="1">  1        1 0.19574941E+00 0.20761577E+04</pdfrwt>
<pdfrwt beam="2">  1       -1 0.13029673E+00 0.20761577E+04</pdfrwt>
<totfact> 0.44000689E+00</totfact>
</mgrwt>
</event>
<event>
 6    1  0.1773638E-005  0.1205159E+04  0.7818608E-02  0.9108353E-01
          1   -1    0    0  501    0  0.00000000000E+00  0.00000000000E+00  0.12944842187E+04  0.12944842187E+04  0.00000000000E+00 0. -1.
         -1   -1    0    0    0  501 -0.00000000000E+00 -0.00000000000E+00 -0.28049953685E+03  0.28049953685E+03  0.00000000000E+00 0.  1.
         23    2    1    2    0    0 -0.10229284084E+03 -0.37352223074E+03 -0.86876869475E+02  0.40798810974E+03  0.94467058249E+02 0.  0.
         11    1    3    3    0    0 -0.66078739189E+02 -0.27771682823E+03 -0.21066727374E+02  0.28624612391E+03  0.00000000000E+00 0.  1.
        -11    1    3    3    0    0 -0.36214101650E+02 -0.95805402508E+02 -0.65810142101E+02  0.12174198582E+03  0.00000000000E+00 0. -1.
         22    1    1    2    0    0  0.10229284084E+03  0.37352223074E+03  0.11008615513E+04  0.11669956458E+04  0.00000000000E+00 0. -1.
<mgrwt>
<rscale>  0 0.12051593E+04</rscale>
<asrwt>0</asrwt>
<pdfrwt beam="1">  1        1 0.19915141E+00 0.12051593E+04</pdfrwt>
<pdfrwt beam="2">  1       -1 0.43153776E-01 0.12051593E+04</pdfrwt>
<totfact> 0.47801276E+01</totfact>
</mgrwt>
</event>
<event>
 6    1  0.1829347E-005  0.3094369E+04  0.7818608E-02  0.8217285E-01
         -2   -1    0    0    0  501 -0.00000000000E+00  0.00000000000E+00  0.18772602123E+04  0.18772602123E+04  0.00000000000E+00 0.  1.
          2   -1    0    0  501    0  0.00000000000E+00 -0.00000000000E+00 -0.12751454331E+04  0.12751454331E+04  0.00000000000E+00 0. -1.
         23    2    1    2    0    0  0.86400162339E+03 -0.12728450739E+04  0.14667241937E+03  0.15480175594E+04  0.90621068547E+02 0.  0.
         13    1    3    3    0    0  0.41076000859E+03 -0.62051498309E+03  0.11560775693E+03  0.75307886862E+03  0.00000000000E+00 0.  1.
        -13    1    3    3    0    0  0.45324161479E+03 -0.65233009086E+03  0.31064662436E+02  0.79493869076E+03  0.00000000000E+00 0. -1.
         22    1    1    2    0    0 -0.86400162339E+03  0.12728450739E+04  0.45544235979E+03  0.16043880860E+04  0.00000000000E+00 0. -1.
<mgrwt>
<rscale>  0 0.30943689E+04</rscale>
<asrwt>0</asrwt>
<pdfrwt beam="1">  1        2 0.19617622E+00 0.30943689E+04</pdfrwt>
<pdfrwt beam="2">  1       -2 0.28880926E+00 0.30943689E+04</pdfrwt>
<totfact> 0.54024227E-01</totfact>
</mgrwt>
</event>
<event>
 6    1  0.1773638E-005  0.6524181E+03  0.7818608E-02  0.9802252E-01
          2   -1    0    0  501    0  0.00000000000E+00  0.00000000000E+00  0.60552114218E+03  0.60552114218E+03  0.00000000000E+00 0. -1.
         -2   -1    0    0    0  501 -0.00000000000E+00 -0.00000000000E+00 -0.17573680272E+03  0.17573680272E+03  0.00000000000E+00 0.  1.
         23    2    1    2    0    0 -0.10196797336E+03  0.26267370481E+03  0.38765645862E+02  0.29929263336E+03  0.93157728045E+02 0.  0.
         11    1    3    3    0    0 -0.10847326983E+03  0.18277579695E+03  0.50012100571E+02  0.21834525967E+03  0.00000000000E+00 0. -1.
        -11    1    3    3    0    0  0.65052964775E+01  0.79897907860E+02 -0.11246454709E+02  0.80947373683E+02  0.00000000000E+00 0.  1.
         22    1    1    2    0    0  0.10196797336E+03 -0.26267370481E+03  0.39101869359E+03  0.48196531154E+03  0.00000000000E+00 0. -1.
<mgrwt>
<rscale>  0 0.65241812E+03</rscale>
<asrwt>0</asrwt>
<pdfrwt beam="1">  1        2 0.93157098E-01 0.65241812E+03</pdfrwt>
<pdfrwt beam="2">  1       -2 0.27036432E-01 0.65241812E+03</pdfrwt>
<totfact> 0.61310200E+02</totfact>
</mgrwt>
</event>
<event>
 6    1  0.1773638E-005  0.2104926E+04  0.7818608E-02  0.8559077E-01
         -2   -1    0    0    0  501 -0.00000000000E+00  0.00000000000E+00  0.90147992089E+03  0.90147992089E+03  0.00000000000E+00 0.  1.
          2   -1    0    0  501    0  0.00000000000E+00 -0.00000000000E+00 -0.12287328279E+04  0.12287328279E+04  0.00000000000E+00 0. -1.
         23    2    1    2    0    0 -0.41573908529E+03  0.94879628242E+03 -0.34098385269E+03  0.10942388536E+04  0.89639881370E+02 0.  0.
         11    1    3    3    0    0 -0.94616285131E+02  0.30259746283E+03 -0.12760346440E+03  0.34176031082E+03  0.00000000000E+00 0.  1.
        -11    1    3    3    0    0 -0.32112280015E+03  0.64619881959E+03 -0.21338038829E+03  0.75247854277E+03  0.00000000000E+00 0. -1.
         22    1    1    2    0    0  0.41573908529E+03 -0.94879628242E+03  0.13730945724E+02  0.10359738952E+04  0.00000000000E+00 0.  1.
<mgrwt>
<rscale>  0 0.21049256E+04</rscale>
<asrwt>0</asrwt>
<pdfrwt beam="1">  1        2 0.18903582E+00 0.21049256E+04</pdfrwt>
<pdfrwt beam="2">  1       -2 0.13868922E+00 0.21049256E+04</pdfrwt>
<totfact> 0.61740290E+00</totfact>
</mgrwt>
</event>
<event>
 6    1  0.1773638E-005  0.2942060E+04  0.7818608E-02  0.8260472E-01
          1   -1    0    0  501    0  0.00000000000E+00  0.00000000000E+00  0.19706958436E+04  0.19706958436E+04  0.00000000000E+00 0. -1.
         -1   -1    0    0    0  501 -0.00000000000E+00 -0.00000000000E+00 -0.10980536697E+04  0.10980536697E+04  0.00000000000E+00 0.  1.
         23    2    1    2    0    0 -0.12337914077E+04  0.68974704978E+03  0.85632539300E+03  0.16551518097E+04  0.90786033654E+02 0.  0.
         13    1    3    3    0    0 -0.59074287369E+03  0.33157757598E+03  0.46345691578E+03  0.82080030732E+03  0.00000000000E+00 0.  1.
        -13    1    3    3    0    0 -0.64304853403E+03  0.35816947380E+03  0.39286847721E+03  0.83435150234E+03  0.00000000000E+00 0. -1.
         22    1    1    2    0    0  0.12337914077E+04 -0.68974704978E+03  0.16316780958E+02  0.14135977037E+04  0.00000000000E+00 0.  1.
<mgrwt>
<rscale>  0 0.29420604E+04</rscale>
<asrwt>0</asrwt>
<pdfrwt beam="1">  1        1 0.30318398E+00 0.29420604E+04</pdfrwt>
<pdfrwt beam="2">  1       -1 0.16893133E+00 0.29420604E+04</pdfrwt>
<totfact> 0.66854179E-01</totfact>
</mgrwt>
</event>
<event>
 6    1  0.1773638E-005  0.4440960E+04  0.7818608E-02  0.7921055E-01
         -2   -1    0    0    0  501 -0.00000000000E+00  0.00000000000E+00  0.12667899463E+04  0.12667899463E+04  0.00000000000E+00 0.  1.
          2   -1    0    0  501    0  0.00000000000E+00 -0.00000000000E+00 -0.38921458265E+04  0.38921458265E+04  0.00000000000E+00 0. -1.
         23    2    1    2    0    0 -0.11477765813E+04 -0.49226770843E+03 -0.34446770189E+04  0.36652806233E+04  0.93614664481E+02 0.  0.
         13    1    3    3    0    0 -0.10555606955E+04 -0.42353151084E+03 -0.31229582293E+04  0.33236208305E+04  0.00000000000E+00 0.  1.
        -13    1    3    3    0    0 -0.92215885758E+02 -0.68736197590E+02 -0.32171878962E+03  0.34165979283E+03  0.00000000000E+00 0. -1.
         22    1    1    2    0    0  0.11477765813E+04  0.49226770843E+03  0.81932113874E+03  0.14936551495E+04  0.00000000000E+00 0.  1.
<mgrwt>
<rscale>  0 0.44409599E+04</rscale>
<asrwt>0</asrwt>
<pdfrwt beam="1">  1        2 0.59879167E+00 0.44409599E+04</pdfrwt>
<pdfrwt beam="2">  1       -2 0.19489076E+00 0.44409599E+04</pdfrwt>
<totfact> 0.45470125E-02</totfact>
</mgrwt>
</event>
<event>
 6    1  0.1773638E-005  0.1368547E+04  0.7818608E-02  0.8976906E-01
         -2   -1    0    0    0  501 -0.00000000000E+00  0.00000000000E+00  0.13947544142E+03  0.13947544142E+03  0.00000000000E+00 0.  1.
          2   -1    0    0  501    0  0.00000000000E+00 -0.00000000000E+00 -0.33570782332E+04  0.33570782332E+04  0.00000000000E+00 0. -1.
         23    2    1    2    0    0 -0.64298510288E+01 -0.38996608263E+03 -0.30430004354E+04  0.30692354425E+04  0.90772592236E+02 0.  0.
         13    1    3    3    0    0 -0.47034712718E+01 -0.31255502733E+03 -0.26732907283E+04  0.26915044279E+04  0.00000000000E+00 0.  1.
        -13    1    3    3    0    0 -0.17263797570E+01 -0.77411055299E+02 -0.36970970711E+03  0.37773101461E+03  0.00000000000E+00 0. -1.
         22    1    1    2    0    0  0.64298510288E+01  0.38996608263E+03 -0.17460235638E+03  0.42731823204E+03  0.00000000000E+00 0.  1.
<mgrwt>
<rscale>  0 0.13685466E+04</rscale>
<asrwt>0</asrwt>
<pdfrwt beam="1">  1        2 0.51647361E+00 0.13685466E+04</pdfrwt>
<pdfrwt beam="2">  1       -2 0.21457759E-01 0.13685466E+04</pdfrwt>
<totfact> 0.19070267E+01</totfact>
</mgrwt>
</event>
<event>
 6    1  0.1773638E-005  0.3724405E+04  0.7818608E-02  0.8062575E-01
          2   -1    0    0  501    0  0.00000000000E+00  0.00000000000E+00  0.13382065951E+04  0.13382065951E+04  0.00000000000E+00 0. -1.
         -2   -1    0    0    0  501 -0.00000000000E+00 -0.00000000000E+00 -0.25913774768E+04  0.25913774768E+04  0.00000000000E+00 0.  1.
         23    2    1    2    0    0 -0.85708875712E+03 -0.94411296681E+03 -0.20572473645E+04  0.24221062373E+04  0.91550390854E+02 0.  0.
         13    1    3    3    0    0 -0.73791339314E+03 -0.84886774802E+03 -0.18426279988E+04  0.21587891447E+04  0.00000000000E+00 0. -1.
        -13    1    3    3    0    0 -0.11917536398E+03 -0.95245218790E+02 -0.21461936578E+03  0.26331709259E+03  0.00000000000E+00 0.  1.
         22    1    1    2    0    0  0.85708875712E+03  0.94411296681E+03  0.80407648281E+03  0.15074778346E+04  0.00000000000E+00 0. -1.
<mgrwt>
<rscale>  0 0.37244051E+04</rscale>
<asrwt>0</asrwt>
<pdfrwt beam="1">  1        2 0.20587794E+00 0.37244051E+04</pdfrwt>
<pdfrwt beam="2">  1       -2 0.39867345E+00 0.37244051E+04</pdfrwt>
<totfact> 0.95885258E-02</totfact>
</mgrwt>
</event>
<event>
 6    1  0.1773638E-005  0.2744207E+04  0.7818608E-02  0.8320802E-01
         -1   -1    0    0    0  501 -0.00000000000E+00  0.00000000000E+00  0.23833924536E+04  0.23833924536E+04  0.00000000000E+00 0.  1.
          1   -1    0    0  501    0  0.00000000000E+00 -0.00000000000E+00 -0.78991094065E+03  0.78991094065E+03  0.00000000000E+00 0. -1.
         23    2    1    2    0    0  0.10220824481E+04 -0.13948817804E+03  0.18412322599E+04  0.21124122994E+04  0.89666076652E+02 0.  0.
         13    1    3    3    0    0  0.27899885695E+03 -0.74037905099E+02  0.47640324414E+03  0.55702964427E+03  0.00000000000E+00 0.  1.
        -13    1    3    3    0    0  0.74308359118E+03 -0.65450272942E+02  0.13648290157E+04  0.15553826551E+04  0.00000000000E+00 0. -1.
         22    1    1    2    0    0 -0.10220824481E+04  0.13948817804E+03 -0.24775074689E+03  0.10608910949E+04  0.00000000000E+00 0. -1.
<mgrwt>
<rscale>  0 0.27442068E+04</rscale>
<asrwt>0</asrwt>
<pdfrwt beam="1">  1        1 0.12152476E+00 0.27442068E+04</pdfrwt>
<pdfrwt beam="2">  1       -1 0.36667576E+00 0.27442068E+04</pdfrwt>
<totfact> 0.23605515E-01</totfact>
</mgrwt>
</event>
<event>
 6    1  0.1773638E-005  0.2419313E+04  0.7818608E-02  0.8432308E-01
          2   -1    0    0  501    0  0.00000000000E+00  0.00000000000E+00  0.25258334280E+04  0.25258334280E+04  0.00000000000E+00 0. -1.
         -2   -1    0    0    0  501 -0.00000000000E+00 -0.00000000000E+00 -0.57932129869E+03  0.57932129869E+03  0.00000000000E+00 0.  1.
         23    2    1    2    0    0  0.54649746732E+03  0.80691996141E+03  0.58717067930E+02  0.98064313583E+03  0.91836593318E+02 0.  0.
         13    1    3    3    0    0  0.40477991255E+03  0.52106111633E+03  0.37282127465E+02  0.66086414760E+03  0.00000000000E+00 0. -1.
        -13    1    3    3    0    0  0.14171755478E+03  0.28585884508E+03  0.21434940466E+02  0.31977898823E+03  0.00000000000E+00 0.  1.
         22    1    1    2    0    0 -0.54649746732E+03 -0.80691996141E+03  0.18877950614E+04  0.21245115908E+04  0.00000000000E+00 0. -1.
<mgrwt>
<rscale>  0 0.24193132E+04</rscale>
<asrwt>0</asrwt>
<pdfrwt beam="1">  1        2 0.38858975E+00 0.24193132E+04</pdfrwt>
<pdfrwt beam="2">  1       -2 0.89126355E-01 0.24193132E+04</pdfrwt>
<totfact> 0.32629627E+00</totfact>
</mgrwt>
</event>
<event>
 6    1  0.1773638E-005  0.2771877E+04  0.7818608E-02  0.8312053E-01
          1   -1    0    0  501    0  0.00000000000E+00  0.00000000000E+00  0.13522123289E+04  0.13522123289E+04  0.00000000000E+00 0. -1.
         -1   -1    0    0    0  501 -0.00000000000E+00 -0.00000000000E+00 -0.14205062965E+04  0.14205062965E+04  0.00000000000E+00 0.  1.
         23    2    1    2    0    0 -0.99853970655E+03 -0.10930821207E+03 -0.98719782634E+03  0.14113170929E+04  0.90700373269E+02 0.  0.
         13    1    3    3    0    0 -0.21398730102E+03 -0.43323407751E+02 -0.26040393645E+03  0.33982008883E+03  0.00000000000E+00 0.  1.
        -13    1    3    3    0    0 -0.78455240554E+03 -0.65984804322E+02 -0.72679388989E+03  0.10714970041E+04  0.00000000000E+00 0. -1.
         22    1    1    2    0    0  0.99853970655E+03  0.10930821207E+03  0.91890385874E+03  0.13614015324E+04  0.00000000000E+00 0. -1.
<mgrwt>
<rscale>  0 0.27718774E+04</rscale>
<asrwt>0</asrwt>
<pdfrwt beam="1">  1        1 0.20803267E+00 0.27718774E+04</pdfrwt>
<pdfrwt beam="2">  1       -1 0.21853943E+00 0.27718774E+04</pdfrwt>
<totfact> 0.81111904E-01</totfact>
</mgrwt>
</event>
<event>
 6    1  0.1773638E-005  0.1893430E+04  0.7818608E-02  0.8658134E-01
          2   -1    0    0  501    0  0.00000000000E+00  0.00000000000E+00  0.18045221976E+04  0.18045221976E+04  0.00000000000E+00 0. -1.
         -2   -1    0    0    0  501 -0.00000000000E+00 -0.00000000000E+00 -0.49667932909E+03  0.49667932909E+03  0.00000000000E+00 0.  1.
         23    2    1    2    0    0  0.41728762189E+03  0.24500995416E+03 -0.33063219642E+03  0.59276382650E+03  0.88839561460E+02 0.  0.
         11    1    3    3    0    0  0.90243536479E+01  0.21420680621E+02 -0.32637958138E+02  0.40068950928E+02  0.00000000000E+00 0. -1.
        -11    1    3    3    0    0  0.40826326824E+03  0.22358927354E+03 -0.29799423828E+03  0.55269487557E+03  0.00000000000E+00 0.  1.
         22    1    1    2    0    0 -0.41728762189E+03 -0.24500995416E+03  0.16384750649E+04  0.17084377002E+04  0.00000000000E+00 0. -1.
<mgrwt>
<rscale>  0 0.18934296E+04</rscale>
<asrwt>0</asrwt>
<pdfrwt beam="1">  1        2 0.27761880E+00 0.18934296E+04</pdfrwt>
<pdfrwt beam="2">  1       -2 0.76412205E-01 0.18934296E+04</pdfrwt>
<totfact> 0.12314006E+01</totfact>
</mgrwt>
</event>
<event>
 6    1  0.1773638E-005  0.1790418E+04  0.7818608E-02  0.8711412E-01
          4   -1    0    0  501    0  0.00000000000E+00  0.00000000000E+00  0.55881966475E+03  0.55881966475E+03  0.00000000000E+00 0. -1.
         -4   -1    0    0    0  501 -0.00000000000E+00 -0.00000000000E+00 -0.14340926101E+04  0.14340926101E+04  0.00000000000E+00 0.  1.
         23    2    1    2    0    0 -0.52010860171E+02 -0.86971393634E+03 -0.65513917146E+03  0.10942653258E+04  0.95403399796E+02 0.  0.
         13    1    3    3    0    0 -0.19334137309E+01 -0.50834395639E+03 -0.42783313132E+03  0.66442343753E+03  0.00000000000E+00 0. -1.
        -13    1    3    3    0    0 -0.50077446440E+02 -0.36136997995E+03 -0.22730604014E+03  0.42984188830E+03  0.00000000000E+00 0.  1.
         22    1    1    2    0    0  0.52010860171E+02  0.86971393634E+03 -0.22013377392E+03  0.89864694906E+03  0.00000000000E+00 0. -1.
<mgrwt>
<rscale>  0 0.17904180E+04</rscale>
<asrwt>0</asrwt>
<pdfrwt beam="1">  1        4 0.85972257E-01 0.17904180E+04</pdfrwt>
<pdfrwt beam="2">  1       -4 0.22062963E+00 0.17904180E+04</pdfrwt>
<totfact> 0.21504493E-01</totfact>
</mgrwt>
</event>
<event>
 6    1  0.1773638E-005  0.7215794E+03  0.7818608E-02  0.9681024E-01
         -2   -1    0    0    0  501 -0.00000000000E+00  0.00000000000E+00  0.17665338825E+03  0.17665338825E+03  0.00000000000E+00 0.  1.
          2   -1    0    0  501    0  0.00000000000E+00 -0.00000000000E+00 -0.73686213107E+03  0.73686213107E+03  0.00000000000E+00 0. -1.
         23    2    1    2    0    0 -0.18252196057E+03  0.27683170664E+03 -0.44415927027E+03  0.56220719324E+03  0.94071307408E+02 0.  0.
         13    1    3    3    0    0 -0.13057849990E+03  0.11710110506E+03 -0.25136320111E+03  0.30650754039E+03  0.00000000000E+00 0. -1.
        -13    1    3    3    0    0 -0.51943460669E+02  0.15973060158E+03 -0.19279606916E+03  0.25569965285E+03  0.00000000000E+00 0.  1.
         22    1    1    2    0    0  0.18252196057E+03 -0.27683170664E+03 -0.11604947255E+03  0.35130832608E+03  0.00000000000E+00 0.  1.
<mgrwt>
<rscale>  0 0.72157936E+03</rscale>
<asrwt>0</asrwt>
<pdfrwt beam="1">  1        2 0.11336341E+00 0.72157936E+03</pdfrwt>
<pdfrwt beam="2">  1       -2 0.27177444E-01 0.72157936E+03</pdfrwt>
<totfact> 0.47501667E+02</totfact>
</mgrwt>
</event>
<event>
 6    1  0.1773638E-005  0.2939170E+04  0.7818608E-02  0.8261318E-01
          1   -1    0    0  501    0  0.00000000000E+00  0.00000000000E+00  0.17881418990E+04  0.17881418990E+04  0.00000000000E+00 0. -1.
         -1   -1    0    0    0  501 -0.00000000000E+00 -0.00000000000E+00 -0.12077792419E+04  0.12077792419E+04  0.00000000000E+00 0.  1.
         23    2    1    2    0    0  0.10475576012E+04  0.51424443596E+02 -0.75675506829E+03  0.12965373664E+04  0.91156502685E+02 0.  0.
         11    1    3    3    0    0  0.60603214450E+03  0.63426159188E+02 -0.47533903344E+03  0.77281630065E+03  0.00000000000E+00 0.  1.
        -11    1    3    3    0    0  0.44152545670E+03 -0.12001715592E+02 -0.28141603485E+03  0.52372106580E+03  0.00000000000E+00 0. -1.
         22    1    1    2    0    0 -0.10475576012E+04 -0.51424443596E+02  0.13371177254E+04  0.16993837745E+04  0.00000000000E+00 0. -1.
<mgrwt>
<rscale>  0 0.29391704E+04</rscale>
<asrwt>0</asrwt>
<pdfrwt beam="1">  1        1 0.27509875E+00 0.29391704E+04</pdfrwt>
<pdfrwt beam="2">  1       -1 0.18581219E+00 0.29391704E+04</pdfrwt>
<totfact> 0.67160865E-01</totfact>
</mgrwt>
</event>
<event>
 6    1  0.1773638E-005  0.4186210E+04  0.7818608E-02  0.7968001E-01
          2   -1    0    0  501    0  0.00000000000E+00  0.00000000000E+00  0.17973830190E+04  0.17973830190E+04  0.00000000000E+00 0. -1.
         -2   -1    0    0    0  501 -0.00000000000E+00 -0.00000000000E+00 -0.24374817130E+04  0.24374817130E+04  0.00000000000E+00 0.  1.
         23    2    1    2    0    0  0.69053305355E+03  0.96599500288E+03  0.14225961547E+04  0.18548033289E+04  0.80828990301E+02 0.  0.
         11    1    3    3    0    0  0.13084859114E+03  0.14864634940E+03  0.27333431394E+03  0.33753331416E+03  0.00000000000E+00 0. -1.
        -11    1    3    3    0    0  0.55968446241E+03  0.81734865349E+03  0.11492618408E+04  0.15172700147E+04  0.00000000000E+00 0.  1.
         22    1    1    2    0    0 -0.69053305355E+03 -0.96599500288E+03 -0.20626948487E+04  0.23800614031E+04  0.00000000000E+00 0.  1.
<mgrwt>
<rscale>  0 0.41862099E+04</rscale>
<asrwt>0</asrwt>
<pdfrwt beam="1">  1        2 0.27652046E+00 0.41862099E+04</pdfrwt>
<pdfrwt beam="2">  1       -2 0.37499719E+00 0.41862099E+04</pdfrwt>
<totfact> 0.72534793E-02</totfact>
</mgrwt>
</event>
<event>
 6    1  0.1773638E-005  0.1468948E+04  0.7818608E-02  0.8905369E-01
          2   -1    0    0  501    0  0.00000000000E+00  0.00000000000E+00  0.64314736056E+03  0.64314736056E+03  0.00000000000E+00 0. -1.
         -2   -1    0    0    0  501 -0.00000000000E+00 -0.00000000000E+00 -0.83876866208E+03  0.83876866208E+03  0.00000000000E+00 0.  1.
         23    2    1    2    0    0 -0.35998585018E+03 -0.59901688068E+03 -0.31631394671E+03  0.77270677970E+03  0.92791264881E+02 0.  0.
         13    1    3    3    0    0 -0.20552236986E+03 -0.32038800217E+03 -0.12280174544E+03  0.39996022944E+03  0.00000000000E+00 0. -1.
        -13    1    3    3    0    0 -0.15446348032E+03 -0.27862887852E+03 -0.19351220127E+03  0.37274655026E+03  0.00000000000E+00 0.  1.
         22    1    1    2    0    0  0.35998585018E+03  0.59901688068E+03  0.12069264520E+03  0.70920924294E+03  0.00000000000E+00 0. -1.
<mgrwt>
<rscale>  0 0.14689477E+04</rscale>
<asrwt>0</asrwt>
<pdfrwt beam="1">  1        2 0.98945748E-01 0.14689477E+04</pdfrwt>
<pdfrwt beam="2">  1       -2 0.12904133E+00 0.14689477E+04</pdfrwt>
<totfact> 0.19516246E+01</totfact>
</mgrwt>
</event>
<event>
 6    1  0.1773638E-005  0.1015512E+04  0.7818608E-02  0.9291693E-01
         -1   -1    0    0    0  501 -0.00000000000E+00  0.00000000000E+00  0.91374337147E+02  0.91374337147E+02  0.00000000000E+00 0.  1.
          1   -1    0    0  501    0  0.00000000000E+00 -0.00000000000E+00 -0.28215391875E+04  0.28215391875E+04  0.00000000000E+00 0. -1.
         23    2    1    2    0    0  0.20972767568E+03  0.13216720444E+03 -0.26335528864E+04  0.26468538707E+04  0.93705600109E+02 0.  0.
         11    1    3    3    0    0  0.64297581920E+02  0.92560690558E+02 -0.98573986905E+03  0.99216165513E+03  0.00000000000E+00 0.  1.
        -11    1    3    3    0    0  0.14543009376E+03  0.39606513880E+02 -0.16478130173E+04  0.16546922155E+04  0.00000000000E+00 0. -1.
         22    1    1    2    0    0 -0.20972767568E+03 -0.13216720444E+03 -0.96611963934E+02  0.26605965393E+03  0.00000000000E+00 0.  1.
<mgrwt>
<rscale>  0 0.10155122E+04</rscale>
<asrwt>0</asrwt>
<pdfrwt beam="1">  1        1 0.43408292E+00 0.10155122E+04</pdfrwt>
<pdfrwt beam="2">  1       -1 0.14057592E-01 0.10155122E+04</pdfrwt>
<totfact> 0.30001629E+01</totfact>
</mgrwt>
</event>
<event>
 6    1  0.1773638E-005  0.1926168E+04  0.7818608E-02  0.8641939E-01
         -2   -1    0    0    0  501 -0.00000000000E+00  0.00000000000E+00  0.15121110524E+04  0.15121110524E+04  0.00000000000E+00 0.  1.
          2   -1    0    0  501    0  0.00000000000E+00 -0.00000000000E+00 -0.61340149150E+03  0.61340149150E+03  0.00000000000E+00 0. -1.
         23    2    1    2    0    0  0.84633122750E+03  0.38874537168E+03  0.71171356167E+03  0.11755825389E+04  0.89769712606E+02 0.  0.
         13    1    3    3    0    0  0.54044868453E+03  0.25287709696E+03  0.40116168214E+03  0.71900090542E+03  0.00000000000E+00 0.  1.
        -13    1    3    3    0    0  0.30588254298E+03  0.13586827472E+03  0.31055187953E+03  0.45658163351E+03  0.00000000000E+00 0. -1.
         22    1    1    2    0    0 -0.84633122750E+03 -0.38874537168E+03  0.18699599926E+03  0.94993000499E+03  0.00000000000E+00 0. -1.
<mgrwt>
<rscale>  0 0.19261684E+04</rscale>
<asrwt>0</asrwt>
<pdfrwt beam="1">  1        2 0.94369460E-01 0.19261684E+04</pdfrwt>
<pdfrwt beam="2">  1       -2 0.23263247E+00 0.19261684E+04</pdfrwt>
<totfact> 0.37128598E+00</totfact>
</mgrwt>
</event>
<event>
 6    1  0.1773638E-005  0.2161372E+04  0.7818608E-02  0.8534680E-01
         -2   -1    0    0    0  501 -0.00000000000E+00  0.00000000000E+00  0.11206548266E+04  0.11206548266E+04  0.00000000000E+00 0.  1.
          2   -1    0    0  501    0  0.00000000000E+00 -0.00000000000E+00 -0.10421427363E+04  0.10421427363E+04  0.00000000000E+00 0. -1.
         23    2    1    2    0    0 -0.90701914386E+03  0.49208854626E+03  0.35388902422E+03  0.10947772820E+04  0.92005386078E+02 0.  0.
         13    1    3    3    0    0 -0.49668680672E+03  0.21734956776E+03  0.18899303448E+03  0.57415763136E+03  0.00000000000E+00 0.  1.
        -13    1    3    3    0    0 -0.41033233714E+03  0.27473897850E+03  0.16489598973E+03  0.52061965065E+03  0.00000000000E+00 0. -1.
         22    1    1    2    0    0  0.90701914386E+03 -0.49208854626E+03 -0.27537693397E+03  0.10680202809E+04  0.00000000000E+00 0. -1.
<mgrwt>
<rscale>  0 0.21613721E+04</rscale>
<asrwt>0</asrwt>
<pdfrwt beam="1">  1        2 0.16032965E+00 0.21613721E+04</pdfrwt>
<pdfrwt beam="2">  1       -2 0.17240844E+00 0.21613721E+04</pdfrwt>
<totfact> 0.44481995E+00</totfact>
</mgrwt>
</event>
<event>
 6    1  0.1773638E-005  0.7483999E+04  0.7818608E-02  0.7529481E-01
          2   -1    0    0  501    0  0.00000000000E+00  0.00000000000E+00  0.29144646262E+04  0.29144646262E+04  0.00000000000E+00 0. -1.
         -2   -1    0    0    0  501 -0.00000000000E+00 -0.00000000000E+00 -0.48045052557E+04  0.48045052557E+04  0.00000000000E+00 0.  1.
         23    2    1    2    0    0  0.22994188631E+04  0.20912454839E+03  0.20913158822E+04  0.31165509681E+04  0.90706304091E+02 0.  0.
         11    1    3    3    0    0  0.44383375933E+03  0.37779599849E+02  0.45261497960E+03  0.63504017498E+03  0.00000000000E+00 0. -1.
        -11    1    3    3    0    0  0.18555851037E+04  0.17134494854E+03  0.16387009026E+04  0.24815107932E+04  0.00000000000E+00 0.  1.
         22    1    1    2    0    0 -0.22994188631E+04 -0.20912454839E+03 -0.39813565116E+04  0.46024189137E+04  0.00000000000E+00 0.  1.
<mgrwt>
<rscale>  0 0.74839991E+04</rscale>
<asrwt>0</asrwt>
<pdfrwt beam="1">  1        2 0.44837918E+00 0.74839991E+04</pdfrwt>
<pdfrwt beam="2">  1       -2 0.73915465E+00 0.74839991E+04</pdfrwt>
<totfact> 0.19377645E-04</totfact>
</mgrwt>
</event>
<event>
 6    1  0.1773638E-005  0.2475614E+04  0.7818608E-02  0.8411725E-01
          1   -1    0    0  501    0  0.00000000000E+00  0.00000000000E+00  0.94371404548E+03  0.94371404548E+03  0.00000000000E+00 0. -1.
         -1   -1    0    0    0  501 -0.00000000000E+00 -0.00000000000E+00 -0.16235493087E+04  0.16235493087E+04  0.00000000000E+00 0.  1.
         23    2    1    2    0    0 -0.11959752069E+04 -0.23015559110E+03 -0.12050909366E+03  0.12270491714E+04  0.88311583979E+02 0.  0.
         11    1    3    3    0    0 -0.76367282173E+03 -0.12486661868E+03 -0.11319810153E+03  0.78204965398E+03  0.00000000000E+00 0. -1.
        -11    1    3    3    0    0 -0.43230238516E+03 -0.10528897242E+03 -0.73109921350E+01  0.44499951746E+03  0.00000000000E+00 0.  1.
         22    1    1    2    0    0  0.11959752069E+04  0.23015559110E+03 -0.55932616951E+03  0.13402141827E+04  0.00000000000E+00 0.  1.
<mgrwt>
<rscale>  0 0.24756141E+04</rscale>
<asrwt>0</asrwt>
<pdfrwt beam="1">  1        1 0.14518678E+00 0.24756141E+04</pdfrwt>
<pdfrwt beam="2">  1       -1 0.24977682E+00 0.24756141E+04</pdfrwt>
<totfact> 0.10442498E+00</totfact>
</mgrwt>
</event>
<event>
 6    1  0.1773638E-005  0.1413761E+04  0.7818608E-02  0.8943917E-01
         -2   -1    0    0    0  501 -0.00000000000E+00  0.00000000000E+00  0.35589538712E+03  0.35589538712E+03  0.00000000000E+00 0.  1.
          2   -1    0    0  501    0  0.00000000000E+00 -0.00000000000E+00 -0.14040087565E+04  0.14040087565E+04  0.00000000000E+00 0. -1.
         23    2    1    2    0    0 -0.37616373988E+03  0.19214887410E+03 -0.12272287748E+04  0.13010984359E+04  0.91358224736E+02 0.  0.
         11    1    3    3    0    0 -0.19801640807E+03  0.10466997446E+03 -0.78598174475E+03  0.81727205049E+03  0.00000000000E+00 0.  1.
        -11    1    3    3    0    0 -0.17814733181E+03  0.87478899643E+02 -0.44124703002E+03  0.48382638541E+03  0.00000000000E+00 0. -1.
         22    1    1    2    0    0  0.37616373988E+03 -0.19214887410E+03  0.17911540537E+03  0.45880570775E+03  0.00000000000E+00 0.  1.
<mgrwt>
<rscale>  0 0.14137613E+04</rscale>
<asrwt>0</asrwt>
<pdfrwt beam="1">  1        2 0.21600135E+00 0.14137613E+04</pdfrwt>
<pdfrwt beam="2">  1       -2 0.54753137E-01 0.14137613E+04</pdfrwt>
<totfact> 0.43915631E+01</totfact>
</mgrwt>
</event>
<event>
 6    1  0.1773638E-005  0.3122884E+04  0.7818608E-02  0.8209485E-01
          1   -1    0    0  501    0  0.00000000000E+00  0.00000000000E+00  0.12236118507E+04  0.12236118507E+04  0.00000000000E+00 0. -1.
         -1   -1    0    0    0  501 -0.00000000000E+00 -0.00000000000E+00 -0.19925447196E+04  0.19925447196E+04  0.00000000000E+00 0.  1.
         23    2    1    2    0    0 -0.10142221442E+04 -0.94725340978E+02  0.83199730798E+03  0.13186326892E+04  0.94621353519E+02 0.  0.
         13    1    3    3    0    0 -0.41660050967E+03 -0.71681906180E+02  0.38774876940E+03  0.57362303694E+03  0.00000000000E+00 0. -1.
        -13    1    3    3    0    0 -0.59762163448E+03 -0.23043434798E+02  0.44424853858E+03  0.74500965223E+03  0.00000000000E+00 0.  1.
         22    1    1    2    0    0  0.10142221442E+04  0.94725340978E+02 -0.16009301769E+04  0.18975238810E+04  0.00000000000E+00 0.  1.
<mgrwt>
<rscale>  0 0.31228841E+04</rscale>
<asrwt>0</asrwt>
<pdfrwt beam="1">  1        1 0.18824798E+00 0.31228841E+04</pdfrwt>
<pdfrwt beam="2">  1       -1 0.30654534E+00 0.31228841E+04</pdfrwt>
<totfact> 0.25896321E-01</totfact>
</mgrwt>
</event>
<event>
 6    1  0.1773638E-005  0.1744459E+04  0.7818608E-02  0.8736406E-01
         -1   -1    0    0    0  501 -0.00000000000E+00  0.00000000000E+00  0.73960986286E+03  0.73960986286E+03  0.00000000000E+00 0.  1.
          1   -1    0    0  501    0  0.00000000000E+00 -0.00000000000E+00 -0.10286291488E+04  0.10286291488E+04  0.00000000000E+00 0. -1.
         23    2    1    2    0    0  0.36939903805E+03  0.48339154832E+03  0.48522109680E+03  0.78357094142E+03  0.91765293854E+02 0.  0.
         13    1    3    3    0    0  0.53420611587E+01  0.28314342117E+02  0.68911718386E+01  0.29626471884E+02  0.00000000000E+00 0. -1.
        -13    1    3    3    0    0  0.36405697689E+03  0.45507720620E+03  0.47832992496E+03  0.75394446953E+03  0.00000000000E+00 0.  1.
         22    1    1    2    0    0 -0.36939903805E+03 -0.48339154832E+03 -0.77424038278E+03  0.98466807027E+03  0.00000000000E+00 0.  1.
<mgrwt>
<rscale>  0 0.17444590E+04</rscale>
<asrwt>0</asrwt>
<pdfrwt beam="1">  1        1 0.15825064E+00 0.17444590E+04</pdfrwt>
<pdfrwt beam="2">  1       -1 0.11378613E+00 0.17444590E+04</pdfrwt>
<totfact> 0.95969530E+00</totfact>
</mgrwt>
</event>
<event>
 6    1  0.1773638E-005  0.3393546E+04  0.7818608E-02  0.8139492E-01
          1   -1    0    0  501    0  0.00000000000E+00  0.00000000000E+00  0.20958202695E+04  0.20958202695E+04  0.00000000000E+00 0. -1.
         -1   -1    0    0    0  501 -0.00000000000E+00 -0.00000000000E+00 -0.13737046935E+04  0.13737046935E+04  0.00000000000E+00 0.  1.
         23    2    1    2    0    0  0.59080827723E+03 -0.13792756706E+04 -0.44599675644E+03  0.15679618646E+04  0.90197041450E+02 0.  0.
         13    1    3    3    0    0  0.56353914770E+03 -0.12930306121E+04 -0.39805768228E+03  0.14655901382E+04  0.00000000000E+00 0.  1.
        -13    1    3    3    0    0  0.27269129536E+02 -0.86245058430E+02 -0.47939074157E+02  0.10237172637E+03  0.00000000000E+00 0. -1.
         22    1    1    2    0    0 -0.59080827723E+03  0.13792756706E+04  0.11681123324E+04  0.19015630984E+04  0.00000000000E+00 0. -1.
<mgrwt>
<rscale>  0 0.33935457E+04</rscale>
<asrwt>0</asrwt>
<pdfrwt beam="1">  1        1 0.32243389E+00 0.33935457E+04</pdfrwt>
<pdfrwt beam="2">  1       -1 0.21133918E+00 0.33935457E+04</pdfrwt>
<totfact> 0.26584411E-01</totfact>
</mgrwt>
</event>
<event>
 6    1  0.1773638E-005  0.3591184E+04  0.7818608E-02  0.8092514E-01
          2   -1    0    0  501    0  0.00000000000E+00  0.00000000000E+00  0.38869956978E+04  0.38869956978E+04  0.00000000000E+00 0.  1.
         -2   -1    0    0    0  501 -0.00000000000E+00 -0.00000000000E+00 -0.82947115045E+03  0.82947115045E+03  0.00000000000E+00 0. -1.
         23    2    1    2    0    0  0.14940679685E+04  0.98393004579E+03  0.13459056481E+04  0.22405838370E+04  0.91632349244E+02 0.  0.
         13    1    3    3    0    0  0.31046849313E+03  0.24870815938E+03  0.28753452730E+03  0.49083860704E+03  0.00000000000E+00 0. -1.
        -13    1    3    3    0    0  0.11835994753E+04  0.73522188641E+03  0.10583711208E+04  0.17497452299E+04  0.00000000000E+00 0.  1.
         22    1    1    2    0    0 -0.14940679685E+04 -0.98393004579E+03  0.17116188993E+04  0.24758830113E+04  0.00000000000E+00 0. -1.
<mgrwt>
<rscale>  0 0.35911841E+04</rscale>
<asrwt>0</asrwt>
<pdfrwt beam="1">  1        2 0.59799933E+00 0.35911841E+04</pdfrwt>
<pdfrwt beam="2">  1       -2 0.12761095E+00 0.35911841E+04</pdfrwt>
<totfact> 0.15582086E-01</totfact>
</mgrwt>
</event>
<event>
 6    1  0.1773638E-005  0.4534149E+04  0.7818608E-02  0.7904685E-01
          2   -1    0    0  501    0  0.00000000000E+00  0.00000000000E+00  0.39690548157E+04  0.39690548157E+04  0.00000000000E+00 0. -1.
         -2   -1    0    0    0  501 -0.00000000000E+00 -0.00000000000E+00 -0.12949244781E+04  0.12949244781E+04  0.00000000000E+00 0.  1.
         23    2    1    2    0    0  0.10966254111E+04 -0.74888069555E+02  0.36383509856E+04  0.38018175473E+04  0.89572614980E+02 0.  0.
         13    1    3    3    0    0  0.48725928468E+03  0.10057311259E+02  0.16443526401E+04  0.17150563737E+04  0.00000000000E+00 0.  1.
        -13    1    3    3    0    0  0.60936612638E+03 -0.84945380813E+02  0.19939983455E+04  0.20867611735E+04  0.00000000000E+00 0. -1.
         22    1    1    2    0    0 -0.10966254111E+04  0.74888069555E+02 -0.96422064801E+03  0.14621617466E+04  0.00000000000E+00 0.  1.
<mgrwt>
<rscale>  0 0.45341488E+04</rscale>
<asrwt>0</asrwt>
<pdfrwt beam="1">  1        2 0.61062381E+00 0.45341488E+04</pdfrwt>
<pdfrwt beam="2">  1       -2 0.19921915E+00 0.45341488E+04</pdfrwt>
<totfact> 0.36698987E-02</totfact>
</mgrwt>
</event>
<event>
 6    1  0.1773638E-005  0.2358059E+04  0.7818608E-02  0.8455375E-01
          1   -1    0    0  501    0  0.00000000000E+00  0.00000000000E+00  0.23595691468E+04  0.23595691468E+04  0.00000000000E+00 0. -1.
         -1   -1    0    0    0  501 -0.00000000000E+00 -0.00000000000E+00 -0.58913760687E+03  0.58913760687E+03  0.00000000000E+00 0.  1.
         23    2    1    2    0    0 -0.71522862201E+03  0.83589666265E+03  0.36643831859E+03  0.11650385732E+04  0.11297178129E+03 0.  0.
         13    1    3    3    0    0 -0.54579258114E+02  0.11037794863E+03  0.60599562214E+02  0.13723882068E+03  0.00000000000E+00 0. -1.
        -13    1    3    3    0    0 -0.66064936390E+03  0.72551871402E+03  0.30583875638E+03  0.10277997525E+04  0.00000000000E+00 0.  1.
         22    1    1    2    0    0  0.71522862201E+03 -0.83589666265E+03  0.14039932213E+04  0.17836681804E+04  0.00000000000E+00 0.  1.
<mgrwt>
<rscale>  0 0.23580593E+04</rscale>
<asrwt>0</asrwt>
<pdfrwt beam="1">  1        1 0.36301063E+00 0.23580593E+04</pdfrwt>
<pdfrwt beam="2">  1       -1 0.90636556E-01 0.23580593E+04</pdfrwt>
<totfact> 0.18113287E+00</totfact>
</mgrwt>
</event>
<event>
 6    1  0.1773638E-005  0.3708644E+04  0.7818608E-02  0.8066049E-01
         -2   -1    0    0    0  501 -0.00000000000E+00  0.00000000000E+00  0.17784846219E+04  0.17784846219E+04  0.00000000000E+00 0.  1.
          2   -1    0    0  501    0  0.00000000000E+00 -0.00000000000E+00 -0.19333933364E+04  0.19333933364E+04  0.00000000000E+00 0. -1.
         23    2    1    2    0    0  0.17543254057E+04 -0.57422937354E+03  0.87241562488E+02  0.18501492565E+04  0.89689344431E+02 0.  0.
         11    1    3    3    0    0  0.11067307149E+04 -0.33676986980E+03  0.18599761895E+02  0.11569843438E+04  0.00000000000E+00 0.  1.
        -11    1    3    3    0    0  0.64759469078E+03 -0.23745950374E+03  0.68641800592E+02  0.69316491273E+03  0.00000000000E+00 0. -1.
         22    1    1    2    0    0 -0.17543254057E+04  0.57422937354E+03 -0.24215027703E+03  0.18617287018E+04  0.00000000000E+00 0. -1.
<mgrwt>
<rscale>  0 0.37086441E+04</rscale>
<asrwt>0</asrwt>
<pdfrwt beam="1">  1        2 0.29744513E+00 0.37086441E+04</pdfrwt>
<pdfrwt beam="2">  1       -2 0.27361302E+00 0.37086441E+04</pdfrwt>
<totfact> 0.27077890E-01</totfact>
</mgrwt>
</event>
<event>
 6    1  0.2062968E-005  0.3776461E+04  0.7818608E-02  0.8051225E-01
         -2   -1    0    0    0  501 -0.00000000000E+00  0.00000000000E+00  0.13169271283E+04  0.13169271283E+04  0.00000000000E+00 0.  1.
          2   -1    0    0  501    0  0.00000000000E+00 -0.00000000000E+00 -0.27073742404E+04  0.27073742404E+04  0.00000000000E+00 0. -1.
         23    2    1    2    0    0  0.89073724671E+03 -0.41336561704E+03 -0.24127610558E+04  0.26067648522E+04  0.97586405720E+02 0.  0.
         13    1    3    3    0    0  0.33348338991E+03 -0.20085350067E+03 -0.89284461569E+03  0.97402505504E+03  0.00000000000E+00 0.  1.
        -13    1    3    3    0    0  0.55725385680E+03 -0.21251211637E+03 -0.15199164401E+04  0.16327397972E+04  0.00000000000E+00 0. -1.
         22    1    1    2    0    0 -0.89073724671E+03  0.41336561704E+03  0.10223139437E+04  0.14175365165E+04  0.00000000000E+00 0.  1.
<mgrwt>
<rscale>  0 0.37764611E+04</rscale>
<asrwt>0</asrwt>
<pdfrwt beam="1">  1        2 0.41651911E+00 0.37764611E+04</pdfrwt>
<pdfrwt beam="2">  1       -2 0.20260418E+00 0.37764611E+04</pdfrwt>
<totfact> 0.26998942E-01</totfact>
</mgrwt>
</event>
<event>
 6    1  0.1773638E-005  0.2086871E+04  0.7818608E-02  0.8567049E-01
          2   -1    0    0  501    0  0.00000000000E+00  0.00000000000E+00  0.22387812580E+04  0.22387812580E+04  0.00000000000E+00 0. -1.
         -2   -1    0    0    0  501 -0.00000000000E+00 -0.00000000000E+00 -0.48631698629E+03  0.48631698629E+03  0.00000000000E+00 0.  1.
         23    2    1    2    0    0  0.18656859532E+03  0.38267643985E+03 -0.36406991126E+03  0.56617118530E+03  0.82181581909E+02 0.  0.
         13    1    3    3    0    0  0.42409925262E+02  0.10389995934E+03 -0.52363068769E+02  0.12383737030E+03  0.00000000000E+00 0.  1.
        -13    1    3    3    0    0  0.14415867006E+03  0.27877648050E+03 -0.31170684249E+03  0.44233381500E+03  0.00000000000E+00 0. -1.
         22    1    1    2    0    0 -0.18656859532E+03 -0.38267643985E+03  0.21165341829E+04  0.21589270589E+04  0.00000000000E+00 0. -1.
<mgrwt>
<rscale>  0 0.20868707E+04</rscale>
<asrwt>0</asrwt>
<pdfrwt beam="1">  1        2 0.34442788E+00 0.20868707E+04</pdfrwt>
<pdfrwt beam="2">  1       -2 0.74817999E-01 0.20868707E+04</pdfrwt>
<totfact> 0.72723345E+00</totfact>
</mgrwt>
</event>
<event>
 6    1  0.1773638E-005  0.1592239E+04  0.7818608E-02  0.8825330E-01
         -1   -1    0    0    0  501 -0.00000000000E+00  0.00000000000E+00  0.22541806015E+03  0.22541806015E+03  0.00000000000E+00 0.  1.
          1   -1    0    0  501    0  0.00000000000E+00 -0.00000000000E+00 -0.28116918897E+04  0.28116918897E+04  0.00000000000E+00 0. -1.
         23    2    1    2    0    0  0.35408930907E+03 -0.46822385861E+03 -0.27687099642E+03  0.65426411635E+03  0.82408523342E+02 0.  0.
         13    1    3    3    0    0  0.23811654454E+03 -0.30520015768E+03 -0.22436939132E+03  0.44742401454E+03  0.00000000000E+00 0.  1.
        -13    1    3    3    0    0  0.11597276453E+03 -0.16302370093E+03 -0.52501605100E+02  0.20684010180E+03  0.00000000000E+00 0. -1.
         22    1    1    2    0    0 -0.35408930907E+03  0.46822385861E+03 -0.23094028331E+04  0.23828458335E+04  0.00000000000E+00 0. -1.
<mgrwt>
<rscale>  0 0.15922388E+04</rscale>
<asrwt>0</asrwt>
<pdfrwt beam="1">  1        1 0.43256799E+00 0.15922388E+04</pdfrwt>
<pdfrwt beam="2">  1       -1 0.34679701E-01 0.15922388E+04</pdfrwt>
<totfact> 0.62156490E+00</totfact>
</mgrwt>
</event>
<event>
 6    1  0.1773638E-005  0.4241908E+04  0.7818608E-02  0.7957448E-01
         -2   -1    0    0    0  501 -0.00000000000E+00  0.00000000000E+00  0.18448393588E+04  0.18448393588E+04  0.00000000000E+00 0.  1.
          2   -1    0    0  501    0  0.00000000000E+00 -0.00000000000E+00 -0.24383940880E+04  0.24383940880E+04  0.00000000000E+00 0. -1.
         23    2    1    2    0    0  0.44631000397E+03 -0.14624102202E+04 -0.17797662788E+04  0.23480502223E+04  0.89081803120E+02 0.  0.
         11    1    3    3    0    0  0.21767051231E+03 -0.81234967371E+03 -0.10295337616E+04  0.13293728636E+04  0.00000000000E+00 0.  1.
        -11    1    3    3    0    0  0.22863949166E+03 -0.65006054647E+03 -0.75023251720E+03  0.10186773587E+04  0.00000000000E+00 0. -1.
         22    1    1    2    0    0 -0.44631000397E+03  0.14624102202E+04  0.11862115496E+04  0.19351832244E+04  0.00000000000E+00 0.  1.
<mgrwt>
<rscale>  0 0.42419078E+04</rscale>
<asrwt>0</asrwt>
<pdfrwt beam="1">  1        2 0.37513755E+00 0.42419078E+04</pdfrwt>
<pdfrwt beam="2">  1       -2 0.28382144E+00 0.42419078E+04</pdfrwt>
<totfact> 0.11667617E-01</totfact>
</mgrwt>
</event>
<event>
 6    1  0.1773638E-005  0.2181215E+04  0.7818608E-02  0.8526288E-01
         -2   -1    0    0    0  501 -0.00000000000E+00  0.00000000000E+00  0.88087117408E+03  0.88087117408E+03  0.00000000000E+00 0.  1.
          2   -1    0    0  501    0  0.00000000000E+00 -0.00000000000E+00 -0.13502816804E+04  0.13502816804E+04  0.00000000000E+00 0. -1.
         23    2    1    2    0    0  0.32031138008E+03  0.90757940725E+03 -0.75573310712E+03  0.12270211935E+04  0.90270258300E+02 0.  0.
         13    1    3    3    0    0  0.33399417978E+02  0.20599598159E+03 -0.16309129736E+03  0.26485587935E+03  0.00000000000E+00 0. -1.
        -13    1    3    3    0    0  0.28691196210E+03  0.70158342566E+03 -0.59264180975E+03  0.96216531419E+03  0.00000000000E+00 0.  1.
         22    1    1    2    0    0 -0.32031138008E+03 -0.90757940725E+03  0.28632260085E+03  0.10041316609E+04  0.00000000000E+00 0.  1.
<mgrwt>
<rscale>  0 0.21812145E+04</rscale>
<asrwt>0</asrwt>
<pdfrwt beam="1">  1        2 0.20773564E+00 0.21812145E+04</pdfrwt>
<pdfrwt beam="2">  1       -2 0.13551864E+00 0.21812145E+04</pdfrwt>
<totfact> 0.55285545E+00</totfact>
</mgrwt>
</event>
<event>
 6    1  0.1773638E-005  0.1533065E+04  0.7818608E-02  0.8862758E-01
         -1   -1    0    0    0  501 -0.00000000000E+00  0.00000000000E+00  0.28480507357E+03  0.28480507357E+03  0.00000000000E+00 0.  1.
          1   -1    0    0  501    0  0.00000000000E+00 -0.00000000000E+00 -0.20630662426E+04  0.20630662426E+04  0.00000000000E+00 0. -1.
         23    2    1    2    0    0 -0.33877529299E+03 -0.56932854487E+03 -0.14744290050E+04  0.16190245044E+04  0.91628401467E+02 0.  0.
         13    1    3    3    0    0 -0.20627958846E+03 -0.38228644301E+03 -0.86573116148E+03  0.96859931709E+03  0.00000000000E+00 0.  1.
        -13    1    3    3    0    0 -0.13249570453E+03 -0.18704210187E+03 -0.60869784353E+03  0.65042518732E+03  0.00000000000E+00 0. -1.
         22    1    1    2    0    0  0.33877529299E+03  0.56932854487E+03 -0.30383216407E+03  0.72884681180E+03  0.00000000000E+00 0.  1.
<mgrwt>
<rscale>  0 0.15330646E+04</rscale>
<asrwt>0</asrwt>
<pdfrwt beam="1">  1        1 0.31739480E+00 0.15330646E+04</pdfrwt>
<pdfrwt beam="2">  1       -1 0.43816166E-01 0.15330646E+04</pdfrwt>
<totfact> 0.13417931E+01</totfact>
</mgrwt>
</event>
<event>
 6    1  0.1773638E-005  0.2482165E+04  0.7818608E-02  0.8409367E-01
          2   -1    0    0  501    0  0.00000000000E+00  0.00000000000E+00  0.25625582309E+04  0.25625582309E+04  0.00000000000E+00 0.  1.
         -2   -1    0    0    0  501 -0.00000000000E+00 -0.00000000000E+00 -0.60107361267E+03  0.60107361267E+03  0.00000000000E+00 0. -1.
         23    2    1    2    0    0 -0.12226305463E+04  0.12742984633E+02  0.72381132387E+03  0.14238551280E+04  0.92047577474E+02 0.  0.
         11    1    3    3    0    0 -0.46137274553E+03  0.45009183053E+02  0.29641031547E+03  0.55022696408E+03  0.00000000000E+00 0.  1.
        -11    1    3    3    0    0 -0.76125780079E+03 -0.32266198420E+02  0.42740100839E+03  0.87362816392E+03  0.00000000000E+00 0. -1.
         22    1    1    2    0    0  0.12226305463E+04 -0.12742984633E+02  0.12376732944E+04  0.17397767156E+04  0.00000000000E+00 0. -1.
<mgrwt>
<rscale>  0 0.24821653E+04</rscale>
<asrwt>0</asrwt>
<pdfrwt beam="1">  1        2 0.39423972E+00 0.24821653E+04</pdfrwt>
<pdfrwt beam="2">  1       -2 0.92472865E-01 0.24821653E+04</pdfrwt>
<totfact> 0.28371563E+00</totfact>
</mgrwt>
</event>
<event>
 6    1  0.1773638E-005  0.1690632E+04  0.7818608E-02  0.8766725E-01
         -1   -1    0    0    0  501 -0.00000000000E+00  0.00000000000E+00  0.76231994773E+03  0.76231994773E+03  0.00000000000E+00 0.  1.
          1   -1    0    0  501    0  0.00000000000E+00 -0.00000000000E+00 -0.93734854083E+03  0.93734854083E+03  0.00000000000E+00 0. -1.
         23    2    1    2    0    0  0.56038751565E+03  0.39541212546E+03  0.40511010374E+03  0.80136685535E+03  0.87691071616E+02 0.  0.
         13    1    3    3    0    0  0.45332805734E+03  0.27838483785E+03  0.29520498107E+03  0.60839989018E+03  0.00000000000E+00 0.  1.
        -13    1    3    3    0    0  0.10705945831E+03  0.11702728760E+03  0.10990512268E+03  0.19296696517E+03  0.00000000000E+00 0. -1.
         22    1    1    2    0    0 -0.56038751565E+03 -0.39541212546E+03 -0.58013869684E+03  0.89830163321E+03  0.00000000000E+00 0. -1.
<mgrwt>
<rscale>  0 0.16906324E+04</rscale>
<asrwt>0</asrwt>
<pdfrwt beam="1">  1        1 0.14420747E+00 0.16906324E+04</pdfrwt>
<pdfrwt beam="2">  1       -1 0.11727999E+00 0.16906324E+04</pdfrwt>
<totfact> 0.10581007E+01</totfact>
</mgrwt>
</event>
<event>
 6    1  0.1773638E-005  0.1748285E+04  0.7818608E-02  0.8734295E-01
         -2   -1    0    0    0  501 -0.00000000000E+00  0.00000000000E+00  0.42106181527E+03  0.42106181527E+03  0.00000000000E+00 0.  1.
          2   -1    0    0  501    0  0.00000000000E+00 -0.00000000000E+00 -0.18147568138E+04  0.18147568138E+04  0.00000000000E+00 0. -1.
         23    2    1    2    0    0 -0.83213731669E+02 -0.74824412774E+03 -0.13669223388E+03  0.77060541926E+03  0.91401015104E+02 0.  0.
         13    1    3    3    0    0 -0.99957522886E+02 -0.53377566550E+03 -0.10606136836E+03  0.55331454103E+03  0.00000000000E+00 0.  1.
        -13    1    3    3    0    0  0.16743791217E+02 -0.21446846223E+03 -0.30630865521E+02  0.21729087823E+03  0.00000000000E+00 0. -1.
         22    1    1    2    0    0  0.83213731669E+02  0.74824412774E+03 -0.12570027646E+04  0.14652132098E+04  0.00000000000E+00 0. -1.
<mgrwt>
<rscale>  0 0.17482846E+04</rscale>
<asrwt>0</asrwt>
<pdfrwt beam="1">  1        2 0.27919335E+00 0.17482846E+04</pdfrwt>
<pdfrwt beam="2">  1       -2 0.64778741E-01 0.17482846E+04</pdfrwt>
<totfact> 0.17651087E+01</totfact>
</mgrwt>
</event>
<event>
 6    1  0.1773638E-005  0.3715939E+04  0.7818608E-02  0.8064439E-01
         -2   -1    0    0    0  501 -0.00000000000E+00  0.00000000000E+00  0.26300144132E+04  0.26300144132E+04  0.00000000000E+00 0. -1.
          2   -1    0    0  501    0  0.00000000000E+00 -0.00000000000E+00 -0.13125594412E+04  0.13125594412E+04  0.00000000000E+00 0.  1.
         23    2    1    2    0    0  0.27010219580E+02  0.11352482081E+04  0.22177945045E+04  0.24933915609E+04  0.94185805523E+02 0.  0.
         13    1    3    3    0    0  0.60916873168E+02  0.67159586193E+03  0.12883297401E+04  0.14541476494E+04  0.00000000000E+00 0. -1.
        -13    1    3    3    0    0 -0.33906653588E+02  0.46365234615E+03  0.92946476439E+03  0.10392439115E+04  0.00000000000E+00 0.  1.
         22    1    1    2    0    0 -0.27010219580E+02 -0.11352482081E+04 -0.90033953254E+03  0.14491822935E+04  0.00000000000E+00 0.  1.
<mgrwt>
<rscale>  0 0.37159388E+04</rscale>
<asrwt>0</asrwt>
<pdfrwt beam="1">  1        2 0.20193222E+00 0.37159388E+04</pdfrwt>
<pdfrwt beam="2">  1       -2 0.40461760E+00 0.37159388E+04</pdfrwt>
<totfact> 0.90784391E-02</totfact>
</mgrwt>
</event>
<event>
 6    1  0.1773638E-005  0.2708770E+04  0.7818608E-02  0.8332165E-01
          2   -1    0    0  501    0  0.00000000000E+00  0.00000000000E+00  0.23308340786E+04  0.23308340786E+04  0.00000000000E+00 0. -1.
         -2   -1    0    0    0  501 -0.00000000000E+00 -0.00000000000E+00 -0.78699679482E+03  0.78699679482E+03  0.00000000000E+00 0.  1.
         23    2    1    2    0    0  0.93969189451E+03 -0.13595197872E+03  0.18819841011E+04  0.21099384847E+04  0.92045941897E+02 0.  0.
         11    1    3    3    0    0  0.47515771554E+03 -0.25516580576E+02  0.90185564692E+03  0.10196909132E+04  0.00000000000E+00 0.  1.
        -11    1    3    3    0    0  0.46453417897E+03 -0.11043539814E+03  0.98012845418E+03  0.10902475716E+04  0.00000000000E+00 0. -1.
         22    1    1    2    0    0 -0.93969189451E+03  0.13595197872E+03 -0.33814681731E+03  0.10078923887E+04  0.00000000000E+00 0.  1.
<mgrwt>
<rscale>  0 0.27087702E+04</rscale>
<asrwt>0</asrwt>
<pdfrwt beam="1">  1        2 0.35858985E+00 0.27087702E+04</pdfrwt>
<pdfrwt beam="2">  1       -2 0.12107643E+00 0.27087702E+04</pdfrwt>
<totfact> 0.19820727E+00</totfact>
</mgrwt>
</event>
<event>
 6    1  0.1773638E-005  0.2936955E+04  0.7818608E-02  0.8261966E-01
          1   -1    0    0  501    0  0.00000000000E+00  0.00000000000E+00  0.30376144596E+04  0.30376144596E+04  0.00000000000E+00 0. -1.
         -1   -1    0    0    0  501 -0.00000000000E+00 -0.00000000000E+00 -0.70990788024E+03  0.70990788024E+03  0.00000000000E+00 0.  1.
         23    2    1    2    0    0  0.13691848679E+04  0.11298267446E+03  0.18214277642E+04  0.22833671138E+04  0.93455812183E+02 0.  0.
         13    1    3    3    0    0  0.32304181954E+03  0.64772327927E+02  0.41614440083E+03  0.53078021250E+03  0.00000000000E+00 0.  1.
        -13    1    3    3    0    0  0.10461430484E+04  0.48210346533E+02  0.14052833634E+04  0.17525869013E+04  0.00000000000E+00 0. -1.
         22    1    1    2    0    0 -0.13691848679E+04 -0.11298267446E+03  0.50627881510E+03  0.14641552260E+04  0.00000000000E+00 0.  1.
<mgrwt>
<rscale>  0 0.29369552E+04</rscale>
<asrwt>0</asrwt>
<pdfrwt beam="1">  1        1 0.46732530E+00 0.29369552E+04</pdfrwt>
<pdfrwt beam="2">  1       -1 0.10921660E+00 0.29369552E+04</pdfrwt>
<totfact> 0.37232787E-01</totfact>
</mgrwt>
</event>
<event>
 6    1  0.1773638E-005  0.1630399E+04  0.7818608E-02  0.8802087E-01
         -1   -1    0    0    0  501 -0.00000000000E+00  0.00000000000E+00  0.13809722033E+04  0.13809722033E+04  0.00000000000E+00 0.  1.
          1   -1    0    0  501    0  0.00000000000E+00 -0.00000000000E+00 -0.48121923954E+03  0.48121923954E+03  0.00000000000E+00 0. -1.
         23    2    1    2    0    0  0.15638052049E+03 -0.77042166748E+03  0.21597564257E+03  0.82029133348E+03  0.90708217277E+02 0.  0.
         11    1    3    3    0    0  0.92947918415E+02 -0.62659315241E+03  0.15910913867E+03  0.65312633708E+03  0.00000000000E+00 0.  1.
        -11    1    3    3    0    0  0.63432602074E+02 -0.14382851508E+03  0.56866503898E+02  0.16716499640E+03  0.00000000000E+00 0. -1.
         22    1    1    2    0    0 -0.15638052049E+03  0.77042166748E+03  0.68377732123E+03  0.10419001094E+04  0.00000000000E+00 0.  1.
<mgrwt>
<rscale>  0 0.16303992E+04</rscale>
<asrwt>0</asrwt>
<pdfrwt beam="1">  1        1 0.74033730E-01 0.16303992E+04</pdfrwt>
<pdfrwt beam="2">  1       -1 0.21245726E+00 0.16303992E+04</pdfrwt>
<totfact> 0.55319409E+00</totfact>
</mgrwt>
</event>
<event>
 6    1  0.1773638E-005  0.3459299E+04  0.7818608E-02  0.8123504E-01
         -1   -1    0    0    0  501 -0.00000000000E+00  0.00000000000E+00  0.91299947290E+03  0.91299947290E+03  0.00000000000E+00 0.  1.
          1   -1    0    0  501    0  0.00000000000E+00 -0.00000000000E+00 -0.32767671947E+04  0.32767671947E+04  0.00000000000E+00 0. -1.
         23    2    1    2    0    0  0.11153881049E+04 -0.10460320835E+04 -0.20667475919E+03  0.15456555138E+04  0.89792912037E+02 0.  0.
         11    1    3    3    0    0  0.39859685726E+03 -0.39857153435E+03 -0.36507843518E+02  0.56486418301E+03  0.00000000000E+00 0.  1.
        -11    1    3    3    0    0  0.71679124763E+03 -0.64746054915E+03 -0.17016691567E+03  0.98079133080E+03  0.00000000000E+00 0. -1.
         22    1    1    2    0    0 -0.11153881049E+04  0.10460320835E+04 -0.21570929626E+04  0.26441111538E+04  0.00000000000E+00 0. -1.
<mgrwt>
<rscale>  0 0.34592986E+04</rscale>
<asrwt>0</asrwt>
<pdfrwt beam="1">  1        1 0.50411804E+00 0.34592986E+04</pdfrwt>
<pdfrwt beam="2">  1       -1 0.14046146E+00 0.34592986E+04</pdfrwt>
<totfact> 0.12639062E-01</totfact>
</mgrwt>
</event>
<event>
 6    1  0.1773638E-005  0.1740669E+04  0.7818608E-02  0.8738504E-01
          2   -1    0    0  501    0  0.00000000000E+00  0.00000000000E+00  0.17645050399E+04  0.17645050399E+04  0.00000000000E+00 0. -1.
         -2   -1    0    0    0  501 -0.00000000000E+00 -0.00000000000E+00 -0.42928851272E+03  0.42928851272E+03  0.00000000000E+00 0.  1.
         23    2    1    2    0    0 -0.57689570646E+03 -0.43977510688E+03  0.68800494371E+02  0.73433462244E+03  0.91120957721E+02 0.  0.
         13    1    3    3    0    0 -0.19197076646E+03 -0.18281282342E+03  0.58171019713E+02  0.27139854664E+03  0.00000000000E+00 0. -1.
        -13    1    3    3    0    0 -0.38492494000E+03 -0.25696228345E+03  0.10629474658E+02  0.46293607580E+03  0.00000000000E+00 0.  1.
         22    1    1    2    0    0  0.57689570646E+03  0.43977510688E+03  0.12664160328E+04  0.14594589302E+04  0.00000000000E+00 0. -1.
<mgrwt>
<rscale>  0 0.17406685E+04</rscale>
<asrwt>0</asrwt>
<pdfrwt beam="1">  1        2 0.27146231E+00 0.17406685E+04</pdfrwt>
<pdfrwt beam="2">  1       -2 0.66044387E-01 0.17406685E+04</pdfrwt>
<totfact> 0.18064281E+01</totfact>
</mgrwt>
</event>
<event>
 6    1  0.1773638E-005  0.1104857E+04  0.7818608E-02  0.9200471E-01
          2   -1    0    0  501    0  0.00000000000E+00  0.00000000000E+00  0.58434145889E+03  0.58434145889E+03  0.00000000000E+00 0.  1.
         -2   -1    0    0    0  501 -0.00000000000E+00 -0.00000000000E+00 -0.52225815102E+03  0.52225815102E+03  0.00000000000E+00 0. -1.
         23    2    1    2    0    0 -0.17616717817E+03 -0.95643000917E+02 -0.48006679606E+03  0.52857781666E+03  0.93530322903E+02 0.  0.
         11    1    3    3    0    0 -0.68326752969E+02 -0.74310787866E+02 -0.15101176638E+03  0.18164578704E+03  0.00000000000E+00 0. -1.
        -11    1    3    3    0    0 -0.10784042520E+03 -0.21332213051E+02 -0.32905502968E+03  0.34693202963E+03  0.00000000000E+00 0.  1.
         22    1    1    2    0    0  0.17616717817E+03  0.95643000917E+02  0.54215010393E+03  0.57802179325E+03  0.00000000000E+00 0.  1.
<mgrwt>
<rscale>  0 0.11048567E+04</rscale>
<asrwt>0</asrwt>
<pdfrwt beam="1">  1        2 0.89898686E-01 0.11048567E+04</pdfrwt>
<pdfrwt beam="2">  1       -2 0.80347408E-01 0.11048567E+04</pdfrwt>
<totfact> 0.69618017E+01</totfact>
</mgrwt>
</event>
<event>
 6    1  0.1773638E-005  0.1291237E+04  0.7818608E-02  0.9036543E-01
          1   -1    0    0  501    0  0.00000000000E+00  0.00000000000E+00  0.11352618060E+04  0.11352618060E+04  0.00000000000E+00 0. -1.
         -1   -1    0    0    0  501 -0.00000000000E+00 -0.00000000000E+00 -0.36716063092E+03  0.36716063092E+03  0.00000000000E+00 0.  1.
         23    2    1    2    0    0  0.29406773354E+03 -0.21768734039E+03 -0.22905525638E+03  0.44026211057E+03  0.86607190521E+02 0.  0.
         11    1    3    3    0    0  0.13580334179E+03 -0.14852276234E+03 -0.14587770012E+03  0.24855957428E+03  0.00000000000E+00 0. -1.
        -11    1    3    3    0    0  0.15826439175E+03 -0.69164578052E+02 -0.83177556261E+02  0.19170253629E+03  0.00000000000E+00 0.  1.
         22    1    1    2    0    0 -0.29406773354E+03  0.21768734039E+03  0.99715643144E+03  0.10621603263E+04  0.00000000000E+00 0. -1.
<mgrwt>
<rscale>  0 0.12912373E+04</rscale>
<asrwt>0</asrwt>
<pdfrwt beam="1">  1        1 0.17465566E+00 0.12912373E+04</pdfrwt>
<pdfrwt beam="2">  1       -1 0.56486251E-01 0.12912373E+04</pdfrwt>
<totfact> 0.37199282E+01</totfact>
</mgrwt>
</event>
<event>
 6    1  0.1773638E-005  0.9582741E+03  0.7818608E-02  0.9355531E-01
         -2   -1    0    0    0  501 -0.00000000000E+00  0.00000000000E+00  0.33655252030E+03  0.33655252030E+03  0.00000000000E+00 0. -1.
          2   -1    0    0  501    0  0.00000000000E+00 -0.00000000000E+00 -0.68212923950E+03  0.68212923950E+03  0.00000000000E+00 0.  1.
         23    2    1    2    0    0 -0.76884399413E+02 -0.14357947610E+03  0.30024669174E+03  0.35263810136E+03  0.87631488649E+02 0.  0.
         11    1    3    3    0    0 -0.21431009241E+02 -0.69642977578E+02  0.57271879213E+02  0.92679558866E+02  0.00000000000E+00 0.  1.
        -11    1    3    3    0    0 -0.55453390172E+02 -0.73936498519E+02  0.24297481253E+03  0.25995854250E+03  0.00000000000E+00 0. -1.
         22    1    1    2    0    0  0.76884399413E+02  0.14357947610E+03 -0.64582341094E+03  0.66604365844E+03  0.00000000000E+00 0.  1.
<mgrwt>
<rscale>  0 0.95827410E+03</rscale>
<asrwt>0</asrwt>
<pdfrwt beam="1">  1        2 0.10494296E+00 0.95827410E+03</pdfrwt>
<pdfrwt beam="2">  1       -2 0.51777311E-01 0.95827410E+03</pdfrwt>
<totfact> 0.14923564E+02</totfact>
</mgrwt>
</event>
<event>
 6    1  0.1773638E-005  0.3899421E+04  0.7818608E-02  0.8025150E-01
          2   -1    0    0  501    0  0.00000000000E+00  0.00000000000E+00  0.18915524644E+04  0.18915524644E+04  0.00000000000E+00 0. -1.
         -2   -1    0    0    0  501 -0.00000000000E+00 -0.00000000000E+00 -0.20096565728E+04  0.20096565728E+04  0.00000000000E+00 0.  1.
         23    2    1    2    0    0 -0.12977303640E+04 -0.14055165220E+04  0.31194209784E+03  0.19404641453E+04  0.92262859628E+02 0.  0.
         11    1    3    3    0    0 -0.85308189398E+03 -0.97571770653E+03  0.23651279483E+03  0.13174642548E+04  0.00000000000E+00 0.  1.
        -11    1    3    3    0    0 -0.44464847007E+03 -0.42979881549E+03  0.75429303008E+02  0.62299989044E+03  0.00000000000E+00 0. -1.
         22    1    1    2    0    0  0.12977303640E+04  0.14055165220E+04 -0.43004620628E+03  0.19607448919E+04  0.00000000000E+00 0.  1.
<mgrwt>
<rscale>  0 0.38994209E+04</rscale>
<asrwt>0</asrwt>
<pdfrwt beam="1">  1        2 0.29100807E+00 0.38994209E+04</pdfrwt>
<pdfrwt beam="2">  1       -2 0.30917793E+00 0.38994209E+04</pdfrwt>
<totfact> 0.17042777E-01</totfact>
</mgrwt>
</event>
<event>
 6    1  0.1773638E-005  0.3936374E+04  0.7818608E-02  0.8017506E-01
          1   -1    0    0  501    0  0.00000000000E+00  0.00000000000E+00  0.29499593004E+04  0.29499593004E+04  0.00000000000E+00 0. -1.
         -1   -1    0    0    0  501 -0.00000000000E+00 -0.00000000000E+00 -0.13131568885E+04  0.13131568885E+04  0.00000000000E+00 0.  1.
         23    2    1    2    0    0 -0.82081367283E+03  0.12914350862E+04  0.21575903541E+04  0.26467128519E+04  0.91395389995E+02 0.  0.
         13    1    3    3    0    0 -0.61136812948E+03  0.96260537905E+03  0.15372032719E+04  0.19139942541E+04  0.00000000000E+00 0. -1.
        -13    1    3    3    0    0 -0.20944554335E+03  0.32882970711E+03  0.62038708212E+03  0.73271859781E+03  0.00000000000E+00 0.  1.
         22    1    1    2    0    0  0.82081367283E+03 -0.12914350862E+04 -0.52078794206E+03  0.16164033370E+04  0.00000000000E+00 0.  1.
<mgrwt>
<rscale>  0 0.39363736E+04</rscale>
<asrwt>0</asrwt>
<pdfrwt beam="1">  1        1 0.45383989E+00 0.39363736E+04</pdfrwt>
<pdfrwt beam="2">  1       -1 0.20202414E+00 0.39363736E+04</pdfrwt>
<totfact> 0.74500991E-02</totfact>
</mgrwt>
</event>
<event>
 6    1  0.1773638E-005  0.1610284E+04  0.7818608E-02  0.8814255E-01
         -2   -1    0    0    0  501 -0.00000000000E+00  0.00000000000E+00  0.12390219833E+04  0.12390219833E+04  0.00000000000E+00 0.  1.
          2   -1    0    0  501    0  0.00000000000E+00 -0.00000000000E+00 -0.52319767915E+03  0.52319767915E+03  0.00000000000E+00 0. -1.
         23    2    1    2    0    0  0.20635529213E+02 -0.23666549892E+03 -0.47997695467E+03  0.54304902876E+03  0.89933237336E+02 0.  0.
         11    1    3    3    0    0  0.63706931755E+01 -0.13643799039E+03 -0.36572072094E+03  0.39039410430E+03  0.00000000000E+00 0. -1.
        -11    1    3    3    0    0  0.14264836038E+02 -0.10022750853E+03 -0.11425623373E+03  0.15265492446E+03  0.00000000000E+00 0.  1.
         22    1    1    2    0    0 -0.20635529213E+02  0.23666549892E+03  0.11958012588E+04  0.12191706337E+04  0.00000000000E+00 0.  1.
<mgrwt>
<rscale>  0 0.16102837E+04</rscale>
<asrwt>0</asrwt>
<pdfrwt beam="1">  1        2 0.80491951E-01 0.16102837E+04</pdfrwt>
<pdfrwt beam="2">  1       -2 0.19061877E+00 0.16102837E+04</pdfrwt>
<totfact> 0.85818043E+00</totfact>
</mgrwt>
</event>
<event>
 6    1  0.1773638E-005  0.3775832E+04  0.7818608E-02  0.8051361E-01
          2   -1    0    0  501    0  0.00000000000E+00  0.00000000000E+00  0.35370026981E+04  0.35370026981E+04  0.00000000000E+00 0. -1.
         -2   -1    0    0    0  501 -0.00000000000E+00 -0.00000000000E+00 -0.10076969994E+04  0.10076969994E+04  0.00000000000E+00 0.  1.
         23    2    1    2    0    0 -0.72800903250E+03  0.14383582962E+04  0.24457033200E+04  0.29304317218E+04  0.84223551845E+02 0.  0.
         11    1    3    3    0    0 -0.17688205949E+03  0.33940565526E+03  0.64690672576E+03  0.75164604278E+03  0.00000000000E+00 0. -1.
        -11    1    3    3    0    0 -0.55112697300E+03  0.10989526409E+04  0.17987965943E+04  0.21787856790E+04  0.00000000000E+00 0.  1.
         22    1    1    2    0    0  0.72800903250E+03 -0.14383582962E+04  0.83602378684E+02  0.16142679757E+04  0.00000000000E+00 0.  1.
<mgrwt>
<rscale>  0 0.37758321E+04</rscale>
<asrwt>0</asrwt>
<pdfrwt beam="1">  1        2 0.54415425E+00 0.37758321E+04</pdfrwt>
<pdfrwt beam="2">  1       -2 0.15503031E+00 0.37758321E+04</pdfrwt>
<totfact> 0.16846353E-01</totfact>
</mgrwt>
</event>
<event>
 6    1  0.1773638E-005  0.4647483E+04  0.7818608E-02  0.7885314E-01
         -2   -1    0    0    0  501 -0.00000000000E+00  0.00000000000E+00  0.51613800345E+04  0.51613800345E+04  0.00000000000E+00 0.  1.
          2   -1    0    0  501    0  0.00000000000E+00 -0.00000000000E+00 -0.10461881530E+04  0.10461881530E+04  0.00000000000E+00 0. -1.
         23    2    1    2    0    0  0.13265200091E+04  0.18994954238E+04  0.22814752599E+04  0.32528677207E+04  0.90999160010E+02 0.  0.
         13    1    3    3    0    0  0.58551352034E+03  0.89079137116E+03  0.10017088085E+04  0.14627904452E+04  0.00000000000E+00 0.  1.
        -13    1    3    3    0    0  0.74100648877E+03  0.10087040527E+04  0.12797664514E+04  0.17900772755E+04  0.00000000000E+00 0. -1.
         22    1    1    2    0    0 -0.13265200091E+04 -0.18994954238E+04  0.18337166216E+04  0.29547004667E+04  0.00000000000E+00 0. -1.
<mgrwt>
<rscale>  0 0.46474830E+04</rscale>
<asrwt>0</asrwt>
<pdfrwt beam="1">  1        2 0.16095203E+00 0.46474830E+04</pdfrwt>
<pdfrwt beam="2">  1       -2 0.79405845E+00 0.46474830E+04</pdfrwt>
<totfact> 0.15005546E-03</totfact>
</mgrwt>
</event>
<event>
 6    1  0.1773638E-005  0.1089270E+04  0.7818608E-02  0.9215713E-01
         -2   -1    0    0    0  501 -0.00000000000E+00  0.00000000000E+00  0.45499675124E+03  0.45499675124E+03  0.00000000000E+00 0.  1.
          2   -1    0    0  501    0  0.00000000000E+00 -0.00000000000E+00 -0.65193332394E+03  0.65193332394E+03  0.00000000000E+00 0. -1.
         23    2    1    2    0    0  0.13446146853E+03 -0.41986962628E+03  0.21907613257E+03  0.50076428883E+03  0.91652231381E+02 0.  0.
         13    1    3    3    0    0  0.82012179052E+02 -0.28774672764E+03  0.19351530763E+03  0.35633179913E+03  0.00000000000E+00 0. -1.
        -13    1    3    3    0    0  0.52449289482E+02 -0.13212289864E+03  0.25560824939E+02  0.14443248971E+03  0.00000000000E+00 0.  1.
         22    1    1    2    0    0 -0.13446146853E+03  0.41986962628E+03 -0.41601270526E+03  0.60616578634E+03  0.00000000000E+00 0. -1.
<mgrwt>
<rscale>  0 0.10892705E+04</rscale>
<asrwt>0</asrwt>
<pdfrwt beam="1">  1        2 0.10029743E+00 0.10892705E+04</pdfrwt>
<pdfrwt beam="2">  1       -2 0.69999501E-01 0.10892705E+04</pdfrwt>
<totfact> 0.82786016E+01</totfact>
</mgrwt>
</event>
<event>
 6    1  0.1773638E-005  0.1300155E+04  0.7818608E-02  0.9029442E-01
          1   -1    0    0  501    0  0.00000000000E+00  0.00000000000E+00  0.19172246137E+04  0.19172246137E+04  0.00000000000E+00 0. -1.
         -1   -1    0    0    0  501 -0.00000000000E+00 -0.00000000000E+00 -0.22042330361E+03  0.22042330361E+03  0.00000000000E+00 0.  1.
         23    2    1    2    0    0 -0.59806679050E+03 -0.19007144014E+03  0.59408860351E+03  0.86887435537E+03  0.90500488107E+02 0.  0.
         13    1    3    3    0    0 -0.44970179434E+03 -0.18293554345E+03  0.45256241611E+03  0.66370916625E+03  0.00000000000E+00 0.  1.
        -13    1    3    3    0    0 -0.14836499616E+03 -0.71358966875E+01  0.14152618740E+03  0.20516518912E+03  0.00000000000E+00 0. -1.
         22    1    1    2    0    0  0.59806679050E+03  0.19007144014E+03  0.11027127066E+04  0.12687735620E+04  0.00000000000E+00 0.  1.
<mgrwt>
<rscale>  0 0.13001553E+04</rscale>
<asrwt>0</asrwt>
<pdfrwt beam="1">  1        1 0.29495762E+00 0.13001553E+04</pdfrwt>
<pdfrwt beam="2">  1       -1 0.33911279E-01 0.13001553E+04</pdfrwt>
<totfact> 0.27388688E+01</totfact>
</mgrwt>
</event>
<event>
 6    1  0.1773638E-005  0.2773793E+04  0.7818608E-02  0.8311451E-01
          3   -1    0    0  501    0  0.00000000000E+00  0.00000000000E+00  0.11359173320E+04  0.11359173320E+04  0.00000000000E+00 0. -1.
         -3   -1    0    0    0  501 -0.00000000000E+00 -0.00000000000E+00 -0.16933287043E+04  0.16933287043E+04  0.00000000000E+00 0.  1.
         23    2    1    2    0    0  0.53627849818E+03  0.81697862837E+03 -0.12807181880E+04  0.16134247268E+04  0.88609058608E+02 0.  0.
         13    1    3    3    0    0  0.16855984520E+03  0.19134799589E+03 -0.30907180469E+03  0.40068922795E+03  0.00000000000E+00 0.  1.
        -13    1    3    3    0    0  0.36771865299E+03  0.62563063248E+03 -0.97164638330E+03  0.12127354989E+04  0.00000000000E+00 0. -1.
         22    1    1    2    0    0 -0.53627849818E+03 -0.81697862837E+03  0.72330681575E+03  0.12158213095E+04  0.00000000000E+00 0. -1.
<mgrwt>
<rscale>  0 0.27737927E+04</rscale>
<asrwt>0</asrwt>
<pdfrwt beam="1">  1        3 0.17475651E+00 0.27737927E+04</pdfrwt>
<pdfrwt beam="2">  1       -3 0.26051211E+00 0.27737927E+04</pdfrwt>
<totfact> 0.31042689E-02</totfact>
</mgrwt>
</event>
<event>
 6    1  0.1773638E-005  0.3309497E+04  0.7818608E-02  0.8160483E-01
         -1   -1    0    0    0  501 -0.00000000000E+00  0.00000000000E+00  0.29428828684E+04  0.29428828684E+04  0.00000000000E+00 0.  1.
          1   -1    0    0  501    0  0.00000000000E+00 -0.00000000000E+00 -0.93044575472E+03  0.93044575472E+03  0.00000000000E+00 0. -1.
         23    2    1    2    0    0  0.12283739565E+04  0.10972444057E+04  0.83628270399E+03  0.18494247078E+04  0.90305736218E+02 0.  0.
         13    1    3    3    0    0  0.10667407503E+04  0.97806691357E+03  0.70824978503E+03  0.16112630058E+04  0.00000000000E+00 0.  1.
        -13    1    3    3    0    0  0.16163320623E+03  0.11917749212E+03  0.12803291896E+03  0.23816170205E+03  0.00000000000E+00 0. -1.
         22    1    1    2    0    0 -0.12283739565E+04 -0.10972444057E+04  0.11761544097E+04  0.20239039153E+04  0.00000000000E+00 0.  1.
<mgrwt>
<rscale>  0 0.33094972E+04</rscale>
<asrwt>0</asrwt>
<pdfrwt beam="1">  1        1 0.14314550E+00 0.33094972E+04</pdfrwt>
<pdfrwt beam="2">  1       -1 0.45275120E+00 0.33094972E+04</pdfrwt>
<totfact> 0.44084126E-02</totfact>
</mgrwt>
</event>
<event>
 6    1  0.1773638E-005  0.3450880E+04  0.7818608E-02  0.8125530E-01
          2   -1    0    0  501    0  0.00000000000E+00  0.00000000000E+00  0.25273634852E+04  0.25273634852E+04  0.00000000000E+00 0.  1.
         -2   -1    0    0    0  501 -0.00000000000E+00 -0.00000000000E+00 -0.11779640778E+04  0.11779640778E+04  0.00000000000E+00 0. -1.
         23    2    1    2    0    0  0.15030633665E+04 -0.70004419879E+03  0.16712523906E+03  0.16689008952E+04  0.89654829699E+02 0.  0.
         11    1    3    3    0    0  0.94886167364E+03 -0.47117654947E+03  0.72564731353E+02  0.10618905107E+04  0.00000000000E+00 0. -1.
        -11    1    3    3    0    0  0.55420169286E+03 -0.22886764933E+03  0.94560507706E+02  0.60701038451E+03  0.00000000000E+00 0.  1.
         22    1    1    2    0    0 -0.15030633665E+04  0.70004419879E+03  0.11822741683E+04  0.20364266677E+04  0.00000000000E+00 0.  1.
<mgrwt>
<rscale>  0 0.34508801E+04</rscale>
<asrwt>0</asrwt>
<pdfrwt beam="1">  1        2 0.38882515E+00 0.34508801E+04</pdfrwt>
<pdfrwt beam="2">  1       -2 0.18122524E+00 0.34508801E+04</pdfrwt>
<totfact> 0.49228629E-01</totfact>
</mgrwt>
</event>
<event>
 6    1  0.1773638E-005  0.2046159E+04  0.7818608E-02  0.8585339E-01
         -1   -1    0    0    0  501 -0.00000000000E+00  0.00000000000E+00  0.80607284775E+03  0.80607284775E+03  0.00000000000E+00 0. -1.
          1   -1    0    0  501    0  0.00000000000E+00 -0.00000000000E+00 -0.12985076741E+04  0.12985076741E+04  0.00000000000E+00 0.  1.
         23    2    1    2    0    0 -0.91106406355E+03  0.27318943215E+03  0.13530248062E+03  0.96496465660E+03  0.90442431888E+02 0.  0.
         11    1    3    3    0    0 -0.30402932284E+03  0.84879123613E+02  0.87702184512E+02  0.32761252715E+03  0.00000000000E+00 0. -1.
        -11    1    3    3    0    0 -0.60703474071E+03  0.18831030854E+03  0.47600296110E+02  0.63735212945E+03  0.00000000000E+00 0.  1.
         22    1    1    2    0    0  0.91106406355E+03 -0.27318943215E+03 -0.62773730695E+03  0.11396158652E+04  0.00000000000E+00 0.  1.
<mgrwt>
<rscale>  0 0.20461591E+04</rscale>
<asrwt>0</asrwt>
<pdfrwt beam="1">  1        1 0.19977041E+00 0.20461591E+04</pdfrwt>
<pdfrwt beam="2">  1       -1 0.12401121E+00 0.20461591E+04</pdfrwt>
<totfact> 0.47827346E+00</totfact>
</mgrwt>
</event>
<event>
 6    1  0.1773638E-005  0.2296945E+04  0.7818608E-02  0.8479127E-01
         -2   -1    0    0    0  501 -0.00000000000E+00  0.00000000000E+00  0.70020883959E+03  0.70020883959E+03  0.00000000000E+00 0.  1.
          2   -1    0    0  501    0  0.00000000000E+00 -0.00000000000E+00 -0.18837083188E+04  0.18837083188E+04  0.00000000000E+00 0. -1.
         23    2    1    2    0    0  0.10589339336E+04 -0.15387364349E+03 -0.12855973492E+03  0.10812807959E+04  0.87306244191E+02 0.  0.
         11    1    3    3    0    0  0.65986826907E+03 -0.81745440846E+02 -0.12003049412E+03  0.67565950681E+03  0.00000000000E+00 0.  1.
        -11    1    3    3    0    0  0.39906566451E+03 -0.72128202643E+02 -0.85292407949E+01  0.40562128908E+03  0.00000000000E+00 0. -1.
         22    1    1    2    0    0 -0.10589339336E+04  0.15387364349E+03 -0.10549397443E+04  0.15026363625E+04  0.00000000000E+00 0.  1.
<mgrwt>
<rscale>  0 0.22969451E+04</rscale>
<asrwt>0</asrwt>
<pdfrwt beam="1">  1        2 0.28980128E+00 0.22969451E+04</pdfrwt>
<pdfrwt beam="2">  1       -2 0.10772444E+00 0.22969451E+04</pdfrwt>
<totfact> 0.48590971E+00</totfact>
</mgrwt>
</event>
<event>
 6    1  0.1773638E-005  0.2793694E+04  0.7818608E-02  0.8305229E-01
         -1   -1    0    0    0  501 -0.00000000000E+00  0.00000000000E+00  0.15736571712E+04  0.15736571712E+04  0.00000000000E+00 0.  1.
          1   -1    0    0  501    0  0.00000000000E+00 -0.00000000000E+00 -0.12399025995E+04  0.12399025995E+04  0.00000000000E+00 0. -1.
         23    2    1    2    0    0  0.18245541972E+03  0.42913291925E+03  0.14915546804E+04  0.15653826461E+04  0.90787781477E+02 0.  0.
         13    1    3    3    0    0  0.45657520466E+02  0.15761187621E+03  0.40192663833E+03  0.43413262409E+03  0.00000000000E+00 0. -1.
        -13    1    3    3    0    0  0.13679789926E+03  0.27152104304E+03  0.10896280421E+04  0.11312500220E+04  0.00000000000E+00 0.  1.
         22    1    1    2    0    0 -0.18245541972E+03 -0.42913291925E+03 -0.11578001087E+04  0.12481771246E+04  0.00000000000E+00 0. -1.
<mgrwt>
<rscale>  0 0.27936941E+04</rscale>
<asrwt>0</asrwt>
<pdfrwt beam="1">  1        1 0.19075425E+00 0.27936941E+04</pdfrwt>
<pdfrwt beam="2">  1       -1 0.24210110E+00 0.27936941E+04</pdfrwt>
<totfact> 0.67984397E-01</totfact>
</mgrwt>
</event>
<event>
 6    1  0.1773638E-005  0.2422563E+04  0.7818608E-02  0.8431104E-01
         -2   -1    0    0    0  501 -0.00000000000E+00  0.00000000000E+00  0.61665772814E+03  0.61665772814E+03  0.00000000000E+00 0.  1.
          2   -1    0    0  501    0  0.00000000000E+00 -0.00000000000E+00 -0.23792821645E+04  0.23792821645E+04  0.00000000000E+00 0. -1.
         23    2    1    2    0    0  0.10551975299E+03 -0.42510892089E+03  0.51206362805E+03  0.67946459529E+03  0.87240840195E+02 0.  0.
         13    1    3    3    0    0  0.10499620091E+03 -0.34590508159E+03  0.37299817053E+03  0.51942483854E+03  0.00000000000E+00 0. -1.
        -13    1    3    3    0    0  0.52355207939E+00 -0.79203839295E+02  0.13906545752E+03  0.16003975675E+03  0.00000000000E+00 0.  1.
         22    1    1    2    0    0 -0.10551975299E+03  0.42510892089E+03 -0.22746880644E+04  0.23164752974E+04  0.00000000000E+00 0. -1.
<mgrwt>
<rscale>  0 0.24225629E+04</rscale>
<asrwt>0</asrwt>
<pdfrwt beam="1">  1        2 0.36604341E+00 0.24225629E+04</pdfrwt>
<pdfrwt beam="2">  1       -2 0.94870418E-01 0.24225629E+04</pdfrwt>
<totfact> 0.34282123E+00</totfact>
</mgrwt>
</event>
<event>
 6    1  0.1773638E-005  0.3300822E+04  0.7818608E-02  0.8162686E-01
          1   -1    0    0  501    0  0.00000000000E+00  0.00000000000E+00  0.15103298815E+04  0.15103298815E+04  0.00000000000E+00 0. -1.
         -1   -1    0    0    0  501 -0.00000000000E+00 -0.00000000000E+00 -0.18034846524E+04  0.18034846524E+04  0.00000000000E+00 0.  1.
         23    2    1    2    0    0  0.59158728391E+03 -0.11118776011E+04 -0.12154721439E+04  0.17527518667E+04  0.92299832620E+02 0.  0.
         13    1    3    3    0    0  0.13511837796E+03 -0.33586996245E+03 -0.37120046316E+03  0.51851267254E+03  0.00000000000E+00 0. -1.
        -13    1    3    3    0    0  0.45646890596E+03 -0.77600763868E+03 -0.84427168073E+03  0.12342391941E+04  0.00000000000E+00 0.  1.
         22    1    1    2    0    0 -0.59158728391E+03  0.11118776011E+04  0.92231737304E+03  0.15610626672E+04  0.00000000000E+00 0. -1.
<mgrwt>
<rscale>  0 0.33008222E+04</rscale>
<asrwt>0</asrwt>
<pdfrwt beam="1">  1        1 0.23235844E+00 0.33008222E+04</pdfrwt>
<pdfrwt beam="2">  1       -1 0.27745918E+00 0.33008222E+04</pdfrwt>
<totfact> 0.24673269E-01</totfact>
</mgrwt>
</event>
<event>
 6    1  0.1773638E-005  0.1212130E+04  0.7818608E-02  0.9102305E-01
          1   -1    0    0  501    0  0.00000000000E+00  0.00000000000E+00  0.15434431137E+04  0.15434431137E+04  0.00000000000E+00 0. -1.
         -1   -1    0    0    0  501 -0.00000000000E+00 -0.00000000000E+00 -0.23798388924E+03  0.23798388924E+03  0.00000000000E+00 0.  1.
         23    2    1    2    0    0  0.43017200791E+03  0.39425054167E+03  0.42277033991E+03  0.72330550099E+03  0.62885940026E+02 0.  0.
         11    1    3    3    0    0  0.28076087946E+03  0.29565045533E+03  0.30135484076E+03  0.50700158108E+03  0.00000000000E+00 0.  1.
        -11    1    3    3    0    0  0.14941112845E+03  0.98600086337E+02  0.12141549915E+03  0.21630391991E+03  0.00000000000E+00 0. -1.
         22    1    1    2    0    0 -0.43017200791E+03 -0.39425054167E+03  0.88268888459E+03  0.10581215020E+04  0.00000000000E+00 0.  1.
<mgrwt>
<rscale>  0 0.12121297E+04</rscale>
<asrwt>0</asrwt>
<pdfrwt beam="1">  1        1 0.23745278E+00 0.12121297E+04</pdfrwt>
<pdfrwt beam="2">  1       -1 0.36612907E-01 0.12121297E+04</pdfrwt>
<totfact> 0.43181594E+01</totfact>
</mgrwt>
</event>
<event>
 6    1  0.1773638E-005  0.4380539E+04  0.7818608E-02  0.7931891E-01
         -2   -1    0    0    0  501 -0.00000000000E+00  0.00000000000E+00  0.18801746887E+04  0.18801746887E+04  0.00000000000E+00 0.  1.
          2   -1    0    0  501    0  0.00000000000E+00 -0.00000000000E+00 -0.25515079977E+04  0.25515079977E+04  0.00000000000E+00 0. -1.
         23    2    1    2    0    0 -0.19888315754E+04 -0.44136390360E+03 -0.11472293802E+04  0.23396190637E+04  0.86191541811E+02 0.  0.
         11    1    3    3    0    0 -0.13300199674E+04 -0.25432040790E+03 -0.75247371835E+03  0.15491444995E+04  0.00000000000E+00 0.  1.
        -11    1    3    3    0    0 -0.65881160798E+03 -0.18704349570E+03 -0.39475566181E+03  0.79047456418E+03  0.00000000000E+00 0. -1.
         22    1    1    2    0    0  0.19888315754E+04  0.44136390360E+03  0.47589607113E+03  0.20920636226E+04  0.00000000000E+00 0. -1.
<mgrwt>
<rscale>  0 0.43805391E+04</rscale>
<asrwt>0</asrwt>
<pdfrwt beam="1">  1        2 0.39253969E+00 0.43805391E+04</pdfrwt>
<pdfrwt beam="2">  1       -2 0.28925765E+00 0.43805391E+04</pdfrwt>
<totfact> 0.91900661E-02</totfact>
</mgrwt>
</event>
<event>
 6    1  0.1773638E-005  0.3849139E+04  0.7818608E-02  0.8035691E-01
          2   -1    0    0  501    0  0.00000000000E+00  0.00000000000E+00  0.26715940200E+04  0.26715940200E+04  0.00000000000E+00 0. -1.
         -2   -1    0    0    0  501 -0.00000000000E+00 -0.00000000000E+00 -0.13864259254E+04  0.13864259254E+04  0.00000000000E+00 0.  1.
         23    2    1    2    0    0  0.17606892473E+04  0.62338783055E+03  0.15936546942E+03  0.18771782356E+04  0.98801631602E+02 0.  0.
         11    1    3    3    0    0  0.46040673775E+03  0.11774427996E+03  0.45771122900E+02  0.47742337115E+03  0.00000000000E+00 0.  1.
        -11    1    3    3    0    0  0.13002825095E+04  0.50564355060E+03  0.11359434652E+03  0.13997548644E+04  0.00000000000E+00 0. -1.
         22    1    1    2    0    0 -0.17606892473E+04 -0.62338783055E+03  0.11258026251E+04  0.21808417099E+04  0.00000000000E+00 0. -1.
<mgrwt>
<rscale>  0 0.38491387E+04</rscale>
<asrwt>0</asrwt>
<pdfrwt beam="1">  1        2 0.41101446E+00 0.38491387E+04</pdfrwt>
<pdfrwt beam="2">  1       -2 0.21329630E+00 0.38491387E+04</pdfrwt>
<totfact> 0.24040838E-01</totfact>
</mgrwt>
</event>
<event>
 6    1  0.1773638E-005  0.4959981E+04  0.7818608E-02  0.7834710E-01
          2   -1    0    0  501    0  0.00000000000E+00  0.00000000000E+00  0.25357095298E+04  0.25357095298E+04  0.00000000000E+00 0. -1.
         -2   -1    0    0    0  501 -0.00000000000E+00 -0.00000000000E+00 -0.24254959991E+04  0.24254959991E+04  0.00000000000E+00 0.  1.
         23    2    1    2    0    0  0.17738277757E+04  0.12986787598E+04 -0.10910971752E+04  0.24559752178E+04  0.91047929560E+02 0.  0.
         11    1    3    3    0    0  0.41355749481E+03  0.30588033555E+03 -0.21284033717E+03  0.55668086936E+03  0.00000000000E+00 0. -1.
        -11    1    3    3    0    0  0.13602702809E+04  0.99279842429E+03 -0.87825683807E+03  0.18992943484E+04  0.00000000000E+00 0.  1.
         22    1    1    2    0    0 -0.17738277757E+04 -0.12986787598E+04  0.12013107060E+04  0.25052303111E+04  0.00000000000E+00 0. -1.
<mgrwt>
<rscale>  0 0.49599812E+04</rscale>
<asrwt>0</asrwt>
<pdfrwt beam="1">  1        2 0.39010916E+00 0.49599812E+04</pdfrwt>
<pdfrwt beam="2">  1       -2 0.37315323E+00 0.49599812E+04</pdfrwt>
<totfact> 0.26865563E-02</totfact>
</mgrwt>
</event>
<event>
 6    1  0.1773638E-005  0.2489011E+04  0.7818608E-02  0.8406911E-01
          2   -1    0    0  501    0  0.00000000000E+00  0.00000000000E+00  0.18819479126E+04  0.18819479126E+04  0.00000000000E+00 0. -1.
         -2   -1    0    0    0  501 -0.00000000000E+00 -0.00000000000E+00 -0.82297399402E+03  0.82297399402E+03  0.00000000000E+00 0.  1.
         23    2    1    2    0    0  0.12252090545E+04  0.19440543765E+03  0.61809342982E+03  0.13883709935E+04  0.81263928121E+02 0.  0.
         11    1    3    3    0    0  0.39736066588E+03  0.24843400481E+02  0.20195488046E+03  0.44642856884E+03  0.00000000000E+00 0. -1.
        -11    1    3    3    0    0  0.82784838866E+03  0.16956203717E+03  0.41613854935E+03  0.94194242463E+03  0.00000000000E+00 0.  1.
         22    1    1    2    0    0 -0.12252090545E+04 -0.19440543765E+03  0.44088048876E+03  0.13165509131E+04  0.00000000000E+00 0.  1.
<mgrwt>
<rscale>  0 0.24890112E+04</rscale>
<asrwt>0</asrwt>
<pdfrwt beam="1">  1        2 0.28953045E+00 0.24890112E+04</pdfrwt>
<pdfrwt beam="2">  1       -2 0.12661138E+00 0.24890112E+04</pdfrwt>
<totfact> 0.32208218E+00</totfact>
</mgrwt>
</event>
<event>
 6    1  0.1773638E-005  0.2145513E+04  0.7818608E-02  0.8541455E-01
          2   -1    0    0  501    0  0.00000000000E+00  0.00000000000E+00  0.11240150190E+04  0.11240150190E+04  0.00000000000E+00 0. -1.
         -2   -1    0    0    0  501 -0.00000000000E+00 -0.00000000000E+00 -0.10238355481E+04  0.10238355481E+04  0.00000000000E+00 0.  1.
         23    2    1    2    0    0 -0.56898239378E+03 -0.28332268708E+03  0.91287361942E+03  0.11161119915E+04  0.91405815601E+02 0.  0.
         13    1    3    3    0    0 -0.30163161698E+03 -0.14504058332E+03  0.40122752089E+03  0.52249586284E+03  0.00000000000E+00 0. -1.
        -13    1    3    3    0    0 -0.26735077681E+03 -0.13828210375E+03  0.51164609853E+03  0.59361612867E+03  0.00000000000E+00 0.  1.
         22    1    1    2    0    0  0.56898239378E+03  0.28332268708E+03 -0.81269414854E+03  0.10317385757E+04  0.00000000000E+00 0.  1.
<mgrwt>
<rscale>  0 0.21455130E+04</rscale>
<asrwt>0</asrwt>
<pdfrwt beam="1">  1        2 0.17292539E+00 0.21455130E+04</pdfrwt>
<pdfrwt beam="2">  1       -2 0.15751316E+00 0.21455130E+04</pdfrwt>
<totfact> 0.50817324E+00</totfact>
</mgrwt>
</event>
<event>
 6    1  0.1773638E-005  0.4134025E+04  0.7818608E-02  0.7978042E-01
          2   -1    0    0  501    0  0.00000000000E+00  0.00000000000E+00  0.26895585739E+04  0.26895585739E+04  0.00000000000E+00 0. -1.
         -2   -1    0    0    0  501 -0.00000000000E+00 -0.00000000000E+00 -0.15885661281E+04  0.15885661281E+04  0.00000000000E+00 0.  1.
         23    2    1    2    0    0 -0.77675606321E+03  0.19137640583E+04  0.60238281148E+03  0.21534001505E+04  0.91784005335E+02 0.  0.
         11    1    3    3    0    0 -0.61411318438E+03  0.14087224439E+04  0.45629286603E+03  0.16030711484E+04  0.00000000000E+00 0. -1.
        -11    1    3    3    0    0 -0.16264287884E+03  0.50504161447E+03  0.14608994545E+03  0.55032900210E+03  0.00000000000E+00 0.  1.
         22    1    1    2    0    0  0.77675606321E+03 -0.19137640583E+04  0.49860963433E+03  0.21247245516E+04  0.00000000000E+00 0.  1.
<mgrwt>
<rscale>  0 0.41340255E+04</rscale>
<asrwt>0</asrwt>
<pdfrwt beam="1">  1        2 0.41377824E+00 0.41340255E+04</pdfrwt>
<pdfrwt beam="2">  1       -2 0.24439479E+00 0.41340255E+04</pdfrwt>
<totfact> 0.14626183E-01</totfact>
</mgrwt>
</event>
<event>
 6    1  0.1773638E-005  0.3569157E+03  0.7818608E-02  0.1059812E+00
          1   -1    0    0  501    0  0.00000000000E+00  0.00000000000E+00  0.28142649734E+03  0.28142649734E+03  0.00000000000E+00 0. -1.
         -1   -1    0    0    0  501 -0.00000000000E+00 -0.00000000000E+00 -0.11316347792E+03  0.11316347792E+03  0.00000000000E+00 0.  1.
         23    2    1    2    0    0  0.15474152850E+02 -0.15977324941E+03  0.13982720041E+03  0.23156992608E+03  0.91137500838E+02 0.  0.
         13    1    3    3    0    0 -0.32989006113E+02 -0.40234056913E+02  0.61925798526E+02  0.80881755564E+02  0.00000000000E+00 0. -1.
        -13    1    3    3    0    0  0.48463158963E+02 -0.11953919250E+03  0.77901401881E+02  0.15068817052E+03  0.00000000000E+00 0.  1.
         22    1    1    2    0    0 -0.15474152850E+02  0.15977324941E+03  0.28435819007E+02  0.16302004918E+03  0.00000000000E+00 0.  1.
<mgrwt>
<rscale>  0 0.35691568E+03</rscale>
<asrwt>0</asrwt>
<pdfrwt beam="1">  1        1 0.43296384E-01 0.35691568E+03</pdfrwt>
<pdfrwt beam="2">  1       -1 0.17409766E-01 0.35691568E+03</pdfrwt>
<totfact> 0.24109377E+03</totfact>
</mgrwt>
</event>
<event>
 6    1  0.2204206E-005  0.4072947E+04  0.7818608E-02  0.7989990E-01
         -1   -1    0    0    0  501 -0.00000000000E+00  0.00000000000E+00  0.22384896343E+04  0.22384896343E+04  0.00000000000E+00 0.  1.
          1   -1    0    0  501    0  0.00000000000E+00 -0.00000000000E+00 -0.18526885965E+04  0.18526885965E+04  0.00000000000E+00 0. -1.
         23    2    1    2    0    0  0.19800459662E+04 -0.73554157383E+02 -0.27505564458E+03  0.20024647997E+04  0.90650008859E+02 0.  0.
         13    1    3    3    0    0  0.10824564188E+04  0.29775663543E+01 -0.16345306358E+03  0.10947317793E+04  0.00000000000E+00 0. -1.
        -13    1    3    3    0    0  0.89758954739E+03 -0.76531723737E+02 -0.11160258100E+03  0.90773302045E+03  0.00000000000E+00 0.  1.
         22    1    1    2    0    0 -0.19800459662E+04  0.73554157383E+02  0.66085668237E+03  0.20887134310E+04  0.00000000000E+00 0.  1.
<mgrwt>
<rscale>  0 0.40729470E+04</rscale>
<asrwt>0</asrwt>
<pdfrwt beam="1">  1        1 0.28502902E+00 0.40729470E+04</pdfrwt>
<pdfrwt beam="2">  1       -1 0.34438302E+00 0.40729470E+04</pdfrwt>
<totfact> 0.49392116E-02</totfact>
</mgrwt>
</event>
<event>
 6    1  0.1773638E-005  0.1900350E+04  0.7818608E-02  0.8654682E-01
         -2   -1    0    0    0  501 -0.00000000000E+00  0.00000000000E+00  0.57638307713E+03  0.57638307713E+03  0.00000000000E+00 0.  1.
          2   -1    0    0  501    0  0.00000000000E+00 -0.00000000000E+00 -0.15663755053E+04  0.15663755053E+04  0.00000000000E+00 0. -1.
         23    2    1    2    0    0 -0.79144738524E+03 -0.48637264346E+03 -0.70997192504E+03  0.11725221194E+04  0.88321426129E+02 0.  0.
         11    1    3    3    0    0 -0.27057611300E+03 -0.13686499653E+03 -0.27347556180E+03  0.40832871942E+03  0.00000000000E+00 0. -1.
        -11    1    3    3    0    0 -0.52087127225E+03 -0.34950764692E+03 -0.43649636324E+03  0.76419340002E+03  0.00000000000E+00 0.  1.
         22    1    1    2    0    0  0.79144738524E+03  0.48637264346E+03 -0.28002050311E+03  0.97023646297E+03  0.00000000000E+00 0.  1.
<mgrwt>
<rscale>  0 0.19003498E+04</rscale>
<asrwt>0</asrwt>
<pdfrwt beam="1">  1        2 0.24098084E+00 0.19003498E+04</pdfrwt>
<pdfrwt beam="2">  1       -2 0.88674320E-01 0.19003498E+04</pdfrwt>
<totfact> 0.11928723E+01</totfact>
</mgrwt>
</event>
<event>
 6    1  0.1773638E-005  0.2021318E+04  0.7818608E-02  0.8596718E-01
         -2   -1    0    0    0  501 -0.00000000000E+00  0.00000000000E+00  0.81897917887E+03  0.81897917887E+03  0.00000000000E+00 0. -1.
          2   -1    0    0  501    0  0.00000000000E+00 -0.00000000000E+00 -0.12472015388E+04  0.12472015388E+04  0.00000000000E+00 0.  1.
         23    2    1    2    0    0 -0.13185989712E+03  0.81259692144E+03 -0.81016523769E+03  0.11586669982E+04  0.91873343341E+02 0.  0.
         13    1    3    3    0    0 -0.13715581485E+03  0.66873076167E+03 -0.63960849098E+03  0.93547398194E+03  0.00000000000E+00 0.  1.
        -13    1    3    3    0    0  0.52959177307E+01  0.14386615977E+03 -0.17055674671E+03  0.22319301629E+03  0.00000000000E+00 0. -1.
         22    1    1    2    0    0  0.13185989712E+03 -0.81259692144E+03  0.38194287772E+03  0.90751371948E+03  0.00000000000E+00 0. -1.
<mgrwt>
<rscale>  0 0.20213185E+04</rscale>
<asrwt>0</asrwt>
<pdfrwt beam="1">  1        2 0.19187716E+00 0.20213185E+04</pdfrwt>
<pdfrwt beam="2">  1       -2 0.12599680E+00 0.20213185E+04</pdfrwt>
<totfact> 0.77408577E+00</totfact>
</mgrwt>
</event>
<event>
 6    1  0.1773638E-005  0.3120574E+04  0.7818608E-02  0.8210114E-01
         -1   -1    0    0    0  501 -0.00000000000E+00  0.00000000000E+00  0.96942332871E+03  0.96942332871E+03  0.00000000000E+00 0.  1.
          1   -1    0    0  501    0  0.00000000000E+00 -0.00000000000E+00 -0.25112816507E+04  0.25112816507E+04  0.00000000000E+00 0. -1.
         23    2    1    2    0    0 -0.55944291316E+03  0.24559718578E+03 -0.23713503008E+04  0.24504859281E+04  0.91020240075E+02 0.  0.
         13    1    3    3    0    0 -0.93659218583E+02  0.56390849216E+02 -0.30997116749E+03  0.32868541460E+03  0.00000000000E+00 0. -1.
        -13    1    3    3    0    0 -0.46578369458E+03  0.18920633656E+03 -0.20613791333E+04  0.21218005135E+04  0.00000000000E+00 0.  1.
         22    1    1    2    0    0  0.55944291316E+03 -0.24559718578E+03  0.82949197880E+03  0.10302190513E+04  0.00000000000E+00 0.  1.
<mgrwt>
<rscale>  0 0.31205737E+04</rscale>
<asrwt>0</asrwt>
<pdfrwt beam="1">  1        1 0.38635102E+00 0.31205737E+04</pdfrwt>
<pdfrwt beam="2">  1       -1 0.14914205E+00 0.31205737E+04</pdfrwt>
<totfact> 0.39697888E-01</totfact>
</mgrwt>
</event>
<event>
 6    1  0.1773638E-005  0.1207030E+04  0.7818608E-02  0.9106725E-01
         -2   -1    0    0    0  501 -0.00000000000E+00  0.00000000000E+00  0.22830912300E+03  0.22830912300E+03  0.00000000000E+00 0.  1.
          2   -1    0    0  501    0  0.00000000000E+00 -0.00000000000E+00 -0.15953382475E+04  0.15953382475E+04  0.00000000000E+00 0. -1.
         23    2    1    2    0    0 -0.16045782007E+03 -0.80742584643E+02 -0.15523088928E+04  0.15655879403E+04  0.95585685495E+02 0.  0.
         13    1    3    3    0    0 -0.11657212258E+03 -0.70988035054E+01 -0.96913353692E+03  0.97614510456E+03  0.00000000000E+00 0. -1.
        -13    1    3    3    0    0 -0.43885697485E+02 -0.73643781137E+02 -0.58317535586E+03  0.58944283576E+03  0.00000000000E+00 0.  1.
         22    1    1    2    0    0  0.16045782007E+03  0.80742584643E+02  0.18527976826E+03  0.25805943021E+03  0.00000000000E+00 0.  1.
<mgrwt>
<rscale>  0 0.12070299E+04</rscale>
<asrwt>0</asrwt>
<pdfrwt beam="1">  1        2 0.24543666E+00 0.12070299E+04</pdfrwt>
<pdfrwt beam="2">  1       -2 0.35124480E-01 0.12070299E+04</pdfrwt>
<totfact> 0.84159673E+01</totfact>
</mgrwt>
</event>
<event>
 6    1  0.1773638E-005  0.1894722E+04  0.7818608E-02  0.8657488E-01
          2   -1    0    0  501    0  0.00000000000E+00  0.00000000000E+00  0.87027714961E+03  0.87027714961E+03  0.00000000000E+00 0.  1.
         -2   -1    0    0    0  501 -0.00000000000E+00 -0.00000000000E+00 -0.10312729914E+04  0.10312729914E+04  0.00000000000E+00 0. -1.
         23    2    1    2    0    0 -0.56809546539E+03  0.62762139918E+03  0.34112580838E+03  0.91729040393E+03  0.91726710895E+02 0.  0.
         11    1    3    3    0    0 -0.29210359824E+03  0.26151742057E+03  0.17893214669E+03  0.43096703642E+03  0.00000000000E+00 0.  1.
        -11    1    3    3    0    0 -0.27599186715E+03  0.36610397861E+03  0.16219366168E+03  0.48632336750E+03  0.00000000000E+00 0. -1.
         22    1    1    2    0    0  0.56809546539E+03 -0.62762139918E+03 -0.50212165018E+03  0.98425973710E+03  0.00000000000E+00 0.  1.
<mgrwt>
<rscale>  0 0.18947225E+04</rscale>
<asrwt>0</asrwt>
<pdfrwt beam="1">  1        2 0.13388879E+00 0.18947225E+04</pdfrwt>
<pdfrwt beam="2">  1       -2 0.15865738E+00 0.18947225E+04</pdfrwt>
<totfact> 0.74175702E+00</totfact>
</mgrwt>
</event>
<event>
 6    1  0.1773638E-005  0.2328992E+04  0.7818608E-02  0.8466577E-01
         -1   -1    0    0    0  501 -0.00000000000E+00  0.00000000000E+00  0.13765777560E+04  0.13765777560E+04  0.00000000000E+00 0.  1.
          1   -1    0    0  501    0  0.00000000000E+00 -0.00000000000E+00 -0.98508811542E+03  0.98508811542E+03  0.00000000000E+00 0. -1.
         23    2    1    2    0    0  0.76841804896E+03  0.66883323170E+02 -0.68629457145E+03  0.10363136599E+04  0.89476734414E+02 0.  0.
         11    1    3    3    0    0  0.43164430446E+03  0.14380808560E+02 -0.33253706619E+03  0.54507294339E+03  0.00000000000E+00 0.  1.
        -11    1    3    3    0    0  0.33677374450E+03  0.52502514610E+02 -0.35375750526E+03  0.49124071650E+03  0.00000000000E+00 0. -1.
         22    1    1    2    0    0 -0.76841804896E+03 -0.66883323170E+02  0.10777842120E+04  0.13253522115E+04  0.00000000000E+00 0.  1.
<mgrwt>
<rscale>  0 0.23289915E+04</rscale>
<asrwt>0</asrwt>
<pdfrwt beam="1">  1        1 0.15155202E+00 0.23289915E+04</pdfrwt>
<pdfrwt beam="2">  1       -1 0.21178119E+00 0.23289915E+04</pdfrwt>
<totfact> 0.17522680E+00</totfact>
</mgrwt>
</event>
<event>
 6    1  0.1773638E-005  0.1469762E+04  0.7818608E-02  0.8904814E-01
          1   -1    0    0  501    0  0.00000000000E+00  0.00000000000E+00  0.93273436147E+03  0.93273436147E+03  0.00000000000E+00 0. -1.
         -1   -1    0    0    0  501 -0.00000000000E+00 -0.00000000000E+00 -0.57899632087E+03  0.57899632087E+03  0.00000000000E+00 0.  1.
         23    2    1    2    0    0 -0.59709399849E+03  0.29447090414E+03 -0.13510156853E+03  0.68577758448E+03  0.93830193095E+02 0.  0.
         11    1    3    3    0    0 -0.17368585993E+03  0.13428420769E+03 -0.38619210847E+02  0.22291359273E+03  0.00000000000E+00 0. -1.
        -11    1    3    3    0    0 -0.42340813856E+03  0.16018669645E+03 -0.96482357686E+02  0.46286399175E+03  0.00000000000E+00 0.  1.
         22    1    1    2    0    0  0.59709399849E+03 -0.29447090414E+03  0.48883960913E+03  0.82595309786E+03  0.00000000000E+00 0. -1.
<mgrwt>
<rscale>  0 0.14697616E+04</rscale>
<asrwt>0</asrwt>
<pdfrwt beam="1">  1        1 0.14349759E+00 0.14697616E+04</pdfrwt>
<pdfrwt beam="2">  1       -1 0.89076357E-01 0.14697616E+04</pdfrwt>
<totfact> 0.20513276E+01</totfact>
</mgrwt>
</event>
<event>
 6    1  0.1773638E-005  0.8452744E+03  0.7818608E-02  0.9496702E-01
         -2   -1    0    0    0  501 -0.00000000000E+00  0.00000000000E+00  0.14365719855E+03  0.14365719855E+03  0.00000000000E+00 0.  1.
          2   -1    0    0  501    0  0.00000000000E+00 -0.00000000000E+00 -0.12433918790E+04  0.12433918790E+04  0.00000000000E+00 0. -1.
         23    2    1    2    0    0 -0.14799401533E+03 -0.21041710404E+03 -0.16140374079E+02  0.27333717269E+03  0.90967642908E+02 0.  0.
         11    1    3    3    0    0 -0.12156594618E+03 -0.10436943052E+03  0.11406044480E+02  0.16062800238E+03  0.00000000000E+00 0. -1.
        -11    1    3    3    0    0 -0.26428069148E+02 -0.10604767352E+03 -0.27546418559E+02  0.11270917032E+03  0.00000000000E+00 0.  1.
         22    1    1    2    0    0  0.14799401533E+03  0.21041710404E+03 -0.10835943064E+04  0.11137119048E+04  0.00000000000E+00 0. -1.
<mgrwt>
<rscale>  0 0.84527438E+03</rscale>
<asrwt>0</asrwt>
<pdfrwt beam="1">  1        2 0.19129106E+00 0.84527438E+03</pdfrwt>
<pdfrwt beam="2">  1       -2 0.22101107E-01 0.84527438E+03</pdfrwt>
<totfact> 0.32063780E+02</totfact>
</mgrwt>
</event>
<event>
 6    1  0.1773638E-005  0.4119477E+04  0.7818608E-02  0.7980869E-01
          2   -1    0    0  501    0  0.00000000000E+00  0.00000000000E+00  0.34810056690E+04  0.34810056690E+04  0.00000000000E+00 0. -1.
         -2   -1    0    0    0  501 -0.00000000000E+00 -0.00000000000E+00 -0.12187637107E+04  0.12187637107E+04  0.00000000000E+00 0.  1.
         23    2    1    2    0    0  0.14425635155E+04  0.14362975667E+04  0.78087097656E+03  0.21821514218E+04  0.89917457787E+02 0.  0.
         11    1    3    3    0    0  0.88750280772E+03  0.93460490928E+03  0.46832607392E+03  0.13713048099E+04  0.00000000000E+00 0. -1.
        -11    1    3    3    0    0  0.55506070775E+03  0.50169265739E+03  0.31254490264E+03  0.81084661184E+03  0.00000000000E+00 0.  1.
         22    1    1    2    0    0 -0.14425635155E+04 -0.14362975667E+04  0.14813709817E+04  0.25176179579E+04  0.00000000000E+00 0. -1.
<mgrwt>
<rscale>  0 0.41194773E+04</rscale>
<asrwt>0</asrwt>
<pdfrwt beam="1">  1        2 0.53553933E+00 0.41194773E+04</pdfrwt>
<pdfrwt beam="2">  1       -2 0.18750211E+00 0.41194773E+04</pdfrwt>
<totfact> 0.10533661E-01</totfact>
</mgrwt>
</event>
<event>
 6    1  0.1773638E-005  0.1436833E+04  0.7818608E-02  0.8927580E-01
          1   -1    0    0  501    0  0.00000000000E+00  0.00000000000E+00  0.26657893127E+04  0.26657893127E+04  0.00000000000E+00 0. -1.
         -1   -1    0    0    0  501 -0.00000000000E+00 -0.00000000000E+00 -0.19360947348E+03  0.19360947348E+03  0.00000000000E+00 0.  1.
         23    2    1    2    0    0 -0.92874843469E+02  0.54062986004E+03  0.33816603765E+03  0.65601019417E+03  0.12282802498E+03 0.  0.
         11    1    3    3    0    0 -0.77438990457E+02  0.30147736810E+03  0.25486478374E+03  0.40229523824E+03  0.00000000000E+00 0. -1.
        -11    1    3    3    0    0 -0.15435853011E+02  0.23915249194E+03  0.83301253905E+02  0.25371495593E+03  0.00000000000E+00 0.  1.
         22    1    1    2    0    0  0.92874843469E+02 -0.54062986004E+03  0.21340138015E+04  0.22033885920E+04  0.00000000000E+00 0. -1.
<mgrwt>
<rscale>  0 0.14368327E+04</rscale>
<asrwt>0</asrwt>
<pdfrwt beam="1">  1        1 0.41012141E+00 0.14368327E+04</pdfrwt>
<pdfrwt beam="2">  1       -1 0.29786075E-01 0.14368327E+04</pdfrwt>
<totfact> 0.10467538E+01</totfact>
</mgrwt>
</event>
<event>
 6    1  0.1773638E-005  0.3402221E+04  0.7818608E-02  0.8137361E-01
          2   -1    0    0  501    0  0.00000000000E+00  0.00000000000E+00  0.28941544205E+04  0.28941544205E+04  0.00000000000E+00 0.  1.
         -2   -1    0    0    0  501 -0.00000000000E+00 -0.00000000000E+00 -0.99986981314E+03  0.99986981314E+03  0.00000000000E+00 0. -1.
         23    2    1    2    0    0 -0.64858598565E+03  0.11701826372E+04  0.21480949673E+04  0.25322566749E+04  0.89558324677E+02 0.  0.
         11    1    3    3    0    0 -0.29144387949E+03  0.57201661399E+03  0.95716489089E+03  0.11525220909E+04  0.00000000000E+00 0. -1.
        -11    1    3    3    0    0 -0.35714210616E+03  0.59816602325E+03  0.11909300764E+04  0.13797345840E+04  0.00000000000E+00 0.  1.
         22    1    1    2    0    0  0.64858598565E+03 -0.11701826372E+04 -0.25381035995E+03  0.13617675588E+04  0.00000000000E+00 0. -1.
<mgrwt>
<rscale>  0 0.34022214E+04</rscale>
<asrwt>0</asrwt>
<pdfrwt beam="1">  1        2 0.44525452E+00 0.34022214E+04</pdfrwt>
<pdfrwt beam="2">  1       -2 0.15382613E+00 0.34022214E+04</pdfrwt>
<totfact> 0.46983838E-01</totfact>
</mgrwt>
</event>
<event>
 6    1  0.1773638E-005  0.2843142E+04  0.7818608E-02  0.8289998E-01
         -2   -1    0    0    0  501 -0.00000000000E+00  0.00000000000E+00  0.87697981711E+03  0.87697981711E+03  0.00000000000E+00 0.  1.
          2   -1    0    0  501    0  0.00000000000E+00 -0.00000000000E+00 -0.23043451786E+04  0.23043451786E+04  0.00000000000E+00 0. -1.
         23    2    1    2    0    0 -0.46965833866E+03  0.82407226950E+03 -0.18970264502E+04  0.21229037191E+04  0.91306008870E+02 0.  0.
         13    1    3    3    0    0 -0.25707706323E+03  0.43089791553E+03 -0.11018872280E+04  0.12107506321E+04  0.00000000000E+00 0.  1.
        -13    1    3    3    0    0 -0.21258127543E+03  0.39317435396E+03 -0.79513922225E+03  0.91215308695E+03  0.00000000000E+00 0. -1.
         22    1    1    2    0    0  0.46965833866E+03 -0.82407226950E+03  0.46966108876E+03  0.10584212766E+04  0.00000000000E+00 0.  1.
<mgrwt>
<rscale>  0 0.28431421E+04</rscale>
<asrwt>0</asrwt>
<pdfrwt beam="1">  1        2 0.35451464E+00 0.28431421E+04</pdfrwt>
<pdfrwt beam="2">  1       -2 0.13491997E+00 0.28431421E+04</pdfrwt>
<totfact> 0.15442455E+00</totfact>
</mgrwt>
</event>
<event>
 6    1  0.1773638E-005  0.7516070E+03  0.7818608E-02  0.9632833E-01
         -2   -1    0    0    0  501 -0.00000000000E+00  0.00000000000E+00  0.12500498345E+03  0.12500498345E+03  0.00000000000E+00 0.  1.
          2   -1    0    0  501    0  0.00000000000E+00 -0.00000000000E+00 -0.11297810493E+04  0.11297810493E+04  0.00000000000E+00 0. -1.
         23    2    1    2    0    0 -0.40458419913E+02 -0.25200341170E+03 -0.60054821479E+02  0.27619478364E+03  0.86800770011E+02 0.  0.
         11    1    3    3    0    0 -0.14158884480E+02 -0.10129354426E+03  0.18939119856E+02  0.10401704850E+03  0.00000000000E+00 0. -1.
        -11    1    3    3    0    0 -0.26299535433E+02 -0.15070986745E+03 -0.78993941336E+02  0.17217773514E+03  0.00000000000E+00 0.  1.
         22    1    1    2    0    0  0.40458419913E+02  0.25200341170E+03 -0.94472124440E+03  0.97859124913E+03  0.00000000000E+00 0. -1.
<mgrwt>
<rscale>  0 0.75160698E+03</rscale>
<asrwt>0</asrwt>
<pdfrwt beam="1">  1        2 0.17381247E+00 0.75160698E+03</pdfrwt>
<pdfrwt beam="2">  1       -2 0.19231536E-01 0.75160698E+03</pdfrwt>
<totfact> 0.48071968E+02</totfact>
</mgrwt>
</event>
<event>
 6    1  0.1773638E-005  0.2898785E+04  0.7818608E-02  0.8273239E-01
          2   -1    0    0  501    0  0.00000000000E+00  0.00000000000E+00  0.27019569583E+04  0.27019569583E+04  0.00000000000E+00 0. -1.
         -2   -1    0    0    0  501 -0.00000000000E+00 -0.00000000000E+00 -0.77748800562E+03  0.77748800562E+03  0.00000000000E+00 0.  1.
         23    2    1    2    0    0 -0.14448976494E+04  0.12298799594E+02  0.85300545555E+03  0.16805801821E+04  0.94079559970E+02 0.  0.
         13    1    3    3    0    0 -0.13220545548E+04  0.32409072423E+01  0.74979303865E+03  0.15198777419E+04  0.00000000000E+00 0. -1.
        -13    1    3    3    0    0 -0.12284309455E+03  0.90578923519E+01  0.10321241690E+03  0.16070244023E+03  0.00000000000E+00 0.  1.
         22    1    1    2    0    0  0.14448976494E+04 -0.12298799594E+02  0.10714634972E+04  0.17988647818E+04  0.00000000000E+00 0. -1.
<mgrwt>
<rscale>  0 0.28987854E+04</rscale>
<asrwt>0</asrwt>
<pdfrwt beam="1">  1        2 0.41568568E+00 0.28987854E+04</pdfrwt>
<pdfrwt beam="2">  1       -2 0.11961354E+00 0.28987854E+04</pdfrwt>
<totfact> 0.12231907E+00</totfact>
</mgrwt>
</event>
<event>
 6    1  0.1773638E-005  0.1589527E+04  0.7818608E-02  0.8827008E-01
         -3   -1    0    0    0  501 -0.00000000000E+00  0.00000000000E+00  0.82768712604E+03  0.82768712604E+03  0.00000000000E+00 0.  1.
          3   -1    0    0  501    0  0.00000000000E+00 -0.00000000000E+00 -0.76314911447E+03  0.76314911447E+03  0.00000000000E+00 0. -1.
         23    2    1    2    0    0 -0.26441529926E+03 -0.11580399279E+03 -0.70629223961E+03  0.76772914458E+03  0.85048788847E+02 0.  0.
         11    1    3    3    0    0 -0.64350992511E+02 -0.18979832766E+02 -0.26840342718E+03  0.27666167788E+03  0.00000000000E+00 0. -1.
        -11    1    3    3    0    0 -0.20006430675E+03 -0.96824160025E+02 -0.43788881243E+03  0.49106746670E+03  0.00000000000E+00 0.  1.
         22    1    1    2    0    0  0.26441529926E+03  0.11580399279E+03  0.77083025118E+03  0.82310709592E+03  0.00000000000E+00 0.  1.
<mgrwt>
<rscale>  0 0.15895266E+04</rscale>
<asrwt>0</asrwt>
<pdfrwt beam="1">  1        3 0.11740756E+00 0.15895266E+04</pdfrwt>
<pdfrwt beam="2">  1       -3 0.12733648E+00 0.15895266E+04</pdfrwt>
<totfact> 0.73333985E-01</totfact>
</mgrwt>
</event>
<event>
 6    1  0.1773638E-005  0.2843411E+04  0.7818608E-02  0.8289916E-01
         -1   -1    0    0    0  501 -0.00000000000E+00  0.00000000000E+00  0.14835025796E+04  0.14835025796E+04  0.00000000000E+00 0.  1.
          1   -1    0    0  501    0  0.00000000000E+00 -0.00000000000E+00 -0.13624828713E+04  0.13624828713E+04  0.00000000000E+00 0. -1.
         23    2    1    2    0    0  0.56574799913E+03 -0.74791039211E+03 -0.10070402397E+04  0.13790294190E+04  0.90284775930E+02 0.  0.
         13    1    3    3    0    0  0.34418068303E+03 -0.47671413267E+03 -0.69106276206E+03  0.90735023445E+03  0.00000000000E+00 0. -1.
        -13    1    3    3    0    0  0.22156731610E+03 -0.27119625943E+03 -0.31597747768E+03  0.47167918450E+03  0.00000000000E+00 0.  1.
         22    1    1    2    0    0 -0.56574799913E+03  0.74791039211E+03  0.11280599481E+04  0.14669560319E+04  0.00000000000E+00 0.  1.
<mgrwt>
<rscale>  0 0.28434112E+04</rscale>
<asrwt>0</asrwt>
<pdfrwt beam="1">  1        1 0.20961275E+00 0.28434112E+04</pdfrwt>
<pdfrwt beam="2">  1       -1 0.22823117E+00 0.28434112E+04</pdfrwt>
<totfact> 0.68303461E-01</totfact>
</mgrwt>
</event>
<event>
 6    1  0.1773638E-005  0.2601103E+04  0.7818608E-02  0.8367827E-01
          2   -1    0    0  501    0  0.00000000000E+00  0.00000000000E+00  0.32057189603E+04  0.32057189603E+04  0.00000000000E+00 0. -1.
         -2   -1    0    0    0  501 -0.00000000000E+00 -0.00000000000E+00 -0.52763011193E+03  0.52763011193E+03  0.00000000000E+00 0.  1.
         23    2    1    2    0    0  0.83129491862E+03 -0.66581359225E+03  0.24079834748E+04  0.26345697977E+04  0.90634555060E+02 0.  0.
         13    1    3    3    0    0  0.78892940635E+03 -0.60812522708E+03  0.22124048653E+04  0.24263060788E+04  0.00000000000E+00 0. -1.
        -13    1    3    3    0    0  0.42365512269E+02 -0.57688365165E+02  0.19557860957E+03  0.20826371894E+03  0.00000000000E+00 0.  1.
         22    1    1    2    0    0 -0.83129491862E+03  0.66581359225E+03  0.27010537356E+03  0.10987792745E+04  0.00000000000E+00 0.  1.
<mgrwt>
<rscale>  0 0.26011027E+04</rscale>
<asrwt>0</asrwt>
<pdfrwt beam="1">  1        2 0.49318752E+00 0.26011027E+04</pdfrwt>
<pdfrwt beam="2">  1       -2 0.81173866E-01 0.26011027E+04</pdfrwt>
<totfact> 0.15212967E+00</totfact>
</mgrwt>
</event>
<event>
 6    1  0.1773638E-005  0.2936496E+04  0.7818608E-02  0.8262101E-01
          1   -1    0    0  501    0  0.00000000000E+00  0.00000000000E+00  0.45799091287E+04  0.45799091287E+04  0.00000000000E+00 0. -1.
         -1   -1    0    0    0  501 -0.00000000000E+00 -0.00000000000E+00 -0.47069747333E+03  0.47069747333E+03  0.00000000000E+00 0.  1.
         23    2    1    2    0    0  0.45843518351E+02 -0.80179490636E+03  0.41676275482E+04  0.42453804744E+04  0.95704191641E+02 0.  0.
         11    1    3    3    0    0 -0.28766937004E+02 -0.30850591410E+03  0.15754650194E+04  0.16056442517E+04  0.00000000000E+00 0. -1.
        -11    1    3    3    0    0  0.74610455355E+02 -0.49328899226E+03  0.25921625287E+04  0.26397362227E+04  0.00000000000E+00 0.  1.
         22    1    1    2    0    0 -0.45843518351E+02  0.80179490636E+03 -0.58415892803E+02  0.80522612760E+03  0.00000000000E+00 0.  1.
<mgrwt>
<rscale>  0 0.29364956E+04</rscale>
<asrwt>0</asrwt>
<pdfrwt beam="1">  1        1 0.70460137E+00 0.29364956E+04</pdfrwt>
<pdfrwt beam="2">  1       -1 0.72414999E-01 0.29364956E+04</pdfrwt>
<totfact> 0.43775646E-02</totfact>
</mgrwt>
</event>
<event>
 6    1  0.1773638E-005  0.2059391E+04  0.7818608E-02  0.8579346E-01
         -2   -1    0    0    0  501 -0.00000000000E+00  0.00000000000E+00  0.92589078583E+03  0.92589078583E+03  0.00000000000E+00 0.  1.
          2   -1    0    0  501    0  0.00000000000E+00 -0.00000000000E+00 -0.11451380253E+04  0.11451380253E+04  0.00000000000E+00 0. -1.
         23    2    1    2    0    0 -0.17540511043E+03  0.45194669788E+02 -0.11270575679E+04  0.11453241588E+04  0.93269267582E+02 0.  0.
         13    1    3    3    0    0 -0.75182709829E+01  0.28071143038E+02 -0.28809797384E+03  0.28955993508E+03  0.00000000000E+00 0. -1.
        -13    1    3    3    0    0 -0.16788683945E+03  0.17123526750E+02 -0.83895959409E+03  0.85576422369E+03  0.00000000000E+00 0.  1.
         22    1    1    2    0    0  0.17540511043E+03 -0.45194669788E+02  0.90781032847E+03  0.92570465237E+03  0.00000000000E+00 0.  1.
<mgrwt>
<rscale>  0 0.20593909E+04</rscale>
<asrwt>0</asrwt>
<pdfrwt beam="1">  1        2 0.17617508E+00 0.20593909E+04</pdfrwt>
<pdfrwt beam="2">  1       -2 0.14244474E+00 0.20593909E+04</pdfrwt>
<totfact> 0.64888827E+00</totfact>
</mgrwt>
</event>
<event>
 6    1  0.1773638E-005  0.1524985E+04  0.7818608E-02  0.8868006E-01
         -1   -1    0    0    0  501 -0.00000000000E+00  0.00000000000E+00  0.59705501106E+03  0.59705501106E+03  0.00000000000E+00 0.  1.
          1   -1    0    0  501    0  0.00000000000E+00 -0.00000000000E+00 -0.97377060917E+03  0.97377060917E+03  0.00000000000E+00 0. -1.
         23    2    1    2    0    0  0.64272342168E+03  0.16937293772E+03 -0.56838985527E+03  0.87907450193E+03  0.89018894479E+02 0.  0.
         11    1    3    3    0    0  0.30282103277E+03  0.78780570579E+02 -0.20963516143E+03  0.37663491221E+03  0.00000000000E+00 0. -1.
        -11    1    3    3    0    0  0.33990238891E+03  0.90592367142E+02 -0.35875469384E+03  0.50243958972E+03  0.00000000000E+00 0.  1.
         22    1    1    2    0    0 -0.64272342168E+03 -0.16937293772E+03  0.19167425716E+03  0.69175111830E+03  0.00000000000E+00 0.  1.
<mgrwt>
<rscale>  0 0.15249847E+04</rscale>
<asrwt>0</asrwt>
<pdfrwt beam="1">  1        1 0.14981086E+00 0.15249847E+04</pdfrwt>
<pdfrwt beam="2">  1       -1 0.91854618E-01 0.15249847E+04</pdfrwt>
<totfact> 0.17690558E+01</totfact>
</mgrwt>
</event>
<event>
 6    1  0.1773638E-005  0.2524015E+04  0.7818608E-02  0.8394480E-01
          2   -1    0    0  501    0  0.00000000000E+00  0.00000000000E+00  0.13480840942E+04  0.13480840942E+04  0.00000000000E+00 0. -1.
         -2   -1    0    0    0  501 -0.00000000000E+00 -0.00000000000E+00 -0.11814272252E+04  0.11814272252E+04  0.00000000000E+00 0.  1.
         23    2    1    2    0    0 -0.85249558348E+03  0.71246979361E+03 -0.51314200564E+03  0.12270181576E+04  0.88864584609E+02 0.  0.
         11    1    3    3    0    0 -0.26913333785E+03  0.25560044952E+03 -0.13345168808E+03  0.39442831591E+03  0.00000000000E+00 0. -1.
        -11    1    3    3    0    0 -0.58336224562E+03  0.45686934409E+03 -0.37969031756E+03  0.83258984166E+03  0.00000000000E+00 0.  1.
         22    1    1    2    0    0  0.85249558348E+03 -0.71246979361E+03  0.67979887464E+03  0.13024931618E+04  0.00000000000E+00 0. -1.
<mgrwt>
<rscale>  0 0.25240153E+04</rscale>
<asrwt>0</asrwt>
<pdfrwt beam="1">  1        2 0.20739755E+00 0.25240153E+04</pdfrwt>
<pdfrwt beam="2">  1       -2 0.18175804E+00 0.25240153E+04</pdfrwt>
<totfact> 0.24333026E+00</totfact>
</mgrwt>
</event>
<event>
 6    1  0.1773638E-005  0.1310783E+04  0.7818608E-02  0.9021058E-01
          1   -1    0    0  501    0  0.00000000000E+00  0.00000000000E+00  0.40484485330E+04  0.40484485330E+04  0.00000000000E+00 0. -1.
         -1   -1    0    0    0  501 -0.00000000000E+00 -0.00000000000E+00 -0.10609939468E+03  0.10609939468E+03  0.00000000000E+00 0.  1.
         23    2    1    2    0    0  0.24213790754E+03  0.13990328041E+03  0.38482351942E+04  0.38594866991E+04  0.92302633198E+02 0.  0.
         13    1    3    3    0    0  0.18973964685E+03  0.73826273436E+02  0.30563727916E+04  0.30631464368E+04  0.00000000000E+00 0.  1.
        -13    1    3    3    0    0  0.52398260684E+02  0.66077006972E+02  0.79186240269E+03  0.79634026230E+03  0.00000000000E+00 0. -1.
         22    1    1    2    0    0 -0.24213790754E+03 -0.13990328041E+03  0.94113944037E+02  0.29506122856E+03  0.00000000000E+00 0.  1.
<mgrwt>
<rscale>  0 0.13107829E+04</rscale>
<asrwt>0</asrwt>
<pdfrwt beam="1">  1        1 0.62283812E+00 0.13107829E+04</pdfrwt>
<pdfrwt beam="2">  1       -1 0.16322987E-01 0.13107829E+04</pdfrwt>
<totfact> 0.25168121E+00</totfact>
</mgrwt>
</event>
<event>
 6    1  0.1773638E-005  0.4564365E+04  0.7818608E-02  0.7899464E-01
          2   -1    0    0  501    0  0.00000000000E+00  0.00000000000E+00  0.46607425520E+04  0.46607425520E+04  0.00000000000E+00 0. -1.
         -2   -1    0    0    0  501 -0.00000000000E+00 -0.00000000000E+00 -0.11174953071E+04  0.11174953071E+04  0.00000000000E+00 0.  1.
         23    2    1    2    0    0  0.16904510265E+04  0.15117562045E+04  0.14589609265E+04  0.26980948507E+04  0.90096303712E+02 0.  0.
         13    1    3    3    0    0  0.13728346958E+04  0.12061771058E+04  0.12127510666E+04  0.21932404023E+04  0.00000000000E+00 0. -1.
        -13    1    3    3    0    0  0.31761633067E+03  0.30557909866E+03  0.24620985988E+03  0.50485444847E+03  0.00000000000E+00 0.  1.
         22    1    1    2    0    0 -0.16904510265E+04 -0.15117562045E+04  0.20842863184E+04  0.30801430084E+04  0.00000000000E+00 0. -1.
<mgrwt>
<rscale>  0 0.45643654E+04</rscale>
<asrwt>0</asrwt>
<pdfrwt beam="1">  1        2 0.71703730E+00 0.45643654E+04</pdfrwt>
<pdfrwt beam="2">  1       -2 0.17192236E+00 0.45643654E+04</pdfrwt>
<totfact> 0.13015421E-02</totfact>
</mgrwt>
</event>
<event>
 6    1  0.1773638E-005  0.1465198E+04  0.7818608E-02  0.8907931E-01
         -1   -1    0    0    0  501 -0.00000000000E+00  0.00000000000E+00  0.13558212470E+03  0.13558212470E+03  0.00000000000E+00 0.  1.
          1   -1    0    0  501    0  0.00000000000E+00 -0.00000000000E+00 -0.39584956359E+04  0.39584956359E+04  0.00000000000E+00 0. -1.
         23    2    1    2    0    0 -0.43315323039E+03 -0.40886297627E+03 -0.30968368381E+04  0.31549409284E+04  0.91995682378E+02 0.  0.
         13    1    3    3    0    0 -0.89933374713E+02 -0.13614399107E+03 -0.75566222092E+03  0.77307735080E+03  0.00000000000E+00 0. -1.
        -13    1    3    3    0    0 -0.34321985568E+03 -0.27271898520E+03 -0.23411746171E+04  0.23818635776E+04  0.00000000000E+00 0.  1.
         22    1    1    2    0    0  0.43315323039E+03  0.40886297627E+03 -0.72607667312E+03  0.93913683221E+03  0.00000000000E+00 0.  1.
<mgrwt>
<rscale>  0 0.14651979E+04</rscale>
<asrwt>0</asrwt>
<pdfrwt beam="1">  1        1 0.60899931E+00 0.14651979E+04</pdfrwt>
<pdfrwt beam="2">  1       -1 0.20858789E-01 0.14651979E+04</pdfrwt>
<totfact> 0.19679737E+00</totfact>
</mgrwt>
</event>
<event>
 6    1  0.1773638E-005  0.3044677E+04  0.7818608E-02  0.8231087E-01
          1   -1    0    0  501    0  0.00000000000E+00  0.00000000000E+00  0.31119829253E+04  0.31119829253E+04  0.00000000000E+00 0. -1.
         -1   -1    0    0    0  501 -0.00000000000E+00 -0.00000000000E+00 -0.74470645810E+03  0.74470645810E+03  0.00000000000E+00 0.  1.
         23    2    1    2    0    0 -0.19542714302E+03  0.92059259062E+03 -0.32856530800E+03  0.10013005547E+04  0.94684492325E+02 0.  0.
         11    1    3    3    0    0 -0.11743458949E+03  0.37211151945E+03 -0.16506017849E+03  0.42367762301E+03  0.00000000000E+00 0. -1.
        -11    1    3    3    0    0 -0.77992553533E+02  0.54848107116E+03 -0.16350512951E+03  0.57762293168E+03  0.00000000000E+00 0.  1.
         22    1    1    2    0    0  0.19542714302E+03 -0.92059259062E+03  0.26958417752E+04  0.28553888287E+04  0.00000000000E+00 0. -1.
<mgrwt>
<rscale>  0 0.30446765E+04</rscale>
<asrwt>0</asrwt>
<pdfrwt beam="1">  1        1 0.47876660E+00 0.30446765E+04</pdfrwt>
<pdfrwt beam="2">  1       -1 0.11457023E+00 0.30446765E+04</pdfrwt>
<totfact> 0.29009632E-01</totfact>
</mgrwt>
</event>
<event>
 6    1  0.1773638E-005  0.1811435E+04  0.7818608E-02  0.8700242E-01
          1   -1    0    0  501    0  0.00000000000E+00  0.00000000000E+00  0.11799499950E+04  0.11799499950E+04  0.00000000000E+00 0. -1.
         -1   -1    0    0    0  501 -0.00000000000E+00 -0.00000000000E+00 -0.69521950149E+03  0.69521950149E+03  0.00000000000E+00 0.  1.
         23    2    1    2    0    0  0.58123395813E+03 -0.57679841195E+03  0.63842693902E+03  0.10420116966E+04  0.87579091422E+02 0.  0.
         13    1    3    3    0    0  0.26464698089E+03 -0.20215596978E+03  0.25557957765E+03  0.41979278356E+03  0.00000000000E+00 0. -1.
        -13    1    3    3    0    0  0.31658697723E+03 -0.37464244216E+03  0.38284736136E+03  0.62221891303E+03  0.00000000000E+00 0.  1.
         22    1    1    2    0    0 -0.58123395813E+03  0.57679841195E+03 -0.15369644554E+03  0.83315779987E+03  0.00000000000E+00 0. -1.
<mgrwt>
<rscale>  0 0.18114351E+04</rscale>
<asrwt>0</asrwt>
<pdfrwt beam="1">  1        1 0.18153077E+00 0.18114351E+04</pdfrwt>
<pdfrwt beam="2">  1       -1 0.10695685E+00 0.18114351E+04</pdfrwt>
<totfact> 0.84975304E+00</totfact>
</mgrwt>
</event>
<event>
 6    1  0.1773638E-005  0.4971069E+04  0.7818608E-02  0.7832986E-01
         -2   -1    0    0    0  501 -0.00000000000E+00  0.00000000000E+00  0.49205474881E+04  0.49205474881E+04  0.00000000000E+00 0.  1.
          2   -1    0    0  501    0  0.00000000000E+00 -0.00000000000E+00 -0.12555274717E+04  0.12555274717E+04  0.00000000000E+00 0. -1.
         23    2    1    2    0    0  0.29434761931E+03  0.72693628776E+03  0.47623130255E+04  0.48273241172E+04  0.91410565107E+02 0.  0.
         13    1    3    3    0    0  0.34855586806E+02  0.46824444665E+02  0.48660592051E+03  0.49009464640E+03  0.00000000000E+00 0. -1.
        -13    1    3    3    0    0  0.25949203251E+03  0.68011184309E+03  0.42757071050E+04  0.43372294708E+04  0.00000000000E+00 0.  1.
         22    1    1    2    0    0 -0.29434761931E+03 -0.72693628776E+03 -0.10972930092E+04  0.13487508426E+04  0.00000000000E+00 0. -1.
<mgrwt>
<rscale>  0 0.49710693E+04</rscale>
<asrwt>0</asrwt>
<pdfrwt beam="1">  1        2 0.19315808E+00 0.49710693E+04</pdfrwt>
<pdfrwt beam="2">  1       -2 0.75700729E+00 0.49710693E+04</pdfrwt>
<totfact> 0.17137126E-03</totfact>
</mgrwt>
</event>
<event>
 6    1  0.1773638E-005  0.1658231E+04  0.7818608E-02  0.8785552E-01
         -1   -1    0    0    0  501 -0.00000000000E+00  0.00000000000E+00  0.64865205176E+03  0.64865205176E+03  0.00000000000E+00 0.  1.
          1   -1    0    0  501    0  0.00000000000E+00 -0.00000000000E+00 -0.10597857819E+04  0.10597857819E+04  0.00000000000E+00 0. -1.
         23    2    1    2    0    0  0.77717913699E+03  0.31946502949E+02  0.81683122679E+02  0.78762490997E+03  0.93020837716E+02 0.  0.
         13    1    3    3    0    0  0.41423477754E+03  0.45899492419E+02  0.70809978380E+01  0.41683012710E+03  0.00000000000E+00 0.  1.
        -13    1    3    3    0    0  0.36294435945E+03 -0.13952989470E+02  0.74602124841E+02  0.37079478287E+03  0.00000000000E+00 0. -1.
         22    1    1    2    0    0 -0.77717913699E+03 -0.31946502949E+02 -0.49281685284E+03  0.92081292371E+03  0.00000000000E+00 0. -1.
<mgrwt>
<rscale>  0 0.16582306E+04</rscale>
<asrwt>0</asrwt>
<pdfrwt beam="1">  1        1 0.16304397E+00 0.16582306E+04</pdfrwt>
<pdfrwt beam="2">  1       -1 0.99792623E-01 0.16582306E+04</pdfrwt>
<totfact> 0.12441844E+01</totfact>
</mgrwt>
</event>
<event>
 6    1  0.1773638E-005  0.2550004E+04  0.7818608E-02  0.8385385E-01
         -2   -1    0    0    0  501 -0.00000000000E+00  0.00000000000E+00  0.66566563823E+03  0.66566563823E+03  0.00000000000E+00 0. -1.
          2   -1    0    0  501    0  0.00000000000E+00 -0.00000000000E+00 -0.24421124654E+04  0.24421124654E+04  0.00000000000E+00 0.  1.
         23    2    1    2    0    0  0.27130491901E+03 -0.11812483422E+04 -0.13654835777E+04  0.18279949980E+04  0.89812620399E+02 0.  0.
         13    1    3    3    0    0  0.18756010710E+02 -0.23066719396E+03 -0.27734340308E+03  0.36121808584E+03  0.00000000000E+00 0. -1.
        -13    1    3    3    0    0  0.25254890830E+03 -0.95058114823E+03 -0.10881401746E+04  0.14667769121E+04  0.00000000000E+00 0.  1.
         22    1    1    2    0    0 -0.27130491901E+03  0.11812483422E+04 -0.41096324949E+03  0.12797831056E+04  0.00000000000E+00 0. -1.
<mgrwt>
<rscale>  0 0.25500042E+04</rscale>
<asrwt>0</asrwt>
<pdfrwt beam="1">  1        2 0.37570961E+00 0.25500042E+04</pdfrwt>
<pdfrwt beam="2">  1       -2 0.10241010E+00 0.25500042E+04</pdfrwt>
<totfact> 0.26058568E+00</totfact>
</mgrwt>
</event>
<event>
 6    1  0.1773638E-005  0.2043051E+04  0.7818608E-02  0.8586753E-01
          2   -1    0    0  501    0  0.00000000000E+00  0.00000000000E+00  0.97532714640E+03  0.97532714640E+03  0.00000000000E+00 0.  1.
         -2   -1    0    0    0  501 -0.00000000000E+00 -0.00000000000E+00 -0.10699119986E+04  0.10699119986E+04  0.00000000000E+00 0. -1.
         23    2    1    2    0    0 -0.43171743061E+02  0.16065743293E+03 -0.10543036122E+04  0.10712090077E+04  0.90873656546E+02 0.  0.
         11    1    3    3    0    0  0.11398907661E+02  0.10602078148E+03 -0.73532413458E+03  0.74301542655E+03  0.00000000000E+00 0.  1.
        -11    1    3    3    0    0 -0.54570650723E+02  0.54636651450E+02 -0.31897947759E+03  0.32819358118E+03  0.00000000000E+00 0. -1.
         22    1    1    2    0    0  0.43171743061E+02 -0.16065743293E+03  0.95971875995E+03  0.97403013730E+03  0.00000000000E+00 0.  1.
<mgrwt>
<rscale>  0 0.20430509E+04</rscale>
<asrwt>0</asrwt>
<pdfrwt beam="1">  1        2 0.15005033E+00 0.20430509E+04</pdfrwt>
<pdfrwt beam="2">  1       -2 0.16460185E+00 0.20430509E+04</pdfrwt>
<totfact> 0.56375616E+00</totfact>
</mgrwt>
</event>
<event>
 6    1  0.1773638E-005  0.2310468E+04  0.7818608E-02  0.8473805E-01
          1   -1    0    0  501    0  0.00000000000E+00  0.00000000000E+00  0.20031543044E+04  0.20031543044E+04  0.00000000000E+00 0. -1.
         -1   -1    0    0    0  501 -0.00000000000E+00 -0.00000000000E+00 -0.66623178858E+03  0.66623178858E+03  0.00000000000E+00 0.  1.
         23    2    1    2    0    0 -0.47773620922E+03  0.97053532522E+03  0.20422879380E+03  0.11031275667E+04  0.70783650473E+02 0.  0.
         13    1    3    3    0    0 -0.22696314881E+03  0.49243488460E+03  0.13547857167E+03  0.55889071371E+03  0.00000000000E+00 0.  1.
        -13    1    3    3    0    0 -0.25077306041E+03  0.47810044063E+03  0.68750222129E+02  0.54423685303E+03  0.00000000000E+00 0. -1.
         22    1    1    2    0    0  0.47773620922E+03 -0.97053532522E+03  0.11326937220E+04  0.15662585262E+04  0.00000000000E+00 0. -1.
<mgrwt>
<rscale>  0 0.23104676E+04</rscale>
<asrwt>0</asrwt>
<pdfrwt beam="1">  1        1 0.30817758E+00 0.23104676E+04</pdfrwt>
<pdfrwt beam="2">  1       -1 0.10249720E+00 0.23104676E+04</pdfrwt>
<totfact> 0.24108712E+00</totfact>
</mgrwt>
</event>
<event>
 6    1  0.1773638E-005  0.1609345E+04  0.7818608E-02  0.8814827E-01
          1   -1    0    0  501    0  0.00000000000E+00  0.00000000000E+00  0.65552390443E+03  0.65552390443E+03  0.00000000000E+00 0. -1.
         -1   -1    0    0    0  501 -0.00000000000E+00 -0.00000000000E+00 -0.98775660954E+03  0.98775660954E+03  0.00000000000E+00 0.  1.
         23    2    1    2    0    0 -0.35104438592E+03  0.55090119713E+03 -0.64195996462E+03  0.92033150804E+03  0.90405744487E+02 0.  0.
         11    1    3    3    0    0 -0.33911575871E+03  0.48641442353E+03 -0.56264311380E+03  0.81741407055E+03  0.00000000000E+00 0.  1.
        -11    1    3    3    0    0 -0.11928627209E+02  0.64486773598E+02 -0.79316850820E+02  0.10291743749E+03  0.00000000000E+00 0. -1.
         22    1    1    2    0    0  0.35104438592E+03 -0.55090119713E+03  0.30972725951E+03  0.72294900592E+03  0.00000000000E+00 0. -1.
<mgrwt>
<rscale>  0 0.16093453E+04</rscale>
<asrwt>0</asrwt>
<pdfrwt beam="1">  1        1 0.10084983E+00 0.16093453E+04</pdfrwt>
<pdfrwt beam="2">  1       -1 0.15196256E+00 0.16093453E+04</pdfrwt>
<totfact> 0.97135974E+00</totfact>
</mgrwt>
</event>
<event>
 6    1  0.1773638E-005  0.1810605E+04  0.7818608E-02  0.8700680E-01
          2   -1    0    0  501    0  0.00000000000E+00  0.00000000000E+00  0.22930021964E+04  0.22930021964E+04  0.00000000000E+00 0. -1.
         -2   -1    0    0    0  501 -0.00000000000E+00 -0.00000000000E+00 -0.35742325634E+03  0.35742325634E+03  0.00000000000E+00 0.  1.
         23    2    1    2    0    0 -0.11996366441E+03 -0.38853101383E+03 -0.20992326425E+03  0.46672965475E+03  0.91766901794E+02 0.  0.
         13    1    3    3    0    0  0.46563715109E+01 -0.12385866395E+03 -0.71493029052E+02  0.14308704915E+03  0.00000000000E+00 0.  1.
        -13    1    3    3    0    0 -0.12462003592E+03 -0.26467234987E+03 -0.13843023520E+03  0.32364260560E+03  0.00000000000E+00 0. -1.
         22    1    1    2    0    0  0.11996366441E+03  0.38853101383E+03  0.21455022043E+04  0.21836957980E+04  0.00000000000E+00 0. -1.
<mgrwt>
<rscale>  0 0.18106047E+04</rscale>
<asrwt>0</asrwt>
<pdfrwt beam="1">  1        2 0.35276956E+00 0.18106047E+04</pdfrwt>
<pdfrwt beam="2">  1       -2 0.54988195E-01 0.18106047E+04</pdfrwt>
<totfact> 0.13429908E+01</totfact>
</mgrwt>
</event>
<event>
 6    1  0.1773638E-005  0.1993308E+04  0.7818608E-02  0.8609756E-01
         -2   -1    0    0    0  501 -0.00000000000E+00  0.00000000000E+00  0.33768658427E+03  0.33768658427E+03  0.00000000000E+00 0.  1.
          2   -1    0    0  501    0  0.00000000000E+00 -0.00000000000E+00 -0.29415417797E+04  0.29415417797E+04  0.00000000000E+00 0. -1.
         23    2    1    2    0    0  0.70143348384E+03 -0.42663018753E+03 -0.37990275678E+03  0.90857725118E+03  0.84641996625E+02 0.  0.
         13    1    3    3    0    0  0.52384320295E+03 -0.34399191191E+03 -0.25703387019E+03  0.67735407813E+03  0.00000000000E+00 0. -1.
        -13    1    3    3    0    0  0.17759028088E+03 -0.82638275627E+02 -0.12286888659E+03  0.23122317305E+03  0.00000000000E+00 0.  1.
         22    1    1    2    0    0 -0.70143348384E+03  0.42663018753E+03 -0.22239524386E+04  0.23706511127E+04  0.00000000000E+00 0. -1.
<mgrwt>
<rscale>  0 0.19933080E+04</rscale>
<asrwt>0</asrwt>
<pdfrwt beam="1">  1        2 0.45254490E+00 0.19933080E+04</pdfrwt>
<pdfrwt beam="2">  1       -2 0.51951781E-01 0.19933080E+04</pdfrwt>
<totfact> 0.61716159E+00</totfact>
</mgrwt>
</event>
<event>
 6    1  0.1773638E-005  0.1229497E+04  0.7818608E-02  0.9087423E-01
         -2   -1    0    0    0  501 -0.00000000000E+00  0.00000000000E+00  0.71685100623E+03  0.71685100623E+03  0.00000000000E+00 0.  1.
          2   -1    0    0  501    0  0.00000000000E+00 -0.00000000000E+00 -0.52718822688E+03  0.52718822688E+03  0.00000000000E+00 0. -1.
         23    2    1    2    0    0  0.18338634653E+03  0.56257119165E+03 -0.59540771766E+02  0.60199616005E+03  0.93473929228E+02 0.  0.
         13    1    3    3    0    0  0.11825455597E+03  0.26915476774E+03  0.73718552585E+01  0.29407953559E+03  0.00000000000E+00 0. -1.
        -13    1    3    3    0    0  0.65131790560E+02  0.29341642391E+03 -0.66912627025E+02  0.30791662446E+03  0.00000000000E+00 0.  1.
         22    1    1    2    0    0 -0.18338634653E+03 -0.56257119165E+03  0.24920355112E+03  0.64204307306E+03  0.00000000000E+00 0.  1.
<mgrwt>
<rscale>  0 0.12294965E+04</rscale>
<asrwt>0</asrwt>
<pdfrwt beam="1">  1        2 0.81105881E-01 0.12294965E+04</pdfrwt>
<pdfrwt beam="2">  1       -2 0.11028477E+00 0.12294965E+04</pdfrwt>
<totfact> 0.37216132E+01</totfact>
</mgrwt>
</event>
<event>
 6    1  0.1773638E-005  0.1108778E+04  0.7818608E-02  0.9196678E-01
         -1   -1    0    0    0  501 -0.00000000000E+00  0.00000000000E+00  0.27392393126E+03  0.27392393126E+03  0.00000000000E+00 0.  1.
          1   -1    0    0  501    0  0.00000000000E+00 -0.00000000000E+00 -0.11220160124E+04  0.11220160124E+04  0.00000000000E+00 0. -1.
         23    2    1    2    0    0  0.44324789476E+03 -0.98364869744E+02 -0.35089714050E+02  0.46474866756E+03  0.92820752849E+02 0.  0.
         11    1    3    3    0    0  0.19958743553E+03 -0.84386872326E+02 -0.41365746410E+02  0.22060692106E+03  0.00000000000E+00 0. -1.
        -11    1    3    3    0    0  0.24366045923E+03 -0.13977997418E+02  0.62760323597E+01  0.24414174650E+03  0.00000000000E+00 0.  1.
         22    1    1    2    0    0 -0.44324789476E+03  0.98364869744E+02 -0.81300236712E+03  0.93119127613E+03  0.00000000000E+00 0. -1.
<mgrwt>
<rscale>  0 0.11087778E+04</rscale>
<asrwt>0</asrwt>
<pdfrwt beam="1">  1        1 0.17261785E+00 0.11087778E+04</pdfrwt>
<pdfrwt beam="2">  1       -1 0.42142144E-01 0.11087778E+04</pdfrwt>
<totfact> 0.67210371E+01</totfact>
</mgrwt>
</event>
<event>
 6    1  0.1773638E-005  0.4237926E+04  0.7818608E-02  0.7958197E-01
          1   -1    0    0  501    0  0.00000000000E+00  0.00000000000E+00  0.50726148876E+04  0.50726148876E+04  0.00000000000E+00 0. -1.
         -1   -1    0    0    0  501 -0.00000000000E+00 -0.00000000000E+00 -0.88514589118E+03  0.88514589118E+03  0.00000000000E+00 0.  1.
         23    2    1    2    0    0 -0.28064736348E+03 -0.80537933427E+03 -0.63077030473E+03  0.10646197857E+04  0.90251294568E+02 0.  0.
         13    1    3    3    0    0 -0.18100645234E+03 -0.59087475410E+03 -0.49593048299E+03  0.79236566987E+03  0.00000000000E+00 0. -1.
        -13    1    3    3    0    0 -0.99640911142E+02 -0.21450458016E+03 -0.13483982174E+03  0.27225411588E+03  0.00000000000E+00 0.  1.
         22    1    1    2    0    0  0.28064736348E+03  0.80537933427E+03  0.48182393011E+04  0.48931409930E+04  0.00000000000E+00 0. -1.
<mgrwt>
<rscale>  0 0.42379260E+04</rscale>
<asrwt>0</asrwt>
<pdfrwt beam="1">  1        1 0.78040227E+00 0.42379260E+04</pdfrwt>
<pdfrwt beam="2">  1       -1 0.13617629E+00 0.42379260E+04</pdfrwt>
<totfact> 0.23732568E-03</totfact>
</mgrwt>
</event>
<event>
 6    1  0.1773638E-005  0.1939972E+04  0.7818608E-02  0.8635212E-01
          2   -1    0    0  501    0  0.00000000000E+00  0.00000000000E+00  0.10450204132E+04  0.10450204132E+04  0.00000000000E+00 0. -1.
         -2   -1    0    0    0  501 -0.00000000000E+00 -0.00000000000E+00 -0.90033924623E+03  0.90033924623E+03  0.00000000000E+00 0.  1.
         23    2    1    2    0    0  0.31688801135E+03 -0.18484391870E+03  0.97062679109E+03  0.10416055667E+04  0.90777216463E+02 0.  0.
         11    1    3    3    0    0  0.77971185538E+02 -0.10559199764E+02  0.15120828681E+03  0.17045512158E+03  0.00000000000E+00 0.  1.
        -11    1    3    3    0    0  0.23891682581E+03 -0.17428471894E+03  0.81941850428E+03  0.87115044514E+03  0.00000000000E+00 0. -1.
         22    1    1    2    0    0 -0.31688801135E+03  0.18484391870E+03 -0.82594562414E+03  0.90375409269E+03  0.00000000000E+00 0.  1.
<mgrwt>
<rscale>  0 0.19399721E+04</rscale>
<asrwt>0</asrwt>
<pdfrwt beam="1">  1        2 0.16077237E+00 0.19399721E+04</pdfrwt>
<pdfrwt beam="2">  1       -2 0.13851373E+00 0.19399721E+04</pdfrwt>
<totfact> 0.81279692E+00</totfact>
</mgrwt>
</event>
<event>
 6    1  0.1773638E-005  0.3170976E+03  0.7818608E-02  0.1076993E+00
         -2   -1    0    0    0  501 -0.00000000000E+00  0.00000000000E+00  0.29069623952E+03  0.29069623952E+03  0.00000000000E+00 0. -1.
          2   -1    0    0  501    0  0.00000000000E+00 -0.00000000000E+00 -0.86474174282E+02  0.86474174282E+02  0.00000000000E+00 0.  1.
         23    2    1    2    0    0  0.61100549858E+02 -0.13161692464E+03  0.97620749597E+02  0.19711449876E+03  0.90928668882E+02 0.  0.
         13    1    3    3    0    0 -0.18096265504E+02 -0.10054116641E+02  0.31450843690E+02  0.37652565057E+02  0.00000000000E+00 0. -1.
        -13    1    3    3    0    0  0.79196815362E+02 -0.12156280800E+03  0.66169905908E+02  0.15946193370E+03  0.00000000000E+00 0.  1.
         22    1    1    2    0    0 -0.61100549858E+02  0.13161692464E+03  0.10660131564E+03  0.18005591504E+03  0.00000000000E+00 0.  1.
<mgrwt>
<rscale>  0 0.31709757E+03</rscale>
<asrwt>0</asrwt>
<pdfrwt beam="1">  1        2 0.13303719E-01 0.31709757E+03</pdfrwt>
<pdfrwt beam="2">  1       -2 0.44722498E-01 0.31709757E+03</pdfrwt>
<totfact> 0.21644038E+03</totfact>
</mgrwt>
</event>
<event>
 6    1  0.1773638E-005  0.1386298E+04  0.7818608E-02  0.8963797E-01
          1   -1    0    0  501    0  0.00000000000E+00  0.00000000000E+00  0.66690524970E+03  0.66690524970E+03  0.00000000000E+00 0. -1.
         -1   -1    0    0    0  501 -0.00000000000E+00 -0.00000000000E+00 -0.72042568539E+03  0.72042568539E+03  0.00000000000E+00 0.  1.
         23    2    1    2    0    0 -0.44147393859E+03 -0.27172662346E+03 -0.48262428258E+03  0.71437870218E+03  0.93145776286E+02 0.  0.
         11    1    3    3    0    0 -0.16753542137E+03 -0.53669267895E+02 -0.14490917812E+03  0.22791923490E+03  0.00000000000E+00 0. -1.
        -11    1    3    3    0    0 -0.27393851722E+03 -0.21805735557E+03 -0.33771510446E+03  0.48645946729E+03  0.00000000000E+00 0.  1.
         22    1    1    2    0    0  0.44147393859E+03  0.27172662346E+03  0.42910384689E+03  0.67295223290E+03  0.00000000000E+00 0. -1.
<mgrwt>
<rscale>  0 0.13862982E+04</rscale>
<asrwt>0</asrwt>
<pdfrwt beam="1">  1        1 0.10260081E+00 0.13862982E+04</pdfrwt>
<pdfrwt beam="2">  1       -1 0.11083472E+00 0.13862982E+04</pdfrwt>
<totfact> 0.21457014E+01</totfact>
</mgrwt>
</event>
<event>
 6    1  0.1773638E-005  0.3178715E+04  0.7818608E-02  0.8194461E-01
         -2   -1    0    0    0  501 -0.00000000000E+00  0.00000000000E+00  0.72156591492E+03  0.72156591492E+03  0.00000000000E+00 0.  1.
          2   -1    0    0  501    0  0.00000000000E+00 -0.00000000000E+00 -0.35007982288E+04  0.35007982288E+04  0.00000000000E+00 0. -1.
         23    2    1    2    0    0 -0.58490913409E+03  0.33013962100E+03 -0.33022796706E+04  0.33710772345E+04  0.89441790577E+02 0.  0.
         11    1    3    3    0    0 -0.39246144066E+03  0.17344531579E+03 -0.21421335455E+04  0.21846842762E+04  0.00000000000E+00 0.  1.
        -11    1    3    3    0    0 -0.19244769343E+03  0.15669430521E+03 -0.11601461251E+04  0.11863929583E+04  0.00000000000E+00 0. -1.
         22    1    1    2    0    0  0.58490913409E+03 -0.33013962100E+03  0.52304735667E+03  0.85128690922E+03  0.00000000000E+00 0.  1.
<mgrwt>
<rscale>  0 0.31787146E+04</rscale>
<asrwt>0</asrwt>
<pdfrwt beam="1">  1        2 0.53858432E+00 0.31787146E+04</pdfrwt>
<pdfrwt beam="2">  1       -2 0.11101015E+00 0.31787146E+04</pdfrwt>
<totfact> 0.43957496E-01</totfact>
</mgrwt>
</event>
<event>
 6    1  0.1773638E-005  0.1834142E+04  0.7818608E-02  0.8688351E-01
         -1   -1    0    0    0  501 -0.00000000000E+00  0.00000000000E+00  0.63185830332E+03  0.63185830332E+03  0.00000000000E+00 0.  1.
          1   -1    0    0  501    0  0.00000000000E+00 -0.00000000000E+00 -0.13310243460E+04  0.13310243460E+04  0.00000000000E+00 0. -1.
         23    2    1    2    0    0  0.69203200260E+02  0.55741432530E+03  0.42248887363E+03  0.70844669470E+03  0.88882269955E+02 0.  0.
         11    1    3    3    0    0  0.51710828737E+02  0.50891970678E+03  0.40956354293E+03  0.65529807985E+03  0.00000000000E+00 0. -1.
        -11    1    3    3    0    0  0.17492371522E+02  0.48494618520E+02  0.12925330706E+02  0.53148614852E+02  0.00000000000E+00 0.  1.
         22    1    1    2    0    0 -0.69203200260E+02 -0.55741432530E+03 -0.11216549163E+04  0.12544359546E+04  0.00000000000E+00 0. -1.
<mgrwt>
<rscale>  0 0.18341415E+04</rscale>
<asrwt>0</asrwt>
<pdfrwt beam="1">  1        1 0.20477298E+00 0.18341415E+04</pdfrwt>
<pdfrwt beam="2">  1       -1 0.97208970E-01 0.18341415E+04</pdfrwt>
<totfact> 0.82223336E+00</totfact>
</mgrwt>
</event>
<event>
 6    1  0.1773638E-005  0.1297682E+04  0.7818608E-02  0.9031406E-01
          3   -1    0    0  501    0  0.00000000000E+00  0.00000000000E+00  0.11879181250E+04  0.11879181250E+04  0.00000000000E+00 0. -1.
         -3   -1    0    0    0  501 -0.00000000000E+00 -0.00000000000E+00 -0.35439680477E+03  0.35439680477E+03  0.00000000000E+00 0.  1.
         23    2    1    2    0    0 -0.55469452218E+03 -0.23701771316E+03  0.14552990224E+03  0.62733099521E+03  0.92205291720E+02 0.  0.
         13    1    3    3    0    0 -0.54558229053E+02 -0.55660981525E+02  0.24927244115E+02  0.81829778937E+02  0.00000000000E+00 0. -1.
        -13    1    3    3    0    0 -0.50013629312E+03 -0.18135673164E+03  0.12060265813E+03  0.54550121628E+03  0.00000000000E+00 0.  1.
         22    1    1    2    0    0  0.55469452218E+03  0.23701771316E+03  0.68799141802E+03  0.91498393459E+03  0.00000000000E+00 0. -1.
<mgrwt>
<rscale>  0 0.12976816E+04</rscale>
<asrwt>0</asrwt>
<pdfrwt beam="1">  1        3 0.18275663E+00 0.12976816E+04</pdfrwt>
<pdfrwt beam="2">  1       -3 0.54522586E-01 0.12976816E+04</pdfrwt>
<totfact> 0.16240138E+00</totfact>
</mgrwt>
</event>
<event>
 6    1  0.1773638E-005  0.2237805E+04  0.7818608E-02  0.8502856E-01
          1   -1    0    0  501    0  0.00000000000E+00  0.00000000000E+00  0.40340884314E+04  0.40340884314E+04  0.00000000000E+00 0. -1.
         -1   -1    0    0    0  501 -0.00000000000E+00 -0.00000000000E+00 -0.31034099104E+03  0.31034099104E+03  0.00000000000E+00 0.  1.
         23    2    1    2    0    0 -0.10028866511E+04 -0.10280149753E+02  0.91066820446E+03  0.13579093566E+04  0.93348409397E+02 0.  0.
         11    1    3    3    0    0 -0.23510510376E+03  0.24286995027E+02  0.17589183924E+03  0.29462214284E+03  0.00000000000E+00 0.  1.
        -11    1    3    3    0    0 -0.76778154737E+03 -0.34567144780E+02  0.73477636522E+03  0.10632872137E+04  0.00000000000E+00 0. -1.
         22    1    1    2    0    0  0.10028866511E+04  0.10280149753E+02  0.28130792359E+04  0.29865200659E+04  0.00000000000E+00 0. -1.
<mgrwt>
<rscale>  0 0.22378052E+04</rscale>
<asrwt>0</asrwt>
<pdfrwt beam="1">  1        1 0.62062895E+00 0.22378052E+04</pdfrwt>
<pdfrwt beam="2">  1       -1 0.47744771E-01 0.22378052E+04</pdfrwt>
<totfact> 0.35832209E-01</totfact>
</mgrwt>
</event>
<event>
 6    1  0.1773638E-005  0.1860231E+04  0.7818608E-02  0.8674909E-01
         -2   -1    0    0    0  501 -0.00000000000E+00  0.00000000000E+00  0.94585508609E+03  0.94585508609E+03  0.00000000000E+00 0.  1.
          2   -1    0    0  501    0  0.00000000000E+00 -0.00000000000E+00 -0.91463829639E+03  0.91463829639E+03  0.00000000000E+00 0. -1.
         23    2    1    2    0    0 -0.55746898805E+03  0.68333204662E+03  0.30439327254E+03  0.93727090152E+03  0.90039546221E+02 0.  0.
         11    1    3    3    0    0 -0.39817336999E+03  0.43313050698E+03  0.22808755453E+03  0.63100554766E+03  0.00000000000E+00 0.  1.
        -11    1    3    3    0    0 -0.15929561807E+03  0.25020153964E+03  0.76305718014E+02  0.30626535386E+03  0.00000000000E+00 0. -1.
         22    1    1    2    0    0  0.55746898805E+03 -0.68333204662E+03 -0.27317648284E+03  0.92322248097E+03  0.00000000000E+00 0.  1.
<mgrwt>
<rscale>  0 0.18602315E+04</rscale>
<asrwt>0</asrwt>
<pdfrwt beam="1">  1        2 0.14071358E+00 0.18602315E+04</pdfrwt>
<pdfrwt beam="2">  1       -2 0.14551617E+00 0.18602315E+04</pdfrwt>
<totfact> 0.87404146E+00</totfact>
</mgrwt>
</event>
<event>
 6    1  0.1773638E-005  0.2287892E+04  0.7818608E-02  0.8482711E-01
          2   -1    0    0  501    0  0.00000000000E+00  0.00000000000E+00  0.17658382512E+04  0.17658382512E+04  0.00000000000E+00 0. -1.
         -2   -1    0    0    0  501 -0.00000000000E+00 -0.00000000000E+00 -0.74107130290E+03  0.74107130290E+03  0.00000000000E+00 0.  1.
         23    2    1    2    0    0 -0.63851474534E+03 -0.16840614654E+02  0.15506518877E+04  0.16795404371E+04  0.91378971942E+02 0.  0.
         11    1    3    3    0    0 -0.36217364184E+03  0.30589980138E+02  0.92967096910E+03  0.99819517356E+03  0.00000000000E+00 0. -1.
        -11    1    3    3    0    0 -0.27634110350E+03 -0.47430594792E+02  0.62098091861E+03  0.68134526349E+03  0.00000000000E+00 0.  1.
         22    1    1    2    0    0  0.63851474534E+03  0.16840614654E+02 -0.52588493941E+03  0.82736911704E+03  0.00000000000E+00 0.  1.
<mgrwt>
<rscale>  0 0.22878917E+04</rscale>
<asrwt>0</asrwt>
<pdfrwt beam="1">  1        2 0.27166742E+00 0.22878917E+04</pdfrwt>
<pdfrwt beam="2">  1       -2 0.11401097E+00 0.22878917E+04</pdfrwt>
<totfact> 0.49267156E+00</totfact>
</mgrwt>
</event>
<event>
 6    1  0.1773638E-005  0.2654982E+04  0.7818608E-02  0.8349761E-01
         -1   -1    0    0    0  501 -0.00000000000E+00  0.00000000000E+00  0.12105771344E+04  0.12105771344E+04  0.00000000000E+00 0. -1.
          1   -1    0    0  501    0  0.00000000000E+00 -0.00000000000E+00 -0.14556956998E+04  0.14556956998E+04  0.00000000000E+00 0.  1.
         23    2    1    2    0    0  0.28337562712E+02 -0.12931509774E+04  0.16984253666E+03  0.13078784938E+04  0.93044073283E+02 0.  0.
         13    1    3    3    0    0 -0.12844950246E+02 -0.98228954008E+03  0.10837522956E+03  0.98833340715E+03  0.00000000000E+00 0. -1.
        -13    1    3    3    0    0  0.41182512959E+02 -0.31086143728E+03  0.61467307108E+02  0.31954508665E+03  0.00000000000E+00 0.  1.
         22    1    1    2    0    0 -0.28337562712E+02  0.12931509774E+04 -0.41496110215E+03  0.13583943404E+04  0.00000000000E+00 0.  1.
<mgrwt>
<rscale>  0 0.26549817E+04</rscale>
<asrwt>0</asrwt>
<pdfrwt beam="1">  1        1 0.22395318E+00 0.26549817E+04</pdfrwt>
<pdfrwt beam="2">  1       -1 0.18624264E+00 0.26549817E+04</pdfrwt>
<totfact> 0.11562699E+00</totfact>
</mgrwt>
</event>
<event>
 6    1  0.1773638E-005  0.3006129E+04  0.7818608E-02  0.8241983E-01
         -1   -1    0    0    0  501 -0.00000000000E+00  0.00000000000E+00  0.12139829656E+04  0.12139829656E+04  0.00000000000E+00 0.  1.
          1   -1    0    0  501    0  0.00000000000E+00 -0.00000000000E+00 -0.18609835389E+04  0.18609835389E+04  0.00000000000E+00 0. -1.
         23    2    1    2    0    0 -0.70371024696E+03 -0.13092320026E+04 -0.54218184611E+03  0.15849049239E+04  0.93090898084E+02 0.  0.
         11    1    3    3    0    0 -0.24189842044E+03 -0.41662109929E+03 -0.13279877370E+03  0.49972342399E+03  0.00000000000E+00 0.  1.
        -11    1    3    3    0    0 -0.46181182652E+03 -0.89261090331E+03 -0.40938307241E+03  0.10851814999E+04  0.00000000000E+00 0. -1.
         22    1    1    2    0    0  0.70371024696E+03  0.13092320026E+04 -0.10481872714E+03  0.14900615806E+04  0.00000000000E+00 0.  1.
<mgrwt>
<rscale>  0 0.30061286E+04</rscale>
<asrwt>0</asrwt>
<pdfrwt beam="1">  1        1 0.28630516E+00 0.30061286E+04</pdfrwt>
<pdfrwt beam="2">  1       -1 0.18676661E+00 0.30061286E+04</pdfrwt>
<totfact> 0.58662639E-01</totfact>
</mgrwt>
</event>
<event>
 6    1  0.1773638E-005  0.6037439E+03  0.7818608E-02  0.9897669E-01
         -2   -1    0    0    0  501 -0.00000000000E+00  0.00000000000E+00  0.14706853808E+03  0.14706853808E+03  0.00000000000E+00 0.  1.
          2   -1    0    0  501    0  0.00000000000E+00 -0.00000000000E+00 -0.61962041025E+03  0.61962041025E+03  0.00000000000E+00 0. -1.
         23    2    1    2    0    0 -0.40226969053E+02 -0.38214592616E+02 -0.60946975092E+03  0.61895584558E+03  0.92598041894E+02 0.  0.
         11    1    3    3    0    0  0.29780260311E+02 -0.12348135747E+02 -0.22635696088E+03  0.22864123447E+03  0.00000000000E+00 0. -1.
        -11    1    3    3    0    0 -0.70007229364E+02 -0.25866456868E+02 -0.38311279004E+03  0.39031461111E+03  0.00000000000E+00 0.  1.
         22    1    1    2    0    0  0.40226969053E+02  0.38214592616E+02  0.13691787874E+03  0.14773310275E+03  0.00000000000E+00 0.  1.
<mgrwt>
<rscale>  0 0.60374388E+03</rscale>
<asrwt>0</asrwt>
<pdfrwt beam="1">  1        2 0.95326217E-01 0.60374388E+03</pdfrwt>
<pdfrwt beam="2">  1       -2 0.22625929E-01 0.60374388E+03</pdfrwt>
<totfact> 0.82189902E+02</totfact>
</mgrwt>
</event>
<event>
 6    1  0.1773638E-005  0.8000626E+03  0.7818608E-02  0.9559926E-01
         -1   -1    0    0    0  501 -0.00000000000E+00  0.00000000000E+00  0.53701595640E+02  0.53701595640E+02  0.00000000000E+00 0.  1.
          1   -1    0    0  501    0  0.00000000000E+00 -0.00000000000E+00 -0.29798936731E+04  0.29798936731E+04  0.00000000000E+00 0. -1.
         23    2    1    2    0    0 -0.26676281191E+03 -0.23206214355E+03 -0.21466902935E+04  0.21776523574E+04  0.94209007850E+02 0.  0.
         13    1    3    3    0    0 -0.17603148923E+03 -0.90933337075E+02 -0.11652527834E+04  0.11819771598E+04  0.00000000000E+00 0. -1.
        -13    1    3    3    0    0 -0.90731322687E+02 -0.14112880648E+03 -0.98143751008E+03  0.99567519761E+03  0.00000000000E+00 0.  1.
         22    1    1    2    0    0  0.26676281191E+03  0.23206214355E+03 -0.77950178395E+03  0.85594291134E+03  0.00000000000E+00 0.  1.
<mgrwt>
<rscale>  0 0.80006261E+03</rscale>
<asrwt>0</asrwt>
<pdfrwt beam="1">  1        1 0.45844524E+00 0.80006261E+03</pdfrwt>
<pdfrwt beam="2">  1       -1 0.82617829E-02 0.80006261E+03</pdfrwt>
<totfact> 0.55379570E+01</totfact>
</mgrwt>
</event>
<event>
 6    1  0.1773638E-005  0.3667938E+04  0.7818608E-02  0.8075104E-01
         -1   -1    0    0    0  501 -0.00000000000E+00  0.00000000000E+00  0.84153998371E+03  0.84153998371E+03  0.00000000000E+00 0.  1.
          1   -1    0    0  501    0  0.00000000000E+00 -0.00000000000E+00 -0.39967711490E+04  0.39967711490E+04  0.00000000000E+00 0. -1.
         23    2    1    2    0    0 -0.42177291433E+03  0.17767066658E+04 -0.17856237246E+04  0.25556803020E+04  0.92036692641E+02 0.  0.
         13    1    3    3    0    0 -0.77914315624E+02  0.24476501134E+03 -0.28780840859E+03  0.38576447660E+03  0.00000000000E+00 0. -1.
        -13    1    3    3    0    0 -0.34385859870E+03  0.15319416545E+04 -0.14978153160E+04  0.21699158254E+04  0.00000000000E+00 0.  1.
         22    1    1    2    0    0  0.42177291433E+03 -0.17767066658E+04 -0.13696074407E+04  0.22826308307E+04  0.00000000000E+00 0. -1.
<mgrwt>
<rscale>  0 0.36679382E+04</rscale>
<asrwt>0</asrwt>
<pdfrwt beam="1">  1        1 0.61488789E+00 0.36679382E+04</pdfrwt>
<pdfrwt beam="2">  1       -1 0.12946769E+00 0.36679382E+04</pdfrwt>
<totfact> 0.39702112E-02</totfact>
</mgrwt>
</event>
<event>
 6    1  0.1773638E-005  0.2341546E+04  0.7818608E-02  0.8461718E-01
          2   -1    0    0  501    0  0.00000000000E+00  0.00000000000E+00  0.16845389802E+04  0.16845389802E+04  0.00000000000E+00 0. -1.
         -2   -1    0    0    0  501 -0.00000000000E+00 -0.00000000000E+00 -0.81369975522E+03  0.81369975522E+03  0.00000000000E+00 0.  1.
         23    2    1    2    0    0 -0.46394289061E+03 -0.22719983313E+03 -0.68265709988E+03  0.86110294347E+03  0.92815910867E+02 0.  0.
         13    1    3    3    0    0 -0.18855037873E+03 -0.13414137520E+03 -0.34687319087E+03  0.41697261829E+03  0.00000000000E+00 0. -1.
        -13    1    3    3    0    0 -0.27539251188E+03 -0.93058457933E+02 -0.33578390902E+03  0.44413032518E+03  0.00000000000E+00 0.  1.
         22    1    1    2    0    0  0.46394289061E+03  0.22719983313E+03  0.15534963248E+04  0.16371357919E+04  0.00000000000E+00 0. -1.
<mgrwt>
<rscale>  0 0.23415456E+04</rscale>
<asrwt>0</asrwt>
<pdfrwt beam="1">  1        2 0.25915984E+00 0.23415456E+04</pdfrwt>
<pdfrwt beam="2">  1       -2 0.12518458E+00 0.23415456E+04</pdfrwt>
<totfact> 0.43182677E+00</totfact>
</mgrwt>
</event>
<event>
 6    1  0.1773638E-005  0.4589978E+04  0.7818608E-02  0.7895071E-01
          1   -1    0    0  501    0  0.00000000000E+00  0.00000000000E+00  0.23151756369E+04  0.23151756369E+04  0.00000000000E+00 0. -1.
         -1   -1    0    0    0  501 -0.00000000000E+00 -0.00000000000E+00 -0.22749784367E+04  0.22749784367E+04  0.00000000000E+00 0.  1.
         23    2    1    2    0    0  0.18269769633E+03  0.87809342232E+03  0.21315178961E+04  0.23146214415E+04  0.98373621203E+02 0.  0.
         11    1    3    3    0    0  0.13839700700E+03  0.63729970636E+03  0.14324178469E+04  0.15738886668E+04  0.00000000000E+00 0. -1.
        -11    1    3    3    0    0  0.44300689329E+02  0.24079371596E+03  0.69910004919E+03  0.74073277469E+03  0.00000000000E+00 0.  1.
         22    1    1    2    0    0 -0.18269769633E+03 -0.87809342232E+03 -0.20913206959E+04  0.22755326321E+04  0.00000000000E+00 0.  1.
<mgrwt>
<rscale>  0 0.45899781E+04</rscale>
<asrwt>0</asrwt>
<pdfrwt beam="1">  1        1 0.35618087E+00 0.45899781E+04</pdfrwt>
<pdfrwt beam="2">  1       -1 0.34999668E+00 0.45899781E+04</pdfrwt>
<totfact> 0.21061920E-02</totfact>
</mgrwt>
</event>
<event>
 6    1  0.1773638E-005  0.2357452E+04  0.7818608E-02  0.8455607E-01
         -2   -1    0    0    0  501 -0.00000000000E+00  0.00000000000E+00  0.42029155143E+03  0.42029155143E+03  0.00000000000E+00 0.  1.
          2   -1    0    0  501    0  0.00000000000E+00 -0.00000000000E+00 -0.33057873092E+04  0.33057873092E+04  0.00000000000E+00 0. -1.
         23    2    1    2    0    0 -0.74245717917E+03  0.57787906944E+03 -0.25626215037E+04  0.27313755552E+04  0.90534914944E+02 0.  0.
         11    1    3    3    0    0 -0.63277043793E+03  0.50482546749E+03 -0.22828790739E+04  0.24221445138E+04  0.00000000000E+00 0.  1.
        -11    1    3    3    0    0 -0.10968674124E+03  0.73053601959E+02 -0.27974242982E+03  0.30923104146E+03  0.00000000000E+00 0. -1.
         22    1    1    2    0    0  0.74245717917E+03 -0.57787906944E+03 -0.32287425408E+03  0.99470330539E+03  0.00000000000E+00 0.  1.
<mgrwt>
<rscale>  0 0.23574516E+04</rscale>
<asrwt>0</asrwt>
<pdfrwt beam="1">  1        2 0.50858265E+00 0.23574516E+04</pdfrwt>
<pdfrwt beam="2">  1       -2 0.64660240E-01 0.23574516E+04</pdfrwt>
<totfact> 0.22027875E+00</totfact>
</mgrwt>
</event>
<event>
 6    1  0.1773638E-005  0.2936488E+04  0.7818608E-02  0.8262103E-01
          2   -1    0    0  501    0  0.00000000000E+00  0.00000000000E+00  0.37300753322E+04  0.37300753322E+04  0.00000000000E+00 0. -1.
         -2   -1    0    0    0  501 -0.00000000000E+00 -0.00000000000E+00 -0.57793477226E+03  0.57793477226E+03  0.00000000000E+00 0.  1.
         23    2    1    2    0    0  0.24004773975E+03 -0.18954864690E+03  0.36821926726E+04  0.36960404574E+04  0.92847064714E+02 0.  0.
         11    1    3    3    0    0  0.21555536988E+03 -0.12362315679E+03  0.27543423469E+04  0.27655286233E+04  0.00000000000E+00 0. -1.
        -11    1    3    3    0    0  0.24492369871E+02 -0.65925490107E+02  0.92785032570E+03  0.93051183406E+03  0.00000000000E+00 0.  1.
         22    1    1    2    0    0 -0.24004773975E+03  0.18954864690E+03 -0.53005211263E+03  0.61196964712E+03  0.00000000000E+00 0.  1.
<mgrwt>
<rscale>  0 0.29364879E+04</rscale>
<asrwt>0</asrwt>
<pdfrwt beam="1">  1        2 0.57385773E+00 0.29364879E+04</pdfrwt>
<pdfrwt beam="2">  1       -2 0.88913044E-01 0.29364879E+04</pdfrwt>
<totfact> 0.51827819E-01</totfact>
</mgrwt>
</event>
<event>
 6    1  0.1773638E-005  0.1690386E+04  0.7818608E-02  0.8766867E-01
         -2   -1    0    0    0  501 -0.00000000000E+00  0.00000000000E+00  0.80321096172E+03  0.80321096172E+03  0.00000000000E+00 0.  1.
          2   -1    0    0  501    0  0.00000000000E+00 -0.00000000000E+00 -0.88936945338E+03  0.88936945338E+03  0.00000000000E+00 0. -1.
         23    2    1    2    0    0 -0.61553186784E+03 -0.16675368702E+03  0.50841517103E+03  0.82068356751E+03  0.91374281850E+02 0.  0.
         13    1    3    3    0    0 -0.50578695390E+03 -0.17139170294E+03  0.43171511352E+03  0.68671209238E+03  0.00000000000E+00 0.  1.
        -13    1    3    3    0    0 -0.10974491394E+03  0.46380159227E+01  0.76700057514E+02  0.13397147513E+03  0.00000000000E+00 0. -1.
         22    1    1    2    0    0  0.61553186784E+03  0.16675368702E+03 -0.59457366270E+03  0.87189684759E+03  0.00000000000E+00 0.  1.
<mgrwt>
<rscale>  0 0.16903861E+04</rscale>
<asrwt>0</asrwt>
<pdfrwt beam="1">  1        2 0.13682607E+00 0.16903861E+04</pdfrwt>
<pdfrwt beam="2">  1       -2 0.12357092E+00 0.16903861E+04</pdfrwt>
<totfact> 0.14010557E+01</totfact>
</mgrwt>
</event>
<event>
 6    1  0.1863789E-005  0.2640540E+04  0.7818608E-02  0.8354560E-01
          2   -1    0    0  501    0  0.00000000000E+00  0.00000000000E+00  0.14778643048E+04  0.14778643048E+04  0.00000000000E+00 0. -1.
         -2   -1    0    0    0  501 -0.00000000000E+00 -0.00000000000E+00 -0.11794810810E+04  0.11794810810E+04  0.00000000000E+00 0.  1.
         23    2    1    2    0    0 -0.35269512615E+03  0.49073354981E+03  0.13289072542E+04  0.14626935343E+04  0.90909934130E+02 0.  0.
         11    1    3    3    0    0 -0.21895892058E+03  0.22842961109E+03  0.66637018753E+03  0.73768036638E+03  0.00000000000E+00 0.  1.
        -11    1    3    3    0    0 -0.13373620558E+03  0.26230393873E+03  0.66253706666E+03  0.72501316792E+03  0.00000000000E+00 0. -1.
         22    1    1    2    0    0  0.35269512615E+03 -0.49073354981E+03 -0.10305240305E+04  0.11946518515E+04  0.00000000000E+00 0.  1.
<mgrwt>
<rscale>  0 0.26405401E+04</rscale>
<asrwt>0</asrwt>
<pdfrwt beam="1">  1        2 0.22736374E+00 0.26405401E+04</pdfrwt>
<pdfrwt beam="2">  1       -2 0.18145863E+00 0.26405401E+04</pdfrwt>
<totfact> 0.20410488E+00</totfact>
</mgrwt>
</event>
<event>
 6    1  0.1773638E-005  0.2276126E+04  0.7818608E-02  0.8487394E-01
          2   -1    0    0  501    0  0.00000000000E+00  0.00000000000E+00  0.16497247479E+04  0.16497247479E+04  0.00000000000E+00 0. -1.
         -2   -1    0    0    0  501 -0.00000000000E+00 -0.00000000000E+00 -0.78509315628E+03  0.78509315628E+03  0.00000000000E+00 0.  1.
         23    2    1    2    0    0 -0.66015977842E+03 -0.26068183250E+03  0.13821543455E+04  0.15564126722E+04  0.91125301585E+02 0.  0.
         11    1    3    3    0    0 -0.23403739196E+03 -0.11324903083E+03  0.59360784592E+03  0.64805024385E+03  0.00000000000E+00 0. -1.
        -11    1    3    3    0    0 -0.42612238646E+03 -0.14743280167E+03  0.78854649960E+03  0.90836242838E+03  0.00000000000E+00 0.  1.
         22    1    1    2    0    0  0.66015977842E+03  0.26068183250E+03 -0.51752275386E+03  0.87840523200E+03  0.00000000000E+00 0.  1.
<mgrwt>
<rscale>  0 0.22761262E+04</rscale>
<asrwt>0</asrwt>
<pdfrwt beam="1">  1        2 0.25380381E+00 0.22761262E+04</pdfrwt>
<pdfrwt beam="2">  1       -2 0.12078356E+00 0.22761262E+04</pdfrwt>
<totfact> 0.49652020E+00</totfact>
</mgrwt>
</event>
<event>
 6    1  0.1773638E-005  0.4049762E+03  0.7818608E-02  0.1042070E+00
          2   -1    0    0  501    0  0.00000000000E+00  0.00000000000E+00  0.17917254351E+03  0.17917254351E+03  0.00000000000E+00 0. -1.
         -2   -1    0    0    0  501 -0.00000000000E+00 -0.00000000000E+00 -0.22883763279E+03  0.22883763279E+03  0.00000000000E+00 0.  1.
         23    2    1    2    0    0 -0.16492030432E+03 -0.85772053066E+02  0.19928888667E+02  0.20951868119E+03  0.94579941318E+02 0.  0.
         13    1    3    3    0    0 -0.75023619781E+02 -0.91074847707E+02  0.39748438044E+01  0.11806341852E+03  0.00000000000E+00 0. -1.
        -13    1    3    3    0    0 -0.89896684540E+02  0.53027946407E+01  0.15954044863E+02  0.91455262668E+02  0.00000000000E+00 0.  1.
         22    1    1    2    0    0  0.16492030432E+03  0.85772053066E+02 -0.69593977953E+02  0.19849149511E+03  0.00000000000E+00 0. -1.
<mgrwt>
<rscale>  0 0.40497615E+03</rscale>
<asrwt>0</asrwt>
<pdfrwt beam="1">  1        2 0.27565007E-01 0.40497615E+03</pdfrwt>
<pdfrwt beam="2">  1       -2 0.35205790E-01 0.40497615E+03</pdfrwt>
<totfact> 0.14747359E+03</totfact>
</mgrwt>
</event>
<event>
 6    1  0.1773638E-005  0.2057691E+04  0.7818608E-02  0.8580113E-01
          1   -1    0    0  501    0  0.00000000000E+00  0.00000000000E+00  0.11047458487E+04  0.11047458487E+04  0.00000000000E+00 0. -1.
         -1   -1    0    0    0  501 -0.00000000000E+00 -0.00000000000E+00 -0.95815941847E+03  0.95815941847E+03  0.00000000000E+00 0.  1.
         23    2    1    2    0    0  0.69153565172E+03 -0.66198906268E+03 -0.29912068401E+03  0.10069195152E+04  0.89233680865E+02 0.  0.
         13    1    3    3    0    0  0.47811837594E+03 -0.45272505760E+03 -0.16207878424E+03  0.67810522155E+03  0.00000000000E+00 0.  1.
        -13    1    3    3    0    0  0.21341727578E+03 -0.20926400508E+03 -0.13704189977E+03  0.32881429366E+03  0.00000000000E+00 0. -1.
         22    1    1    2    0    0 -0.69153565172E+03  0.66198906268E+03  0.44570711426E+03  0.10559857520E+04  0.00000000000E+00 0.  1.
<mgrwt>
<rscale>  0 0.20576906E+04</rscale>
<asrwt>0</asrwt>
<pdfrwt beam="1">  1        1 0.16996090E+00 0.20576906E+04</pdfrwt>
<pdfrwt beam="2">  1       -1 0.14740914E+00 0.20576906E+04</pdfrwt>
<totfact> 0.42443868E+00</totfact>
</mgrwt>
</event>
<event>
 6    1  0.1773638E-005  0.2418192E+04  0.7818608E-02  0.8432724E-01
         -2   -1    0    0    0  501 -0.00000000000E+00  0.00000000000E+00  0.53072023907E+03  0.53072023907E+03  0.00000000000E+00 0.  1.
          2   -1    0    0  501    0  0.00000000000E+00 -0.00000000000E+00 -0.27545829598E+04  0.27545829598E+04  0.00000000000E+00 0. -1.
         23    2    1    2    0    0  0.65429769242E+03  0.20174238354E+03  0.23813839416E+03  0.72986684682E+03  0.84795398932E+02 0.  0.
         13    1    3    3    0    0  0.21304300605E+03  0.10272029726E+03  0.61625429278E+02  0.24441046506E+03  0.00000000000E+00 0. -1.
        -13    1    3    3    0    0  0.44125468637E+03  0.99022086277E+02  0.17651296489E+03  0.48545638176E+03  0.00000000000E+00 0.  1.
         22    1    1    2    0    0 -0.65429769242E+03 -0.20174238354E+03 -0.24620011149E+04  0.25554363521E+04  0.00000000000E+00 0. -1.
<mgrwt>
<rscale>  0 0.24181918E+04</rscale>
<asrwt>0</asrwt>
<pdfrwt beam="1">  1        2 0.42378199E+00 0.24181918E+04</pdfrwt>
<pdfrwt beam="2">  1       -2 0.81649269E-01 0.24181918E+04</pdfrwt>
<totfact> 0.29195969E+00</totfact>
</mgrwt>
</event>
<event>
 6    1  0.1773638E-005  0.2670637E+04  0.7818608E-02  0.8344596E-01
          1   -1    0    0  501    0  0.00000000000E+00  0.00000000000E+00  0.11920305656E+04  0.11920305656E+04  0.00000000000E+00 0. -1.
         -1   -1    0    0    0  501 -0.00000000000E+00 -0.00000000000E+00 -0.14958300373E+04  0.14958300373E+04  0.00000000000E+00 0.  1.
         23    2    1    2    0    0  0.70853412323E+03  0.20164809235E+03  0.96611750686E+03  0.12197421848E+04  0.10819151279E+03 0.  0.
         11    1    3    3    0    0  0.22124677111E+03  0.23611567922E+02  0.23924897783E+03  0.32672268556E+03  0.00000000000E+00 0. -1.
        -11    1    3    3    0    0  0.48728735212E+03  0.17803652443E+03  0.72686852903E+03  0.89301949926E+03  0.00000000000E+00 0.  1.
         22    1    1    2    0    0 -0.70853412323E+03 -0.20164809235E+03 -0.12699169786E+04  0.14681184180E+04  0.00000000000E+00 0.  1.
<mgrwt>
<rscale>  0 0.26706367E+04</rscale>
<asrwt>0</asrwt>
<pdfrwt beam="1">  1        1 0.18338932E+00 0.26706367E+04</pdfrwt>
<pdfrwt beam="2">  1       -1 0.23012770E+00 0.26706367E+04</pdfrwt>
<totfact> 0.89313064E-01</totfact>
</mgrwt>
</event>
<event>
 6    1  0.1773638E-005  0.2807997E+04  0.7818608E-02  0.8300790E-01
          1   -1    0    0  501    0  0.00000000000E+00  0.00000000000E+00  0.20392656533E+04  0.20392656533E+04  0.00000000000E+00 0. -1.
         -1   -1    0    0    0  501 -0.00000000000E+00 -0.00000000000E+00 -0.96662842761E+03  0.96662842761E+03  0.00000000000E+00 0.  1.
         23    2    1    2    0    0 -0.13957161287E+04 -0.11744661228E+03  0.45708419871E+03  0.14759520076E+04  0.87699176685E+02 0.  0.
         13    1    3    3    0    0 -0.78248646590E+03 -0.37204668142E+02  0.28995813025E+03  0.83531130361E+03  0.00000000000E+00 0. -1.
        -13    1    3    3    0    0 -0.61322966277E+03 -0.80241944140E+02  0.16712606846E+03  0.64064070403E+03  0.00000000000E+00 0.  1.
         22    1    1    2    0    0  0.13957161287E+04  0.11744661228E+03  0.61555302699E+03  0.15299420733E+04  0.00000000000E+00 0.  1.
<mgrwt>
<rscale>  0 0.28079973E+04</rscale>
<asrwt>0</asrwt>
<pdfrwt beam="1">  1        1 0.31373318E+00 0.28079973E+04</pdfrwt>
<pdfrwt beam="2">  1       -1 0.14871207E+00 0.28079973E+04</pdfrwt>
<totfact> 0.86572339E-01</totfact>
</mgrwt>
</event>
<event>
 6    1  0.1773638E-005  0.2975318E+04  0.7818608E-02  0.8250814E-01
         -1   -1    0    0    0  501 -0.00000000000E+00  0.00000000000E+00  0.19406527029E+04  0.19406527029E+04  0.00000000000E+00 0.  1.
          1   -1    0    0  501    0  0.00000000000E+00 -0.00000000000E+00 -0.11404045214E+04  0.11404045214E+04  0.00000000000E+00 0. -1.
         23    2    1    2    0    0 -0.11209706667E+04 -0.55242582970E+03  0.12336084435E+04  0.17583514181E+04  0.90886660235E+02 0.  0.
         13    1    3    3    0    0 -0.11713573723E+03 -0.30497724715E+02  0.10428736088E+03  0.15977091659E+03  0.00000000000E+00 0. -1.
        -13    1    3    3    0    0 -0.10038349294E+04 -0.52192810499E+03  0.11293210826E+04  0.15985805015E+04  0.00000000000E+00 0.  1.
         22    1    1    2    0    0  0.11209706667E+04  0.55242582970E+03 -0.43336026199E+03  0.13227058061E+04  0.00000000000E+00 0. -1.
<mgrwt>
<rscale>  0 0.29753179E+04</rscale>
<asrwt>0</asrwt>
<pdfrwt beam="1">  1        1 0.17544685E+00 0.29753179E+04</pdfrwt>
<pdfrwt beam="2">  1       -1 0.29856195E+00 0.29753179E+04</pdfrwt>
<totfact> 0.34024767E-01</totfact>
</mgrwt>
</event>
<event>
 6    1  0.1773638E-005  0.3925694E+04  0.7818608E-02  0.8019706E-01
          2   -1    0    0  501    0  0.00000000000E+00  0.00000000000E+00  0.28477611103E+04  0.28477611103E+04  0.00000000000E+00 0. -1.
         -2   -1    0    0    0  501 -0.00000000000E+00 -0.00000000000E+00 -0.13529112874E+04  0.13529112874E+04  0.00000000000E+00 0.  1.
         23    2    1    2    0    0  0.80217017303E+03 -0.99920751665E+03 -0.84174779018E+03  0.15357932160E+04  0.90712800017E+02 0.  0.
         11    1    3    3    0    0  0.57583013303E+03 -0.69148339104E+03 -0.63589552858E+03  0.11018587684E+04  0.00000000000E+00 0. -1.
        -11    1    3    3    0    0  0.22634004000E+03 -0.30772412561E+03 -0.20585226160E+03  0.43393444758E+03  0.00000000000E+00 0.  1.
         22    1    1    2    0    0 -0.80217017303E+03  0.99920751665E+03  0.23365976131E+04  0.26648791817E+04  0.00000000000E+00 0. -1.
<mgrwt>
<rscale>  0 0.39256939E+04</rscale>
<asrwt>0</asrwt>
<pdfrwt beam="1">  1        2 0.43811709E+00 0.39256939E+04</pdfrwt>
<pdfrwt beam="2">  1       -2 0.20814020E+00 0.39256939E+04</pdfrwt>
<totfact> 0.20198163E-01</totfact>
</mgrwt>
</event>
<event>
 6    1  0.1773638E-005  0.1510255E+04  0.7818608E-02  0.8877662E-01
          1   -1    0    0  501    0  0.00000000000E+00  0.00000000000E+00  0.93645697007E+03  0.93645697007E+03  0.00000000000E+00 0. -1.
         -1   -1    0    0    0  501 -0.00000000000E+00 -0.00000000000E+00 -0.60890950001E+03  0.60890950001E+03  0.00000000000E+00 0.  1.
         23    2    1    2    0    0 -0.39925706079E+03  0.32300842882E+03  0.72699228521E+03  0.89475383108E+03  0.91246861794E+02 0.  0.
         11    1    3    3    0    0 -0.25664671737E+03  0.25568145184E+03  0.47315829368E+03  0.59591888142E+03  0.00000000000E+00 0. -1.
        -11    1    3    3    0    0 -0.14261034342E+03  0.67326976978E+02  0.25383399153E+03  0.29883494966E+03  0.00000000000E+00 0.  1.
         22    1    1    2    0    0  0.39925706079E+03 -0.32300842882E+03 -0.39944481515E+03  0.65061263900E+03  0.00000000000E+00 0.  1.
<mgrwt>
<rscale>  0 0.15102550E+04</rscale>
<asrwt>0</asrwt>
<pdfrwt beam="1">  1        1 0.14407030E+00 0.15102550E+04</pdfrwt>
<pdfrwt beam="2">  1       -1 0.93678385E-01 0.15102550E+04</pdfrwt>
<totfact> 0.18156223E+01</totfact>
</mgrwt>
</event>
<event>
 6    1  0.1773638E-005  0.1109522E+04  0.7818608E-02  0.9195960E-01
          1   -1    0    0  501    0  0.00000000000E+00  0.00000000000E+00  0.12349529884E+03  0.12349529884E+03  0.00000000000E+00 0. -1.
         -1   -1    0    0    0  501 -0.00000000000E+00 -0.00000000000E+00 -0.24920768626E+04  0.24920768626E+04  0.00000000000E+00 0.  1.
         23    2    1    2    0    0  0.23853536083E+03  0.71546953523E+02 -0.23508832758E+04  0.23659097608E+04  0.94120851931E+02 0.  0.
         11    1    3    3    0    0  0.46905222844E+02  0.11324087449E+02 -0.88671595716E+03  0.88802788445E+03  0.00000000000E+00 0. -1.
        -11    1    3    3    0    0  0.19163013798E+03  0.60222866074E+02 -0.14641673187E+04  0.14778818763E+04  0.00000000000E+00 0.  1.
         22    1    1    2    0    0 -0.23853536083E+03 -0.71546953523E+02 -0.17698287989E+02  0.24966240069E+03  0.00000000000E+00 0. -1.
<mgrwt>
<rscale>  0 0.11095220E+04</rscale>
<asrwt>0</asrwt>
<pdfrwt beam="1">  1        1 0.18999277E-01 0.11095220E+04</pdfrwt>
<pdfrwt beam="2">  1       -1 0.38339644E+00 0.11095220E+04</pdfrwt>
<totfact> 0.26437739E+00</totfact>
</mgrwt>
</event>
<event>
 6    1  0.1773638E-005  0.4232128E+04  0.7818608E-02  0.7959289E-01
         -1   -1    0    0    0  501 -0.00000000000E+00  0.00000000000E+00  0.15794347779E+04  0.15794347779E+04  0.00000000000E+00 0.  1.
          1   -1    0    0  501    0  0.00000000000E+00 -0.00000000000E+00 -0.28350184174E+04  0.28350184174E+04  0.00000000000E+00 0. -1.
         23    2    1    2    0    0  0.21118396836E+04 -0.85997644025E+02 -0.54363431020E+03  0.21841764655E+04  0.88465390381E+02 0.  0.
         11    1    3    3    0    0  0.43391934387E+03  0.15983540491E+02 -0.99189495394E+02  0.44539872760E+03  0.00000000000E+00 0.  1.
        -11    1    3    3    0    0  0.16779203397E+04 -0.10198118452E+03 -0.44444481481E+03  0.17387777379E+04  0.00000000000E+00 0. -1.
         22    1    1    2    0    0 -0.21118396836E+04  0.85997644025E+02 -0.71194932925E+03  0.22302767298E+04  0.00000000000E+00 0. -1.
<mgrwt>
<rscale>  0 0.42321279E+04</rscale>
<asrwt>0</asrwt>
<pdfrwt beam="1">  1        1 0.43615667E+00 0.42321279E+04</pdfrwt>
<pdfrwt beam="2">  1       -1 0.24298997E+00 0.42321279E+04</pdfrwt>
<totfact> 0.46809235E-02</totfact>
</mgrwt>
</event>
<event>
 6    1  0.1773638E-005  0.1986862E+04  0.7818608E-02  0.8612788E-01
         -2   -1    0    0    0  501 -0.00000000000E+00  0.00000000000E+00  0.30721369715E+03  0.30721369715E+03  0.00000000000E+00 0.  1.
          2   -1    0    0  501    0  0.00000000000E+00 -0.00000000000E+00 -0.32124374569E+04  0.32124374569E+04  0.00000000000E+00 0. -1.
         23    2    1    2    0    0  0.17854519804E+03 -0.72263045989E+03 -0.26154733937E+04  0.27208843271E+04  0.91854661363E+02 0.  0.
         13    1    3    3    0    0  0.12478541268E+03 -0.49046979990E+03 -0.16160602453E+04  0.16934529046E+04  0.00000000000E+00 0. -1.
        -13    1    3    3    0    0  0.53759785353E+02 -0.23216066000E+03 -0.99941314843E+03  0.10274314224E+04  0.00000000000E+00 0.  1.
         22    1    1    2    0    0 -0.17854519804E+03  0.72263045989E+03 -0.28975036609E+03  0.79876682703E+03  0.00000000000E+00 0.  1.
<mgrwt>
<rscale>  0 0.19868616E+04</rscale>
<asrwt>0</asrwt>
<pdfrwt beam="1">  1        2 0.49422113E+00 0.19868616E+04</pdfrwt>
<pdfrwt beam="2">  1       -2 0.47263647E-01 0.19868616E+04</pdfrwt>
<totfact> 0.50407293E+00</totfact>
</mgrwt>
</event>
<event>
 6    1  0.1773638E-005  0.3324786E+04  0.7818608E-02  0.8156617E-01
         -2   -1    0    0    0  501 -0.00000000000E+00  0.00000000000E+00  0.13261512794E+04  0.13261512794E+04  0.00000000000E+00 0.  1.
          2   -1    0    0  501    0  0.00000000000E+00 -0.00000000000E+00 -0.20838879750E+04  0.20838879750E+04  0.00000000000E+00 0. -1.
         23    2    1    2    0    0  0.12648400660E+03 -0.16561918293E+04 -0.35873670888E+03  0.17017738860E+04  0.91502749260E+02 0.  0.
         13    1    3    3    0    0  0.11255858426E+03 -0.87448538841E+03 -0.18850939198E+03  0.90162626421E+03  0.00000000000E+00 0.  1.
        -13    1    3    3    0    0  0.13925422341E+02 -0.78170644092E+03 -0.17022731690E+03  0.80014762175E+03  0.00000000000E+00 0. -1.
         22    1    1    2    0    0 -0.12648400660E+03  0.16561918293E+04 -0.39899998674E+03  0.17082653684E+04  0.00000000000E+00 0. -1.
<mgrwt>
<rscale>  0 0.33247861E+04</rscale>
<asrwt>0</asrwt>
<pdfrwt beam="1">  1        2 0.32059815E+00 0.33247861E+04</pdfrwt>
<pdfrwt beam="2">  1       -2 0.20402327E+00 0.33247861E+04</pdfrwt>
<totfact> 0.62596421E-01</totfact>
</mgrwt>
</event>
<event>
 6    1  0.2912628E-005  0.3879656E+04  0.7818608E-02  0.8029274E-01
          1   -1    0    0  501    0  0.00000000000E+00  0.00000000000E+00  0.18522571435E+04  0.18522571435E+04  0.00000000000E+00 0. -1.
         -1   -1    0    0    0  501 -0.00000000000E+00 -0.00000000000E+00 -0.20315389505E+04  0.20315389505E+04  0.00000000000E+00 0.  1.
         23    2    1    2    0    0 -0.65870643991E+03  0.17942563654E+04  0.23692101948E+03  0.19276583505E+04  0.80529919725E+02 0.  0.
         13    1    3    3    0    0 -0.45250336817E+03  0.12246027801E+04  0.12409021747E+03  0.13114151323E+04  0.00000000000E+00 0. -1.
        -13    1    3    3    0    0 -0.20620307174E+03  0.56965358530E+03  0.11283080202E+03  0.61624321815E+03  0.00000000000E+00 0.  1.
         22    1    1    2    0    0  0.65870643991E+03 -0.17942563654E+04 -0.41620282647E+03  0.19561377435E+04  0.00000000000E+00 0. -1.
<mgrwt>
<rscale>  0 0.38796559E+04</rscale>
<asrwt>0</asrwt>
<pdfrwt beam="1">  1        1 0.28496264E+00 0.38796559E+04</pdfrwt>
<pdfrwt beam="2">  1       -1 0.31254445E+00 0.38796559E+04</pdfrwt>
<totfact> 0.81213848E-02</totfact>
</mgrwt>
</event>
<event>
 6    1  0.2303514E-005  0.2910570E+04  0.7818608E-02  0.8269740E-01
          1   -1    0    0  501    0  0.00000000000E+00  0.00000000000E+00  0.24744536143E+04  0.24744536143E+04  0.00000000000E+00 0. -1.
         -1   -1    0    0    0  501 -0.00000000000E+00 -0.00000000000E+00 -0.85588766743E+03  0.85588766743E+03  0.00000000000E+00 0.  1.
         23    2    1    2    0    0  0.24604902615E+03 -0.29688733123E+02  0.24493318012E+04  0.24633963880E+04  0.87601073410E+02 0.  0.
         13    1    3    3    0    0  0.12516401626E+03  0.19526055434E+02  0.14614171816E+04  0.14668972276E+04  0.00000000000E+00 0. -1.
        -13    1    3    3    0    0  0.12088500989E+03 -0.49214788556E+02  0.98791461963E+03  0.99649916042E+03  0.00000000000E+00 0.  1.
         22    1    1    2    0    0 -0.24604902615E+03  0.29688733123E+02 -0.83076585428E+03  0.86694489374E+03  0.00000000000E+00 0.  1.
<mgrwt>
<rscale>  0 0.29105699E+04</rscale>
<asrwt>0</asrwt>
<pdfrwt beam="1">  1        1 0.38068517E+00 0.29105699E+04</pdfrwt>
<pdfrwt beam="2">  1       -1 0.13167503E+00 0.29105699E+04</pdfrwt>
<totfact> 0.59389786E-01</totfact>
</mgrwt>
</event>
<event>
 6    1  0.1773638E-005  0.2101663E+04  0.7818608E-02  0.8560511E-01
          1   -1    0    0  501    0  0.00000000000E+00  0.00000000000E+00  0.86070037118E+03  0.86070037118E+03  0.00000000000E+00 0. -1.
         -1   -1    0    0    0  501 -0.00000000000E+00 -0.00000000000E+00 -0.12829633280E+04  0.12829633280E+04  0.00000000000E+00 0.  1.
         23    2    1    2    0    0 -0.45995417875E+03 -0.34160019231E+03 -0.11076099997E+04  0.12503837279E+04  0.91711600727E+02 0.  0.
         11    1    3    3    0    0 -0.38546687482E+03 -0.24042110438E+03 -0.85120600350E+03  0.96485163596E+03  0.00000000000E+00 0.  1.
        -11    1    3    3    0    0 -0.74487303926E+02 -0.10117908792E+03 -0.25640399615E+03  0.28553209193E+03  0.00000000000E+00 0. -1.
         22    1    1    2    0    0  0.45995417875E+03  0.34160019231E+03  0.68534704286E+03  0.89327997128E+03  0.00000000000E+00 0. -1.
<mgrwt>
<rscale>  0 0.21016632E+04</rscale>
<asrwt>0</asrwt>
<pdfrwt beam="1">  1        1 0.13241544E+00 0.21016632E+04</pdfrwt>
<pdfrwt beam="2">  1       -1 0.19737897E+00 0.21016632E+04</pdfrwt>
<totfact> 0.28304192E+00</totfact>
</mgrwt>
</event>
<event>
 6    1  0.1773638E-005  0.2598662E+04  0.7818608E-02  0.8368656E-01
         -2   -1    0    0    0  501 -0.00000000000E+00  0.00000000000E+00  0.96877712578E+03  0.96877712578E+03  0.00000000000E+00 0.  1.
          2   -1    0    0  501    0  0.00000000000E+00 -0.00000000000E+00 -0.17426724231E+04  0.17426724231E+04  0.00000000000E+00 0. -1.
         23    2    1    2    0    0  0.23757712618E+03 -0.60185704555E+03 -0.15611797084E+04  0.16923854988E+04  0.90618985284E+02 0.  0.
         13    1    3    3    0    0  0.15950357729E+03 -0.48104156414E+03 -0.11482374183E+04  0.12551061893E+04  0.00000000000E+00 0. -1.
        -13    1    3    3    0    0  0.78073548891E+02 -0.12081548141E+03 -0.41294229006E+03  0.43727930949E+03  0.00000000000E+00 0.  1.
         22    1    1    2    0    0 -0.23757712618E+03  0.60185704555E+03  0.78728441109E+03  0.10190640501E+04  0.00000000000E+00 0.  1.
<mgrwt>
<rscale>  0 0.25986621E+04</rscale>
<asrwt>0</asrwt>
<pdfrwt beam="1">  1        2 0.26810345E+00 0.25986621E+04</pdfrwt>
<pdfrwt beam="2">  1       -2 0.14904264E+00 0.25986621E+04</pdfrwt>
<totfact> 0.25036688E+00</totfact>
</mgrwt>
</event>
<event>
 6    1  0.1773638E-005  0.3451906E+04  0.7818608E-02  0.8125283E-01
         -1   -1    0    0    0  501 -0.00000000000E+00  0.00000000000E+00  0.11387945965E+04  0.11387945965E+04  0.00000000000E+00 0.  1.
          1   -1    0    0  501    0  0.00000000000E+00 -0.00000000000E+00 -0.26158479168E+04  0.26158479168E+04  0.00000000000E+00 0. -1.
         23    2    1    2    0    0 -0.60380266760E+03 -0.87065245193E+03 -0.22192707258E+04  0.24610042213E+04  0.93626221590E+02 0.  0.
         13    1    3    3    0    0 -0.48043525935E+03 -0.71948045536E+03 -0.18827282631E+04  0.20719883872E+04  0.00000000000E+00 0.  1.
        -13    1    3    3    0    0 -0.12336740825E+03 -0.15117199656E+03 -0.33654246275E+03  0.38901583412E+03  0.00000000000E+00 0. -1.
         22    1    1    2    0    0  0.60380266760E+03  0.87065245193E+03  0.74221740556E+03  0.12936382920E+04  0.00000000000E+00 0.  1.
<mgrwt>
<rscale>  0 0.34519058E+04</rscale>
<asrwt>0</asrwt>
<pdfrwt beam="1">  1        1 0.40243814E+00 0.34519058E+04</pdfrwt>
<pdfrwt beam="2">  1       -1 0.17519917E+00 0.34519058E+04</pdfrwt>
<totfact> 0.20762892E-01</totfact>
</mgrwt>
</event>
<event>
 6    1  0.1773638E-005  0.1495627E+04  0.7818608E-02  0.8887366E-01
          2   -1    0    0  501    0  0.00000000000E+00  0.00000000000E+00  0.30385804194E+04  0.30385804194E+04  0.00000000000E+00 0. -1.
         -2   -1    0    0    0  501 -0.00000000000E+00 -0.00000000000E+00 -0.18404154499E+03  0.18404154499E+03  0.00000000000E+00 0.  1.
         23    2    1    2    0    0  0.21059043341E+03 -0.13772332191E+01  0.29724182666E+04  0.29812803423E+04  0.91716412515E+02 0.  0.
         11    1    3    3    0    0  0.31791580286E+02  0.31028968848E+02  0.82142264253E+03  0.82262303587E+03  0.00000000000E+00 0.  1.
        -11    1    3    3    0    0  0.17879885312E+03 -0.32406202067E+02  0.21509956241E+04  0.21586573065E+04  0.00000000000E+00 0. -1.
         22    1    1    2    0    0 -0.21059043341E+03  0.13772332191E+01 -0.11787939225E+03  0.24134162204E+03  0.00000000000E+00 0.  1.
<mgrwt>
<rscale>  0 0.14956270E+04</rscale>
<asrwt>0</asrwt>
<pdfrwt beam="1">  1        2 0.46747388E+00 0.14956270E+04</pdfrwt>
<pdfrwt beam="2">  1       -2 0.28314086E-01 0.14956270E+04</pdfrwt>
<totfact> 0.18314397E+01</totfact>
</mgrwt>
</event>
<event>
 6    1  0.1773638E-005  0.1518478E+04  0.7818608E-02  0.8872257E-01
         -1   -1    0    0    0  501 -0.00000000000E+00  0.00000000000E+00  0.34616896542E+03  0.34616896542E+03  0.00000000000E+00 0.  1.
          1   -1    0    0  501    0  0.00000000000E+00 -0.00000000000E+00 -0.16652095019E+04  0.16652095019E+04  0.00000000000E+00 0. -1.
         23    2    1    2    0    0 -0.74080798009E+03  0.14234341354E+03 -0.75709584969E+03  0.10707191551E+04  0.64709138855E+02 0.  0.
         11    1    3    3    0    0 -0.41125013226E+03  0.10137950290E+03 -0.45733649213E+03  0.62334672690E+03  0.00000000000E+00 0.  1.
        -11    1    3    3    0    0 -0.32955784783E+03  0.40963910645E+02 -0.29975935756E+03  0.44737242817E+03  0.00000000000E+00 0. -1.
         22    1    1    2    0    0  0.74080798009E+03 -0.14234341354E+03 -0.56194468680E+03  0.94065931228E+03  0.00000000000E+00 0.  1.
<mgrwt>
<rscale>  0 0.15184780E+04</rscale>
<asrwt>0</asrwt>
<pdfrwt beam="1">  1        1 0.25618607E+00 0.15184780E+04</pdfrwt>
<pdfrwt beam="2">  1       -1 0.53256765E-01 0.15184780E+04</pdfrwt>
<totfact> 0.17292494E+01</totfact>
</mgrwt>
</event>
<event>
 6    1  0.1773638E-005  0.1672314E+04  0.7818608E-02  0.8777314E-01
         -2   -1    0    0    0  501 -0.00000000000E+00  0.00000000000E+00  0.10652059636E+04  0.10652059636E+04  0.00000000000E+00 0.  1.
          2   -1    0    0  501    0  0.00000000000E+00 -0.00000000000E+00 -0.65635978707E+03  0.65635978707E+03  0.00000000000E+00 0. -1.
         23    2    1    2    0    0  0.53580953080E+03  0.60111220335E+03 -0.17187952657E+02  0.81055926687E+03  0.91011895335E+02 0.  0.
         13    1    3    3    0    0  0.43514294614E+03  0.43977496429E+03 -0.34333200810E+02  0.61962099018E+03  0.00000000000E+00 0.  1.
        -13    1    3    3    0    0  0.10066658465E+03  0.16133723906E+03  0.17145248153E+02  0.19093827669E+03  0.00000000000E+00 0. -1.
         22    1    1    2    0    0 -0.53580953080E+03 -0.60111220335E+03  0.42603412919E+03  0.91100648381E+03  0.00000000000E+00 0.  1.
<mgrwt>
<rscale>  0 0.16723138E+04</rscale>
<asrwt>0</asrwt>
<pdfrwt beam="1">  1        2 0.10097843E+00 0.16723138E+04</pdfrwt>
<pdfrwt beam="2">  1       -2 0.16387784E+00 0.16723138E+04</pdfrwt>
<totfact> 0.99858776E+00</totfact>
</mgrwt>
</event>
<event>
 6    1  0.1773638E-005  0.1586766E+04  0.7818608E-02  0.8828719E-01
          1   -1    0    0  501    0  0.00000000000E+00  0.00000000000E+00  0.11888411405E+04  0.11888411405E+04  0.00000000000E+00 0. -1.
         -1   -1    0    0    0  501 -0.00000000000E+00 -0.00000000000E+00 -0.52947088343E+03  0.52947088343E+03  0.00000000000E+00 0.  1.
         23    2    1    2    0    0 -0.16391660191E+03  0.13396789086E+03  0.11558689323E+04  0.11785648770E+04  0.90366655321E+02 0.  0.
         13    1    3    3    0    0 -0.48827187805E+02  0.77882148152E+02  0.31974834129E+03  0.33269915093E+03  0.00000000000E+00 0.  1.
        -13    1    3    3    0    0 -0.11508941411E+03  0.56085742709E+02  0.83612059099E+03  0.84586572602E+03  0.00000000000E+00 0. -1.
         22    1    1    2    0    0  0.16391660191E+03 -0.13396789086E+03 -0.49649867522E+03  0.53974714697E+03  0.00000000000E+00 0.  1.
<mgrwt>
<rscale>  0 0.15867662E+04</rscale>
<asrwt>0</asrwt>
<pdfrwt beam="1">  1        1 0.18289864E+00 0.15867662E+04</pdfrwt>
<pdfrwt beam="2">  1       -1 0.81457059E-01 0.15867662E+04</pdfrwt>
<totfact> 0.15699696E+01</totfact>
</mgrwt>
</event>
<event>
 6    1  0.1773638E-005  0.6996427E+03  0.7818608E-02  0.9717843E-01
         -2   -1    0    0    0  501 -0.00000000000E+00  0.00000000000E+00  0.35161256640E+03  0.35161256640E+03  0.00000000000E+00 0.  1.
          2   -1    0    0  501    0  0.00000000000E+00 -0.00000000000E+00 -0.34803925426E+03  0.34803925426E+03  0.00000000000E+00 0. -1.
         23    2    1    2    0    0  0.21530552654E+02  0.29679172444E+03  0.17358223902E+03  0.35693921860E+03  0.93412631276E+02 0.  0.
         13    1    3    3    0    0 -0.11922455846E+01  0.87932237677E+02  0.10271285854E+03  0.13521623861E+03  0.00000000000E+00 0.  1.
        -13    1    3    3    0    0  0.22722798239E+02  0.20885948676E+03  0.70869380473E+02  0.22172298000E+03  0.00000000000E+00 0. -1.
         22    1    1    2    0    0 -0.21530552654E+02 -0.29679172444E+03 -0.17000892687E+03  0.34271260206E+03  0.00000000000E+00 0. -1.
<mgrwt>
<rscale>  0 0.69964270E+03</rscale>
<asrwt>0</asrwt>
<pdfrwt beam="1">  1        2 0.53544501E-01 0.69964270E+03</pdfrwt>
<pdfrwt beam="2">  1       -2 0.54094241E-01 0.69964270E+03</pdfrwt>
<totfact> 0.30210255E+02</totfact>
</mgrwt>
</event>
<event>
 6    1  0.1773638E-005  0.2510783E+04  0.7818608E-02  0.8399154E-01
          1   -1    0    0  501    0  0.00000000000E+00  0.00000000000E+00  0.37476934812E+04  0.37476934812E+04  0.00000000000E+00 0. -1.
         -1   -1    0    0    0  501 -0.00000000000E+00 -0.00000000000E+00 -0.42052753307E+03  0.42052753307E+03  0.00000000000E+00 0.  1.
         23    2    1    2    0    0  0.10432989122E+04 -0.50359104777E+03  0.24615301987E+04  0.27220530384E+04  0.91461801528E+02 0.  0.
         13    1    3    3    0    0  0.73705786319E+03 -0.39486177235E+03  0.17222896138E+04  0.19145369223E+04  0.00000000000E+00 0.  1.
        -13    1    3    3    0    0  0.30624104905E+03 -0.10872927543E+03  0.73924058490E+03  0.80751611614E+03  0.00000000000E+00 0. -1.
         22    1    1    2    0    0 -0.10432989122E+04  0.50359104777E+03  0.86563574943E+03  0.14461679758E+04  0.00000000000E+00 0.  1.
<mgrwt>
<rscale>  0 0.25107834E+04</rscale>
<asrwt>0</asrwt>
<pdfrwt beam="1">  1        1 0.57656821E+00 0.25107834E+04</pdfrwt>
<pdfrwt beam="2">  1       -1 0.64696546E-01 0.25107834E+04</pdfrwt>
<totfact> 0.33936968E-01</totfact>
</mgrwt>
</event>
<event>
 6    1  0.1773638E-005  0.4617150E+04  0.7818608E-02  0.7890442E-01
         -2   -1    0    0    0  501 -0.00000000000E+00  0.00000000000E+00  0.13424375510E+04  0.13424375510E+04  0.00000000000E+00 0.  1.
          2   -1    0    0  501    0  0.00000000000E+00 -0.00000000000E+00 -0.39700306020E+04  0.39700306020E+04  0.00000000000E+00 0. -1.
         23    2    1    2    0    0 -0.47838812252E+03  0.17106091260E+04  0.38067476382E+03  0.18189435684E+04  0.92755870420E+02 0.  0.
         11    1    3    3    0    0 -0.23442369049E+03  0.75446147461E+03  0.21040776964E+03  0.81758058493E+03  0.00000000000E+00 0.  1.
        -11    1    3    3    0    0 -0.24396443203E+03  0.95614765139E+03  0.17026699418E+03  0.10013629835E+04  0.00000000000E+00 0. -1.
         22    1    1    2    0    0  0.47838812252E+03 -0.17106091260E+04 -0.30082678148E+04  0.34935245846E+04  0.00000000000E+00 0. -1.
<mgrwt>
<rscale>  0 0.46171498E+04</rscale>
<asrwt>0</asrwt>
<pdfrwt beam="1">  1        2 0.61077395E+00 0.46171498E+04</pdfrwt>
<pdfrwt beam="2">  1       -2 0.20652885E+00 0.46171498E+04</pdfrwt>
<totfact> 0.32597999E-02</totfact>
</mgrwt>
</event>
<event>
 6    1  0.1773638E-005  0.7743345E+03  0.7818608E-02  0.9597928E-01
          1   -1    0    0  501    0  0.00000000000E+00  0.00000000000E+00  0.20039449076E+03  0.20039449076E+03  0.00000000000E+00 0. -1.
         -1   -1    0    0    0  501 -0.00000000000E+00 -0.00000000000E+00 -0.74801704049E+03  0.74801704049E+03  0.00000000000E+00 0.  1.
         23    2    1    2    0    0 -0.15148899637E+03  0.12898566004E+03  0.12091522007E+03  0.25089524745E+03  0.93497156282E+02 0.  0.
         11    1    3    3    0    0 -0.47436828014E+02  0.75933326832E+02  0.96380527204E+02  0.13154971988E+03  0.00000000000E+00 0. -1.
        -11    1    3    3    0    0 -0.10405216835E+03  0.53052333209E+02  0.24534692866E+02  0.11934552757E+03  0.00000000000E+00 0.  1.
         22    1    1    2    0    0  0.15148899637E+03 -0.12898566004E+03 -0.66853776980E+03  0.69751628380E+03  0.00000000000E+00 0.  1.
<mgrwt>
<rscale>  0 0.77433454E+03</rscale>
<asrwt>0</asrwt>
<pdfrwt beam="1">  1        1 0.30829922E-01 0.77433454E+03</pdfrwt>
<pdfrwt beam="2">  1       -1 0.11507954E+00 0.77433454E+03</pdfrwt>
<totfact> 0.10310964E+02</totfact>
</mgrwt>
</event>
<event>
 6    1  0.1773638E-005  0.4177172E+04  0.7818608E-02  0.7969729E-01
         -2   -1    0    0    0  501 -0.00000000000E+00  0.00000000000E+00  0.17742785044E+04  0.17742785044E+04  0.00000000000E+00 0.  1.
          2   -1    0    0  501    0  0.00000000000E+00 -0.00000000000E+00 -0.24585723464E+04  0.24585723464E+04  0.00000000000E+00 0. -1.
         23    2    1    2    0    0  0.20420353462E+03  0.20761156147E+04 -0.26238924002E+03  0.21044809059E+04  0.89647314277E+02 0.  0.
         13    1    3    3    0    0  0.75138329449E+02  0.11460590058E+04 -0.16883212852E+03  0.11608623092E+04  0.00000000000E+00 0. -1.
        -13    1    3    3    0    0  0.12906520517E+03  0.93005660889E+03 -0.93557111501E+02  0.94361859670E+03  0.00000000000E+00 0.  1.
         22    1    1    2    0    0 -0.20420353462E+03 -0.20761156147E+04 -0.42190460201E+03  0.21283699449E+04  0.00000000000E+00 0. -1.
<mgrwt>
<rscale>  0 0.41771723E+04</rscale>
<asrwt>0</asrwt>
<pdfrwt beam="1">  1        2 0.37824190E+00 0.41771723E+04</pdfrwt>
<pdfrwt beam="2">  1       -2 0.27296593E+00 0.41771723E+04</pdfrwt>
<totfact> 0.13299848E-01</totfact>
</mgrwt>
</event>
<event>
 6    1  0.1773638E-005  0.3555364E+04  0.7818608E-02  0.8100793E-01
          1   -1    0    0  501    0  0.00000000000E+00  0.00000000000E+00  0.17532541434E+04  0.17532541434E+04  0.00000000000E+00 0.  1.
         -1   -1    0    0    0  501 -0.00000000000E+00 -0.00000000000E+00 -0.18024497232E+04  0.18024497232E+04  0.00000000000E+00 0. -1.
         23    2    1    2    0    0  0.95490432657E+02 -0.13647810711E+04 -0.11580056298E+04  0.17946798685E+04  0.90293946694E+02 0.  0.
         13    1    3    3    0    0  0.42799859210E+02 -0.10913558661E+04 -0.94089363506E+03  0.14415860318E+04  0.00000000000E+00 0. -1.
        -13    1    3    3    0    0  0.52690573447E+02 -0.27342520503E+03 -0.21711199469E+03  0.35309383670E+03  0.00000000000E+00 0.  1.
         22    1    1    2    0    0 -0.95490432657E+02  0.13647810711E+04  0.11088100500E+04  0.17610239981E+04  0.00000000000E+00 0.  1.
<mgrwt>
<rscale>  0 0.35553635E+04</rscale>
<asrwt>0</asrwt>
<pdfrwt beam="1">  1        1 0.26973141E+00 0.35553635E+04</pdfrwt>
<pdfrwt beam="2">  1       -1 0.27729996E+00 0.35553635E+04</pdfrwt>
<totfact> 0.16494484E-01</totfact>
</mgrwt>
</event>
<event>
 6    1  0.1773638E-005  0.5864630E+03  0.7818608E-02  0.9933896E-01
         -3   -1    0    0    0  501 -0.00000000000E+00  0.00000000000E+00  0.80324441558E+02  0.80324441558E+02  0.00000000000E+00 0.  1.
          3   -1    0    0  501    0  0.00000000000E+00 -0.00000000000E+00 -0.10704676754E+04  0.10704676754E+04  0.00000000000E+00 0. -1.
         23    2    1    2    0    0  0.11216751185E+02  0.15803340274E+03 -0.97456665829E+03  0.99159726278E+03  0.91567397155E+02 0.  0.
         11    1    3    3    0    0  0.22596076256E+02  0.87716969687E+02 -0.30261905467E+03  0.31588469681E+03  0.00000000000E+00 0.  1.
        -11    1    3    3    0    0 -0.11379325071E+02  0.70316433052E+02 -0.67194760362E+03  0.67571256597E+03  0.00000000000E+00 0. -1.
         22    1    1    2    0    0 -0.11216751185E+02 -0.15803340274E+03 -0.15576575546E+02  0.15919485417E+03  0.00000000000E+00 0.  1.
<mgrwt>
<rscale>  0 0.58646302E+03</rscale>
<asrwt>0</asrwt>
<pdfrwt beam="1">  1        3 0.16468734E+00 0.58646302E+03</pdfrwt>
<pdfrwt beam="2">  1       -3 0.12357606E-01 0.58646302E+03</pdfrwt>
<totfact> 0.35906366E+01</totfact>
</mgrwt>
</event>
<event>
 6    1  0.1773638E-005  0.3359208E+04  0.7818608E-02  0.8147991E-01
          2   -1    0    0  501    0  0.00000000000E+00  0.00000000000E+00  0.16733689716E+04  0.16733689716E+04  0.00000000000E+00 0. -1.
         -2   -1    0    0    0  501 -0.00000000000E+00 -0.00000000000E+00 -0.16858626591E+04  0.16858626591E+04  0.00000000000E+00 0.  1.
         23    2    1    2    0    0  0.13836087701E+04 -0.20002272557E+03  0.92291445798E+03  0.16771582917E+04  0.81893340009E+02 0.  0.
         11    1    3    3    0    0  0.61239809033E+03 -0.50867477072E+02  0.38574105219E+03  0.72554467858E+03  0.00000000000E+00 0. -1.
        -11    1    3    3    0    0  0.77121067976E+03 -0.14915524850E+03  0.53717340579E+03  0.95161361309E+03  0.00000000000E+00 0.  1.
         22    1    1    2    0    0 -0.13836087701E+04  0.20002272557E+03 -0.93540814548E+03  0.16820733391E+04  0.00000000000E+00 0.  1.
<mgrwt>
<rscale>  0 0.33592084E+04</rscale>
<asrwt>0</asrwt>
<pdfrwt beam="1">  1        2 0.25744138E+00 0.33592084E+04</pdfrwt>
<pdfrwt beam="2">  1       -2 0.25936348E+00 0.33592084E+04</pdfrwt>
<totfact> 0.47484841E-01</totfact>
</mgrwt>
</event>
<event>
 6    1  0.1773638E-005  0.4347452E+04  0.7818608E-02  0.7937902E-01
          2   -1    0    0  501    0  0.00000000000E+00  0.00000000000E+00  0.30044559256E+04  0.30044559256E+04  0.00000000000E+00 0. -1.
         -2   -1    0    0    0  501 -0.00000000000E+00 -0.00000000000E+00 -0.15726924214E+04  0.15726924214E+04  0.00000000000E+00 0.  1.
         23    2    1    2    0    0  0.48323870766E+03  0.52548454377E+03 -0.14443827537E+04  0.16137261781E+04  0.90647583532E+02 0.  0.
         11    1    3    3    0    0  0.95509137215E+02  0.10572288914E+03 -0.37669119121E+03  0.40273512153E+03  0.00000000000E+00 0. -1.
        -11    1    3    3    0    0  0.38772957045E+03  0.41976165463E+03 -0.10676915625E+04  0.12109910566E+04  0.00000000000E+00 0.  1.
         22    1    1    2    0    0 -0.48323870766E+03 -0.52548454377E+03  0.28761462579E+04  0.29634221689E+04  0.00000000000E+00 0. -1.
<mgrwt>
<rscale>  0 0.43474522E+04</rscale>
<asrwt>0</asrwt>
<pdfrwt beam="1">  1        2 0.46222399E+00 0.43474522E+04</pdfrwt>
<pdfrwt beam="2">  1       -2 0.24195268E+00 0.43474522E+04</pdfrwt>
<totfact> 0.95550031E-02</totfact>
</mgrwt>
</event>
<event>
 6    1  0.1773638E-005  0.6112832E+04  0.7818608E-02  0.7676567E-01
         -2   -1    0    0    0  501 -0.00000000000E+00  0.00000000000E+00  0.32780842213E+04  0.32780842213E+04  0.00000000000E+00 0.  1.
          2   -1    0    0  501    0  0.00000000000E+00 -0.00000000000E+00 -0.28497375997E+04  0.28497375997E+04  0.00000000000E+00 0. -1.
         23    2    1    2    0    0  0.77481597491E+03  0.89430623798E+03  0.30384063737E+04  0.32620696769E+04  0.95193713053E+02 0.  0.
         13    1    3    3    0    0  0.36430340582E+03  0.43946241659E+03  0.13396013024E+04  0.14561510349E+04  0.00000000000E+00 0.  1.
        -13    1    3    3    0    0  0.41051256909E+03  0.45484382139E+03  0.16988050713E+04  0.18059186420E+04  0.00000000000E+00 0. -1.
         22    1    1    2    0    0 -0.77481597491E+03 -0.89430623798E+03 -0.26100597520E+04  0.28657521441E+04  0.00000000000E+00 0. -1.
<mgrwt>
<rscale>  0 0.61128324E+04</rscale>
<asrwt>0</asrwt>
<pdfrwt beam="1">  1        2 0.43842117E+00 0.61128324E+04</pdfrwt>
<pdfrwt beam="2">  1       -2 0.50432064E+00 0.61128324E+04</pdfrwt>
<totfact> 0.22606360E-03</totfact>
</mgrwt>
</event>
<event>
 6    1  0.1773638E-005  0.1494719E+04  0.7818608E-02  0.8887972E-01
         -2   -1    0    0    0  501 -0.00000000000E+00  0.00000000000E+00  0.27460651149E+03  0.27460651149E+03  0.00000000000E+00 0.  1.
          2   -1    0    0  501    0  0.00000000000E+00 -0.00000000000E+00 -0.20339887020E+04  0.20339887020E+04  0.00000000000E+00 0. -1.
         23    2    1    2    0    0  0.17636684732E+02  0.69899503581E+03 -0.48952006137E+03  0.85895562387E+03  0.96279595768E+02 0.  0.
         11    1    3    3    0    0  0.20325793709E+02  0.25185772207E+03 -0.12420864124E+03  0.28155503301E+03  0.00000000000E+00 0.  1.
        -11    1    3    3    0    0 -0.26891089770E+01  0.44713731374E+03 -0.36531142013E+03  0.57740059086E+03  0.00000000000E+00 0. -1.
         22    1    1    2    0    0 -0.17636684732E+02 -0.69899503581E+03 -0.12698621291E+04  0.14496395896E+04  0.00000000000E+00 0.  1.
<mgrwt>
<rscale>  0 0.14947194E+04</rscale>
<asrwt>0</asrwt>
<pdfrwt beam="1">  1        2 0.31292134E+00 0.14947194E+04</pdfrwt>
<pdfrwt beam="2">  1       -2 0.42247155E-01 0.14947194E+04</pdfrwt>
<totfact> 0.32847730E+01</totfact>
</mgrwt>
</event>
<event>
 6    1  0.1773638E-005  0.1912111E+04  0.7818608E-02  0.8648851E-01
          2   -1    0    0  501    0  0.00000000000E+00  0.00000000000E+00  0.31106845994E+04  0.31106845994E+04  0.00000000000E+00 0. -1.
         -2   -1    0    0    0  501 -0.00000000000E+00 -0.00000000000E+00 -0.29383950320E+03  0.29383950320E+03  0.00000000000E+00 0.  1.
         23    2    1    2    0    0 -0.43351245994E+03  0.68628572649E+03  0.51969179290E+03  0.96816730397E+03  0.91363108358E+02 0.  0.
         11    1    3    3    0    0 -0.30401451739E+03  0.46108733691E+03  0.40125580267E+03  0.68266578808E+03  0.00000000000E+00 0. -1.
        -11    1    3    3    0    0 -0.12949794256E+03  0.22519838958E+03  0.11843599023E+03  0.28550151589E+03  0.00000000000E+00 0.  1.
         22    1    1    2    0    0  0.43351245994E+03 -0.68628572649E+03  0.22971533034E+04  0.24363567987E+04  0.00000000000E+00 0. -1.
<mgrwt>
<rscale>  0 0.19121109E+04</rscale>
<asrwt>0</asrwt>
<pdfrwt beam="1">  1        2 0.47856684E+00 0.19121109E+04</pdfrwt>
<pdfrwt beam="2">  1       -2 0.45206080E-01 0.19121109E+04</pdfrwt>
<totfact> 0.64553970E+00</totfact>
</mgrwt>
</event>
<event>
 6    1  0.1773638E-005  0.6930860E+03  0.7818608E-02  0.9729130E-01
          1   -1    0    0  501    0  0.00000000000E+00  0.00000000000E+00  0.67887270909E+03  0.67887270909E+03  0.00000000000E+00 0. -1.
         -1   -1    0    0    0  501 -0.00000000000E+00 -0.00000000000E+00 -0.17689922248E+03  0.17689922248E+03  0.00000000000E+00 0.  1.
         23    2    1    2    0    0 -0.19370286214E+03 -0.25976607387E+03  0.38618822274E+03  0.51167101721E+03  0.87559548474E+02 0.  0.
         11    1    3    3    0    0 -0.81669432325E+02 -0.15556406504E+03  0.25757857712E+03  0.31179608384E+03  0.00000000000E+00 0. -1.
        -11    1    3    3    0    0 -0.11203342981E+03 -0.10420200883E+03  0.12860964562E+03  0.19987493336E+03  0.00000000000E+00 0.  1.
         22    1    1    2    0    0  0.19370286214E+03  0.25976607387E+03  0.11578526388E+03  0.34410091436E+03  0.00000000000E+00 0.  1.
<mgrwt>
<rscale>  0 0.69308601E+03</rscale>
<asrwt>0</asrwt>
<pdfrwt beam="1">  1        1 0.10444195E+00 0.69308601E+03</pdfrwt>
<pdfrwt beam="2">  1       -1 0.27215265E-01 0.69308601E+03</pdfrwt>
<totfact> 0.34908960E+02</totfact>
</mgrwt>
</event>
<event>
 6    1  0.1773638E-005  0.2043960E+04  0.7818608E-02  0.8586339E-01
         -1   -1    0    0    0  501 -0.00000000000E+00  0.00000000000E+00  0.59308173918E+03  0.59308173918E+03  0.00000000000E+00 0.  1.
          1   -1    0    0  501    0  0.00000000000E+00 -0.00000000000E+00 -0.17610446058E+04  0.17610446058E+04  0.00000000000E+00 0. -1.
         23    2    1    2    0    0  0.50051246226E+03  0.61194021909E+03 -0.13249562002E+04  0.15481297796E+04  0.12733155709E+03 0.  0.
         11    1    3    3    0    0  0.31563729985E+03  0.42135991618E+03 -0.76806102479E+03  0.93117604234E+03  0.00000000000E+00 0. -1.
        -11    1    3    3    0    0  0.18487516240E+03  0.19058030291E+03 -0.55689517542E+03  0.61695373727E+03  0.00000000000E+00 0.  1.
         22    1    1    2    0    0 -0.50051246226E+03 -0.61194021909E+03  0.15699333358E+03  0.80599656538E+03  0.00000000000E+00 0.  1.
<mgrwt>
<rscale>  0 0.20439603E+04</rscale>
<asrwt>0</asrwt>
<pdfrwt beam="1">  1        1 0.27092994E+00 0.20439603E+04</pdfrwt>
<pdfrwt beam="2">  1       -1 0.91243344E-01 0.20439603E+04</pdfrwt>
<totfact> 0.46888802E+00</totfact>
</mgrwt>
</event>
<event>
 6    1  0.1773638E-005  0.3217196E+04  0.7818608E-02  0.8184291E-01
         -1   -1    0    0    0  501 -0.00000000000E+00  0.00000000000E+00  0.11052578473E+04  0.11052578473E+04  0.00000000000E+00 0.  1.
          1   -1    0    0  501    0  0.00000000000E+00 -0.00000000000E+00 -0.23411614548E+04  0.23411614548E+04  0.00000000000E+00 0. -1.
         23    2    1    2    0    0  0.15651563105E+04 -0.10398130691E+03 -0.24229549476E+03  0.15895985056E+04  0.87120110489E+02 0.  0.
         11    1    3    3    0    0  0.63328424821E+03 -0.39150611178E+02 -0.14124275544E+03  0.65002401906E+03  0.00000000000E+00 0.  1.
        -11    1    3    3    0    0  0.93187206230E+03 -0.64830695733E+02 -0.10105273932E+03  0.93957448652E+03  0.00000000000E+00 0. -1.
         22    1    1    2    0    0 -0.15651563105E+04  0.10398130691E+03 -0.99360811276E+03  0.18568207965E+04  0.00000000000E+00 0.  1.
<mgrwt>
<rscale>  0 0.32171957E+04</rscale>
<asrwt>0</asrwt>
<pdfrwt beam="1">  1        1 0.36017868E+00 0.32171957E+04</pdfrwt>
<pdfrwt beam="2">  1       -1 0.17003967E+00 0.32171957E+04</pdfrwt>
<totfact> 0.35819992E-01</totfact>
</mgrwt>
</event>
<event>
 6    1  0.1773638E-005  0.6125022E+04  0.7818608E-02  0.7675091E-01
          2   -1    0    0  501    0  0.00000000000E+00  0.00000000000E+00  0.21185459807E+04  0.21185459807E+04  0.00000000000E+00 0. -1.
         -2   -1    0    0    0  501 -0.00000000000E+00 -0.00000000000E+00 -0.44270812181E+04  0.44270812181E+04  0.00000000000E+00 0.  1.
         23    2    1    2    0    0 -0.24462382467E+04 -0.18408090515E+04 -0.12022473116E+04  0.32903956404E+04  0.92980368954E+02 0.  0.
         13    1    3    3    0    0 -0.15577993738E+04 -0.12208269421E+04 -0.80020401599E+03  0.21348264048E+04  0.00000000000E+00 0.  1.
        -13    1    3    3    0    0 -0.88843887285E+03 -0.61998210939E+03 -0.40204329559E+03  0.11555692356E+04  0.00000000000E+00 0. -1.
         22    1    1    2    0    0  0.24462382467E+04  0.18408090515E+04 -0.11062879259E+04  0.32552315583E+04  0.00000000000E+00 0.  1.
<mgrwt>
<rscale>  0 0.61250225E+04</rscale>
<asrwt>0</asrwt>
<pdfrwt beam="1">  1        2 0.32593015E+00 0.61250225E+04</pdfrwt>
<pdfrwt beam="2">  1       -2 0.68108942E+00 0.61250225E+04</pdfrwt>
<totfact> 0.10328205E-03</totfact>
</mgrwt>
</event>
<event>
 6    1  0.1773638E-005  0.1335940E+04  0.7818608E-02  0.9001540E-01
          2   -1    0    0  501    0  0.00000000000E+00  0.00000000000E+00  0.66328709215E+03  0.66328709215E+03  0.00000000000E+00 0. -1.
         -2   -1    0    0    0  501 -0.00000000000E+00 -0.00000000000E+00 -0.67268638532E+03  0.67268638532E+03  0.00000000000E+00 0.  1.
         23    2    1    2    0    0 -0.19247643113E+03  0.53111415365E+03 -0.35449597237E+03  0.67399074451E+03  0.97297011841E+02 0.  0.
         13    1    3    3    0    0 -0.13622072769E+03  0.31120462525E+03 -0.16197495896E+03  0.37635128904E+03  0.00000000000E+00 0. -1.
        -13    1    3    3    0    0 -0.56255703436E+02  0.21990952839E+03 -0.19252101341E+03  0.29763945547E+03  0.00000000000E+00 0.  1.
         22    1    1    2    0    0  0.19247643113E+03 -0.53111415365E+03  0.34509667920E+03  0.66198273296E+03  0.00000000000E+00 0. -1.
<mgrwt>
<rscale>  0 0.13359404E+04</rscale>
<asrwt>0</asrwt>
<pdfrwt beam="1">  1        2 0.10204417E+00 0.13359404E+04</pdfrwt>
<pdfrwt beam="2">  1       -2 0.10349021E+00 0.13359404E+04</pdfrwt>
<totfact> 0.32632572E+01</totfact>
</mgrwt>
</event>
<event>
 6    1  0.1773638E-005  0.1321219E+04  0.7818608E-02  0.9012905E-01
         -2   -1    0    0    0  501 -0.00000000000E+00  0.00000000000E+00  0.13214652962E+03  0.13214652962E+03  0.00000000000E+00 0. -1.
          2   -1    0    0  501    0  0.00000000000E+00 -0.00000000000E+00 -0.33024335255E+04  0.33024335255E+04  0.00000000000E+00 0.  1.
         23    2    1    2    0    0  0.48247960660E+03  0.41182281537E+03 -0.11438057351E+04  0.13111368836E+04  0.91672057182E+02 0.  0.
         13    1    3    3    0    0  0.23402213408E+03  0.19441318988E+03 -0.45570097400E+03  0.54792903313E+03  0.00000000000E+00 0. -1.
        -13    1    3    3    0    0  0.24845747252E+03  0.21740962549E+03 -0.68810476106E+03  0.76320785052E+03  0.00000000000E+00 0.  1.
         22    1    1    2    0    0 -0.48247960660E+03 -0.41182281537E+03 -0.20264812609E+04  0.21234431715E+04  0.00000000000E+00 0. -1.
<mgrwt>
<rscale>  0 0.13212193E+04</rscale>
<asrwt>0</asrwt>
<pdfrwt beam="1">  1        2 0.50806666E+00 0.13212193E+04</pdfrwt>
<pdfrwt beam="2">  1       -2 0.20330237E-01 0.13212193E+04</pdfrwt>
<totfact> 0.22921361E+01</totfact>
</mgrwt>
</event>
<event>
 6    1  0.1773638E-005  0.1950927E+04  0.7818608E-02  0.8629914E-01
         -1   -1    0    0    0  501 -0.00000000000E+00  0.00000000000E+00  0.53780825711E+03  0.53780825711E+03  0.00000000000E+00 0.  1.
          1   -1    0    0  501    0  0.00000000000E+00 -0.00000000000E+00 -0.17692724725E+04  0.17692724725E+04  0.00000000000E+00 0. -1.
         23    2    1    2    0    0  0.22229015220E+03 -0.72313210397E+03 -0.13412902713E+04  0.15426235928E+04  0.91076921255E+02 0.  0.
         13    1    3    3    0    0  0.12397854643E+03 -0.25586491421E+03 -0.48478261856E+03  0.56200686967E+03  0.00000000000E+00 0.  1.
        -13    1    3    3    0    0  0.98311605762E+02 -0.46726718976E+03 -0.85650765272E+03  0.98061672310E+03  0.00000000000E+00 0. -1.
         22    1    1    2    0    0 -0.22229015220E+03  0.72313210397E+03  0.10982605586E+03  0.76445713686E+03  0.00000000000E+00 0.  1.
<mgrwt>
<rscale>  0 0.19509273E+04</rscale>
<asrwt>0</asrwt>
<pdfrwt beam="1">  1        1 0.27219577E+00 0.19509273E+04</pdfrwt>
<pdfrwt beam="2">  1       -1 0.82739731E-01 0.19509273E+04</pdfrwt>
<totfact> 0.57789332E+00</totfact>
</mgrwt>
</event>
<event>
 6    1  0.1773638E-005  0.7141287E+03  0.7818608E-02  0.9693371E-01
         -3   -1    0    0    0  501 -0.00000000000E+00  0.00000000000E+00  0.39749441013E+03  0.39749441013E+03  0.00000000000E+00 0.  1.
          3   -1    0    0  501    0  0.00000000000E+00 -0.00000000000E+00 -0.32074651309E+03  0.32074651309E+03  0.00000000000E+00 0. -1.
         23    2    1    2    0    0 -0.35086786660E+03 -0.74443805377E+01  0.28133347909E+02  0.36394295117E+03  0.92191690694E+02 0.  0.
         11    1    3    3    0    0 -0.27192886707E+03 -0.53597135158E+01 -0.17844439742E+02  0.27256643100E+03  0.00000000000E+00 0. -1.
        -11    1    3    3    0    0 -0.78938999522E+02 -0.20846670219E+01  0.45977787651E+02  0.91376520176E+02  0.00000000000E+00 0.  1.
         22    1    1    2    0    0  0.35086786660E+03  0.74443805377E+01  0.48614549138E+02  0.35429797205E+03  0.00000000000E+00 0. -1.
<mgrwt>
<rscale>  0 0.71412869E+03</rscale>
<asrwt>0</asrwt>
<pdfrwt beam="1">  1        3 0.49345617E-01 0.71412869E+03</pdfrwt>
<pdfrwt beam="2">  1       -3 0.61152986E-01 0.71412869E+03</pdfrwt>
<totfact> 0.28014762E+01</totfact>
</mgrwt>
</event>
<event>
 6    1  0.1773638E-005  0.2983502E+03  0.7818608E-02  0.1086068E+00
         -2   -1    0    0    0  501 -0.00000000000E+00  0.00000000000E+00  0.28186805587E+02  0.28186805587E+02  0.00000000000E+00 0.  1.
          2   -1    0    0  501    0  0.00000000000E+00 -0.00000000000E+00 -0.78949014413E+03  0.78949014413E+03  0.00000000000E+00 0. -1.
         23    2    1    2    0    0  0.11120044756E+03  0.50653168456E+01 -0.20407110989E+03  0.24943496463E+03  0.90452123866E+02 0.  0.
         13    1    3    3    0    0  0.45918650006E+02  0.33277957781E+02 -0.36613802819E+02  0.67501966263E+02  0.00000000000E+00 0. -1.
        -13    1    3    3    0    0  0.65281797559E+02 -0.28212640936E+02 -0.16745730707E+03  0.18193299836E+03  0.00000000000E+00 0.  1.
         22    1    1    2    0    0 -0.11120044756E+03 -0.50653168456E+01 -0.55723222865E+03  0.56824198509E+03  0.00000000000E+00 0. -1.
<mgrwt>
<rscale>  0 0.29835016E+03</rscale>
<asrwt>0</asrwt>
<pdfrwt beam="1">  1        2 0.12146002E+00 0.29835016E+03</pdfrwt>
<pdfrwt beam="2">  1       -2 0.43364317E-02 0.29835016E+03</pdfrwt>
<totfact> 0.87753861E+03</totfact>
</mgrwt>
</event>
<event>
 6    1  0.1933208E-005  0.2646460E+04  0.7818608E-02  0.8352589E-01
          2   -1    0    0  501    0  0.00000000000E+00  0.00000000000E+00  0.15661781368E+04  0.15661781368E+04  0.00000000000E+00 0. -1.
         -2   -1    0    0    0  501 -0.00000000000E+00 -0.00000000000E+00 -0.11179687492E+04  0.11179687492E+04  0.00000000000E+00 0.  1.
         23    2    1    2    0    0  0.48168416174E+03  0.29847832742E+03 -0.98660669291E+03  0.11414848593E+04  0.92119346422E+02 0.  0.
         11    1    3    3    0    0  0.13927417318E+03  0.13056553447E+03 -0.37317031804E+03  0.41916672145E+03  0.00000000000E+00 0.  1.
        -11    1    3    3    0    0  0.34240998856E+03  0.16791279296E+03 -0.61343637488E+03  0.72231813789E+03  0.00000000000E+00 0. -1.
         22    1    1    2    0    0 -0.48168416174E+03 -0.29847832742E+03  0.14348160805E+04  0.15426620267E+04  0.00000000000E+00 0. -1.
<mgrwt>
<rscale>  0 0.26464604E+04</rscale>
<asrwt>0</asrwt>
<pdfrwt beam="1">  1        2 0.24095048E+00 0.26464604E+04</pdfrwt>
<pdfrwt beam="2">  1       -2 0.17199519E+00 0.26464604E+04</pdfrwt>
<totfact> 0.21180654E+00</totfact>
</mgrwt>
</event>
<event>
 6    1  0.1773638E-005  0.4753580E+04  0.7818608E-02  0.7867686E-01
         -2   -1    0    0    0  501 -0.00000000000E+00  0.00000000000E+00  0.25857793595E+04  0.25857793595E+04  0.00000000000E+00 0.  1.
          2   -1    0    0  501    0  0.00000000000E+00 -0.00000000000E+00 -0.21846913552E+04  0.21846913552E+04  0.00000000000E+00 0. -1.
         23    2    1    2    0    0  0.22904275328E+04  0.48315092261E+03  0.60879501439E+03  0.24204419279E+04  0.91731455031E+02 0.  0.
         13    1    3    3    0    0  0.17558008061E+04  0.38544544085E+03  0.50426151669E+03  0.18669987509E+04  0.00000000000E+00 0. -1.
        -13    1    3    3    0    0  0.53462672664E+03  0.97705481767E+02  0.10453349770E+03  0.55344317698E+03  0.00000000000E+00 0.  1.
         22    1    1    2    0    0 -0.22904275328E+04 -0.48315092261E+03 -0.20770701004E+03  0.23500287868E+04  0.00000000000E+00 0.  1.
<mgrwt>
<rscale>  0 0.47535796E+04</rscale>
<asrwt>0</asrwt>
<pdfrwt beam="1">  1        2 0.33610636E+00 0.47535796E+04</pdfrwt>
<pdfrwt beam="2">  1       -2 0.39781221E+00 0.47535796E+04</pdfrwt>
<totfact> 0.30008507E-02</totfact>
</mgrwt>
</event>
<event>
 6    1  0.1773638E-005  0.1768135E+04  0.7818608E-02  0.8723431E-01
         -1   -1    0    0    0  501 -0.00000000000E+00  0.00000000000E+00  0.39161886129E+03  0.39161886129E+03  0.00000000000E+00 0.  1.
          1   -1    0    0  501    0  0.00000000000E+00 -0.00000000000E+00 -0.19957558418E+04  0.19957558418E+04  0.00000000000E+00 0. -1.
         23    2    1    2    0    0 -0.43039052909E+03 -0.94937388587E+02  0.22681428929E+03  0.50412440967E+03  0.91910735594E+02 0.  0.
         13    1    3    3    0    0 -0.95237016886E+02 -0.54848055379E+02  0.32315195153E+02  0.11455422472E+03  0.00000000000E+00 0. -1.
        -13    1    3    3    0    0 -0.33515351220E+03 -0.40089333207E+02  0.19449909413E+03  0.38957018494E+03  0.00000000000E+00 0.  1.
         22    1    1    2    0    0  0.43039052909E+03  0.94937388587E+02 -0.18309512698E+04  0.18832502934E+04  0.00000000000E+00 0. -1.
<mgrwt>
<rscale>  0 0.17681353E+04</rscale>
<asrwt>0</asrwt>
<pdfrwt beam="1">  1        1 0.30703936E+00 0.17681353E+04</pdfrwt>
<pdfrwt beam="2">  1       -1 0.60249057E-01 0.17681353E+04</pdfrwt>
<totfact> 0.79300858E+00</totfact>
</mgrwt>
</event>
<event>
 6    1  0.1773638E-005  0.1779558E+04  0.7818608E-02  0.8717246E-01
          2   -1    0    0  501    0  0.00000000000E+00  0.00000000000E+00  0.16582746111E+04  0.16582746111E+04  0.00000000000E+00 0.  1.
         -2   -1    0    0    0  501 -0.00000000000E+00 -0.00000000000E+00 -0.47742818187E+03  0.47742818187E+03  0.00000000000E+00 0. -1.
         23    2    1    2    0    0 -0.25772046600E+03  0.45035190278E+03 -0.27120585818E+03  0.59372597073E+03  0.98596327915E+02 0.  0.
         13    1    3    3    0    0 -0.12973048751E+03  0.30167795429E+03 -0.20280881052E+03  0.38596761667E+03  0.00000000000E+00 0.  1.
        -13    1    3    3    0    0 -0.12798997849E+03  0.14867394849E+03 -0.68397047654E+02  0.20775835405E+03  0.00000000000E+00 0. -1.
         22    1    1    2    0    0  0.25772046600E+03 -0.45035190278E+03  0.14520522874E+04  0.15419768222E+04  0.00000000000E+00 0.  1.
<mgrwt>
<rscale>  0 0.17795584E+04</rscale>
<asrwt>0</asrwt>
<pdfrwt beam="1">  1        2 0.25511917E+00 0.17795584E+04</pdfrwt>
<pdfrwt beam="2">  1       -2 0.73450490E-01 0.17795584E+04</pdfrwt>
<totfact> 0.16360059E+01</totfact>
</mgrwt>
</event>
<event>
 6    1  0.1773638E-005  0.2841459E+04  0.7818608E-02  0.8290511E-01
         -2   -1    0    0    0  501 -0.00000000000E+00  0.00000000000E+00  0.75481749719E+03  0.75481749719E+03  0.00000000000E+00 0.  1.
          2   -1    0    0  501    0  0.00000000000E+00 -0.00000000000E+00 -0.26741203453E+04  0.26741203453E+04  0.00000000000E+00 0. -1.
         23    2    1    2    0    0 -0.11132534307E+04 -0.81423756791E+03 -0.13646074455E+04  0.19423299562E+04  0.90422124411E+02 0.  0.
         11    1    3    3    0    0 -0.96589728228E+03 -0.74036698288E+03 -0.11870743142E+04  0.17000724269E+04  0.00000000000E+00 0. -1.
        -11    1    3    3    0    0 -0.14735614837E+03 -0.73870585033E+02 -0.17753313132E+03  0.24225752932E+03  0.00000000000E+00 0.  1.
         22    1    1    2    0    0  0.11132534307E+04  0.81423756791E+03 -0.55469540259E+03  0.14866078863E+04  0.00000000000E+00 0.  1.
<mgrwt>
<rscale>  0 0.28414594E+04</rscale>
<asrwt>0</asrwt>
<pdfrwt beam="1">  1        2 0.41140313E+00 0.28414594E+04</pdfrwt>
<pdfrwt beam="2">  1       -2 0.11612577E+00 0.28414594E+04</pdfrwt>
<totfact> 0.13733229E+00</totfact>
</mgrwt>
</event>
<event>
 6    1  0.1773638E-005  0.4237077E+04  0.7818608E-02  0.7958357E-01
         -2   -1    0    0    0  501 -0.00000000000E+00  0.00000000000E+00  0.26165591464E+04  0.26165591464E+04  0.00000000000E+00 0. -1.
          2   -1    0    0  501    0  0.00000000000E+00 -0.00000000000E+00 -0.17153083328E+04  0.17153083328E+04  0.00000000000E+00 0.  1.
         23    2    1    2    0    0 -0.16341641923E+04  0.11067772287E+04 -0.33352045013E+03  0.20037548283E+04  0.91373299542E+02 0.  0.
         11    1    3    3    0    0 -0.25524891033E+03  0.13489969831E+03 -0.41494271145E+02  0.29167054936E+03  0.00000000000E+00 0. -1.
        -11    1    3    3    0    0 -0.13789152820E+04  0.97187753037E+03 -0.29202617899E+03  0.17120842789E+04  0.00000000000E+00 0.  1.
         22    1    1    2    0    0  0.16341641923E+04 -0.11067772287E+04  0.12347712637E+04  0.23281126509E+04  0.00000000000E+00 0. -1.
<mgrwt>
<rscale>  0 0.42370772E+04</rscale>
<asrwt>0</asrwt>
<pdfrwt beam="1">  1        2 0.26389359E+00 0.42370772E+04</pdfrwt>
<pdfrwt beam="2">  1       -2 0.40254756E+00 0.42370772E+04</pdfrwt>
<totfact> 0.53150095E-02</totfact>
</mgrwt>
</event>
<event>
 6    1  0.1773638E-005  0.3179945E+04  0.7818608E-02  0.8194134E-01
          1   -1    0    0  501    0  0.00000000000E+00  0.00000000000E+00  0.16402495743E+04  0.16402495743E+04  0.00000000000E+00 0. -1.
         -1   -1    0    0    0  501 -0.00000000000E+00 -0.00000000000E+00 -0.15412360977E+04  0.15412360977E+04  0.00000000000E+00 0.  1.
         23    2    1    2    0    0 -0.10784987181E+04  0.68076805813E+03 -0.89802099587E+03  0.15626334943E+04  0.93686148939E+02 0.  0.
         11    1    3    3    0    0 -0.85572793978E+03  0.50106496260E+03 -0.72188807830E+03  0.12265638187E+04  0.00000000000E+00 0. -1.
        -11    1    3    3    0    0 -0.22277077837E+03  0.17970309553E+03 -0.17613291758E+03  0.33606967565E+03  0.00000000000E+00 0.  1.
         22    1    1    2    0    0  0.10784987181E+04 -0.68076805813E+03  0.99703447244E+03  0.16188521777E+04  0.00000000000E+00 0. -1.
<mgrwt>
<rscale>  0 0.31799446E+04</rscale>
<asrwt>0</asrwt>
<pdfrwt beam="1">  1        1 0.25234609E+00 0.31799446E+04</pdfrwt>
<pdfrwt beam="2">  1       -1 0.23711325E+00 0.31799446E+04</pdfrwt>
<totfact> 0.37171774E-01</totfact>
</mgrwt>
</event>
<event>
 6    1  0.1773638E-005  0.3485728E+04  0.7818608E-02  0.8117180E-01
          2   -1    0    0  501    0  0.00000000000E+00  0.00000000000E+00  0.40553184370E+04  0.40553184370E+04  0.00000000000E+00 0. -1.
         -2   -1    0    0    0  501 -0.00000000000E+00 -0.00000000000E+00 -0.74903502276E+03  0.74903502276E+03  0.00000000000E+00 0.  1.
         23    2    1    2    0    0 -0.12306373073E+04 -0.25651138753E+03  0.33157475187E+04  0.35472314119E+04  0.91666830477E+02 0.  0.
         13    1    3    3    0    0 -0.35245127879E+03 -0.34394029883E+02  0.88945099150E+03  0.95735464666E+03  0.00000000000E+00 0.  1.
        -13    1    3    3    0    0 -0.87818602851E+03 -0.22211735764E+03  0.24262965272E+04  0.25898767652E+04  0.00000000000E+00 0. -1.
         22    1    1    2    0    0  0.12306373073E+04  0.25651138753E+03 -0.94641044057E+01  0.12571220479E+04  0.00000000000E+00 0.  1.
<mgrwt>
<rscale>  0 0.34857284E+04</rscale>
<asrwt>0</asrwt>
<pdfrwt beam="1">  1        2 0.62389513E+00 0.34857284E+04</pdfrwt>
<pdfrwt beam="2">  1       -2 0.11523616E+00 0.34857284E+04</pdfrwt>
<totfact> 0.14837678E-01</totfact>
</mgrwt>
</event>
<event>
 6    1  0.1773638E-005  0.1598643E+04  0.7818608E-02  0.8821382E-01
          2   -1    0    0  501    0  0.00000000000E+00  0.00000000000E+00  0.14069653441E+04  0.14069653441E+04  0.00000000000E+00 0. -1.
         -2   -1    0    0    0  501 -0.00000000000E+00 -0.00000000000E+00 -0.45410820046E+03  0.45410820046E+03  0.00000000000E+00 0.  1.
         23    2    1    2    0    0 -0.25828457736E+03  0.44342245042E+03  0.11873463921E+04  0.12968753523E+04  0.93593974803E+02 0.  0.
         11    1    3    3    0    0 -0.21102969060E+03  0.38160279134E+03  0.10762848954E+04  0.11612680125E+04  0.00000000000E+00 0. -1.
        -11    1    3    3    0    0 -0.47254886761E+02  0.61819659078E+02  0.11106149673E+03  0.13560733987E+03  0.00000000000E+00 0.  1.
         22    1    1    2    0    0  0.25828457736E+03 -0.44342245042E+03 -0.23448924850E+03  0.56419819222E+03  0.00000000000E+00 0.  1.
<mgrwt>
<rscale>  0 0.15986425E+04</rscale>
<asrwt>0</asrwt>
<pdfrwt beam="1">  1        2 0.21645621E+00 0.15986425E+04</pdfrwt>
<pdfrwt beam="2">  1       -2 0.69862801E-01 0.15986425E+04</pdfrwt>
<totfact> 0.25670854E+01</totfact>
</mgrwt>
</event>
<event>
 6    1  0.1773638E-005  0.7175721E+03  0.7818608E-02  0.9687645E-01
         -4   -1    0    0    0  501 -0.00000000000E+00  0.00000000000E+00  0.12757572683E+04  0.12757572683E+04  0.00000000000E+00 0.  1.
          4   -1    0    0  501    0  0.00000000000E+00 -0.00000000000E+00 -0.10090276167E+03  0.10090276167E+03  0.00000000000E+00 0. -1.
         23    2    1    2    0    0 -0.19709670012E+03 -0.27158218301E+03  0.38714762835E+03  0.52045554656E+03  0.91578919454E+02 0.  0.
         13    1    3    3    0    0 -0.34149239801E+02 -0.84734135600E+02  0.57351729877E+02  0.10786688665E+03  0.00000000000E+00 0.  1.
        -13    1    3    3    0    0 -0.16294746032E+03 -0.18684804741E+03  0.32979589847E+03  0.41258865992E+03  0.00000000000E+00 0. -1.
         22    1    1    2    0    0  0.19709670012E+03  0.27158218301E+03  0.78770687829E+03  0.85620448342E+03  0.00000000000E+00 0.  1.
<mgrwt>
<rscale>  0 0.71757211E+03</rscale>
<asrwt>0</asrwt>
<pdfrwt beam="1">  1        4 0.15523503E-01 0.71757211E+03</pdfrwt>
<pdfrwt beam="2">  1       -4 0.19627034E+00 0.71757211E+03</pdfrwt>
<totfact> 0.10241743E+01</totfact>
</mgrwt>
</event>
<event>
 6    1  0.1773638E-005  0.2745723E+04  0.7818608E-02  0.8320320E-01
         -1   -1    0    0    0  501 -0.00000000000E+00  0.00000000000E+00  0.88245188766E+03  0.88245188766E+03  0.00000000000E+00 0.  1.
          1   -1    0    0  501    0  0.00000000000E+00 -0.00000000000E+00 -0.21358083086E+04  0.21358083086E+04  0.00000000000E+00 0. -1.
         23    2    1    2    0    0 -0.34288513950E+03 -0.52783197283E+03 -0.19666391446E+04  0.20669720935E+04  0.92343380445E+02 0.  0.
         13    1    3    3    0    0 -0.22782264344E+03 -0.42206545710E+03 -0.15077729064E+04  0.15822204474E+04  0.00000000000E+00 0. -1.
        -13    1    3    3    0    0 -0.11506249606E+03 -0.10576651573E+03 -0.45886623824E+03  0.48475164615E+03  0.00000000000E+00 0.  1.
         22    1    1    2    0    0  0.34288513950E+03  0.52783197283E+03  0.71328272369E+03  0.95128810270E+03  0.00000000000E+00 0.  1.
<mgrwt>
<rscale>  0 0.27457225E+04</rscale>
<asrwt>0</asrwt>
<pdfrwt beam="1">  1        1 0.32858589E+00 0.27457225E+04</pdfrwt>
<pdfrwt beam="2">  1       -1 0.13576183E+00 0.27457225E+04</pdfrwt>
<totfact> 0.95126251E-01</totfact>
</mgrwt>
</event>
<event>
 6    1  0.1773638E-005  0.1887690E+04  0.7818608E-02  0.8661008E-01
          1   -1    0    0  501    0  0.00000000000E+00  0.00000000000E+00  0.35622842101E+03  0.35622842101E+03  0.00000000000E+00 0. -1.
         -1   -1    0    0    0  501 -0.00000000000E+00 -0.00000000000E+00 -0.25007654802E+04  0.25007654802E+04  0.00000000000E+00 0.  1.
         23    2    1    2    0    0 -0.42685750517E+03 -0.78562357316E+03 -0.15225628785E+04  0.17678366078E+04  0.87388925703E+02 0.  0.
         13    1    3    3    0    0 -0.70735334503E+02 -0.19552348150E+03 -0.31537656935E+03  0.37775031418E+03  0.00000000000E+00 0.  1.
        -13    1    3    3    0    0 -0.35612217067E+03 -0.59010009166E+03 -0.12071863091E+04  0.13900862936E+04  0.00000000000E+00 0. -1.
         22    1    1    2    0    0  0.42685750517E+03  0.78562357316E+03 -0.62197418069E+03  0.10891572934E+04  0.00000000000E+00 0. -1.
<mgrwt>
<rscale>  0 0.18876904E+04</rscale>
<asrwt>0</asrwt>
<pdfrwt beam="1">  1        1 0.54804371E-01 0.18876904E+04</pdfrwt>
<pdfrwt beam="2">  1       -1 0.38473316E+00 0.18876904E+04</pdfrwt>
<totfact> 0.59707146E-01</totfact>
</mgrwt>
</event>
<event>
 6    1  0.1773638E-005  0.8754753E+03  0.7818608E-02  0.9456769E-01
         -1   -1    0    0    0  501 -0.00000000000E+00  0.00000000000E+00  0.49791464704E+02  0.49791464704E+02  0.00000000000E+00 0.  1.
          1   -1    0    0  501    0  0.00000000000E+00 -0.00000000000E+00 -0.38483354537E+04  0.38483354537E+04  0.00000000000E+00 0. -1.
         23    2    1    2    0    0 -0.15679190778E+03 -0.31708964773E+03 -0.30233181873E+04  0.30460092091E+04  0.11220379974E+03 0.  0.
         13    1    3    3    0    0 -0.90396022201E+02 -0.12262099321E+03 -0.17024429998E+04  0.17092453061E+04  0.00000000000E+00 0. -1.
        -13    1    3    3    0    0 -0.66395885575E+02 -0.19446865451E+03 -0.13208751875E+04  0.13367639029E+04  0.00000000000E+00 0.  1.
         22    1    1    2    0    0  0.15679190778E+03  0.31708964773E+03 -0.77522580165E+03  0.85211770934E+03  0.00000000000E+00 0.  1.
<mgrwt>
<rscale>  0 0.87547532E+03</rscale>
<asrwt>0</asrwt>
<pdfrwt beam="1">  1        1 0.59205183E+00 0.87547532E+03</pdfrwt>
<pdfrwt beam="2">  1       -1 0.76602224E-02 0.87547532E+03</pdfrwt>
<totfact> 0.13309610E+01</totfact>
</mgrwt>
</event>
<event>
 6    1  0.1773638E-005  0.5331804E+04  0.7818608E-02  0.7779267E-01
          1   -1    0    0  501    0  0.00000000000E+00  0.00000000000E+00  0.16274936820E+04  0.16274936820E+04  0.00000000000E+00 0. -1.
         -1   -1    0    0    0  501 -0.00000000000E+00 -0.00000000000E+00 -0.43668573868E+04  0.43668573868E+04  0.00000000000E+00 0.  1.
         23    2    1    2    0    0  0.18152089926E+04 -0.14073304622E+04  0.14969073854E+03  0.23035248343E+04  0.90865992172E+02 0.  0.
         13    1    3    3    0    0  0.90653731543E+03 -0.72357089644E+03  0.33121309128E+02  0.11603713921E+04  0.00000000000E+00 0. -1.
        -13    1    3    3    0    0  0.90867167712E+03 -0.68375956572E+03  0.11656942941E+03  0.11431534422E+04  0.00000000000E+00 0.  1.
         22    1    1    2    0    0 -0.18152089926E+04  0.14073304622E+04 -0.28890544434E+04  0.36908262345E+04  0.00000000000E+00 0.  1.
<mgrwt>
<rscale>  0 0.53318037E+04</rscale>
<asrwt>0</asrwt>
<pdfrwt beam="1">  1        1 0.25038365E+00 0.53318037E+04</pdfrwt>
<pdfrwt beam="2">  1       -1 0.67182420E+00 0.53318037E+04</pdfrwt>
<totfact> 0.94721588E-04</totfact>
</mgrwt>
</event>
<event>
 6    1  0.1773638E-005  0.1327473E+04  0.7818608E-02  0.9008058E-01
         -2   -1    0    0    0  501 -0.00000000000E+00  0.00000000000E+00  0.49574909355E+03  0.49574909355E+03  0.00000000000E+00 0.  1.
          2   -1    0    0  501    0  0.00000000000E+00 -0.00000000000E+00 -0.88864806436E+03  0.88864806436E+03  0.00000000000E+00 0. -1.
         23    2    1    2    0    0 -0.69148165505E+02  0.62858356603E+03 -0.39523365955E+03  0.75201735190E+03  0.97065357565E+02 0.  0.
         11    1    3    3    0    0 -0.59348795256E+02  0.33755662830E+03 -0.26398194419E+03  0.43261209376E+03  0.00000000000E+00 0. -1.
        -11    1    3    3    0    0 -0.97993702491E+01  0.29102693774E+03 -0.13125171536E+03  0.31940525814E+03  0.00000000000E+00 0.  1.
         22    1    1    2    0    0  0.69148165505E+02 -0.62858356603E+03  0.23346887424E+01  0.63237980601E+03  0.00000000000E+00 0.  1.
<mgrwt>
<rscale>  0 0.13274735E+04</rscale>
<asrwt>0</asrwt>
<pdfrwt beam="1">  1        2 0.13671509E+00 0.13274735E+04</pdfrwt>
<pdfrwt beam="2">  1       -2 0.76269092E-01 0.13274735E+04</pdfrwt>
<totfact> 0.44935339E+01</totfact>
</mgrwt>
</event>
