<event>
 6    1  0.1014650E-006  0.2806688E+04  0.7818608E-02  0.8301195E-01
         -2   -1    0    0    0  501 -0.00000000000E+00  0.00000000000E+00  0.10089053741E+04  0.10089053741E+04  0.00000000000E+00 0.  1.
          2   -1    0    0  501    0  0.00000000000E+00 -0.00000000000E+00 -0.19519906681E+04  0.19519906681E+04  0.00000000000E+00 0. -1.
         23    2    1    2    0    0 -0.69407447732E+03 -0.12042747325E+04 -0.66696750309E+03  0.15437658273E+04  0.79688568646E+02 0.  0.
         13    1    3    3    0    0 -0.24244475677E+03 -0.36112760009E+03 -0.18432805116E+03  0.47240812236E+03  0.00000000000E+00 0.  1.
        -13    1    3    3    0    0 -0.45162972055E+03 -0.84314713246E+03 -0.48263945192E+03  0.10713577050E+04  0.00000000000E+00 0. -1.
         22    1    1    2    0    0  0.69407447732E+03  0.12042747325E+04 -0.27611779090E+03  0.14171302149E+04  0.00000000000E+00 0.  1.
<mgrwt>
<rscale>  0 0.28066876E+04</rscale>
<asrwt>0</asrwt>
<pdfrwt beam="1">  1        2 0.30030626E+00 0.28066876E+04</pdfrwt>
<pdfrwt beam="2">  1       -2 0.15521621E+00 0.28066876E+04</pdfrwt>
<totfact> 0.16900991E+00</totfact>
</mgrwt>
</event>
<event>
 6    1  0.1014650E-006  0.2877618E+04  0.7818608E-02  0.8279568E-01
         -2   -1    0    0    0  501 -0.00000000000E+00  0.00000000000E+00  0.14429391589E+04  0.14429391589E+04  0.00000000000E+00 0.  1.
          2   -1    0    0  501    0  0.00000000000E+00 -0.00000000000E+00 -0.14346901731E+04  0.14346901731E+04  0.00000000000E+00 0. -1.
         23    2    1    2    0    0  0.93421912236E+03  0.63553688842E+03  0.89255184275E+03  0.14428247990E+04  0.91772018903E+02 0.  0.
         13    1    3    3    0    0  0.44139840750E+03  0.33062720904E+03  0.38639538544E+03  0.67338569883E+03  0.00000000000E+00 0.  1.
        -13    1    3    3    0    0  0.49282071485E+03  0.30490967939E+03  0.50615645731E+03  0.76943910016E+03  0.00000000000E+00 0. -1.
         22    1    1    2    0    0 -0.93421912236E+03 -0.63553688842E+03 -0.88430285694E+03  0.14348045330E+04  0.00000000000E+00 0. -1.
<mgrwt>
<rscale>  0 0.28776175E+04</rscale>
<asrwt>0</asrwt>
<pdfrwt beam="1">  1        2 0.22072156E+00 0.28776175E+04</pdfrwt>
<pdfrwt beam="2">  1       -2 0.22199064E+00 0.28776175E+04</pdfrwt>
<totfact> 0.11477199E+00</totfact>
</mgrwt>
</event>
<event>
 6    1  0.1014650E-006  0.9345801E+03  0.7818608E-02  0.9383358E-01
         -2   -1    0    0    0  501 -0.00000000000E+00  0.00000000000E+00  0.12213689718E+04  0.12213689718E+04  0.00000000000E+00 0.  1.
          2   -1    0    0  501    0  0.00000000000E+00 -0.00000000000E+00 -0.17878299686E+03  0.17878299686E+03  0.00000000000E+00 0. -1.
         23    2    1    2    0    0 -0.53905862946E+02  0.40770881118E+03  0.84428337994E+03  0.94358189083E+03  0.91651744590E+02 0.  0.
         13    1    3    3    0    0 -0.75078869583E+02  0.36873805847E+03  0.73754202515E+03  0.82799325558E+03  0.00000000000E+00 0. -1.
        -13    1    3    3    0    0  0.21173006637E+02  0.38970752708E+02  0.10674135478E+03  0.11558863525E+03  0.00000000000E+00 0.  1.
         22    1    1    2    0    0  0.53905862946E+02 -0.40770881118E+03  0.19830259496E+03  0.45657007780E+03  0.00000000000E+00 0.  1.
<mgrwt>
<rscale>  0 0.93458013E+03</rscale>
<asrwt>0</asrwt>
<pdfrwt beam="1">  1        2 0.27505077E-01 0.93458013E+03</pdfrwt>
<pdfrwt beam="2">  1       -2 0.18790291E+00 0.93458013E+03</pdfrwt>
<totfact> 0.31560736E+01</totfact>
</mgrwt>
</event>
<event>
 6    1  0.1014650E-006  0.4964298E+04  0.7818608E-02  0.7834038E-01
         -2   -1    0    0    0  501 -0.00000000000E+00  0.00000000000E+00  0.18184956536E+04  0.18184956536E+04  0.00000000000E+00 0.  1.
          2   -1    0    0  501    0  0.00000000000E+00 -0.00000000000E+00 -0.33880002210E+04  0.33880002210E+04  0.00000000000E+00 0. -1.
         23    2    1    2    0    0  0.21172720776E+04  0.82373561000E+03  0.26136592434E+03  0.22887110704E+04  0.92221534931E+02 0.  0.
         11    1    3    3    0    0  0.52344684010E+03  0.16306198162E+03  0.74277199966E+02  0.55326567461E+03  0.00000000000E+00 0.  1.
        -11    1    3    3    0    0  0.15938252375E+04  0.66067362838E+03  0.18708872437E+03  0.17354453958E+04  0.00000000000E+00 0. -1.
         22    1    1    2    0    0 -0.21172720776E+04 -0.82373561000E+03 -0.18308704917E+04  0.29177848041E+04  0.00000000000E+00 0. -1.
<mgrwt>
<rscale>  0 0.49642980E+04</rscale>
<asrwt>0</asrwt>
<pdfrwt beam="1">  1        2 0.52123080E+00 0.49642980E+04</pdfrwt>
<pdfrwt beam="2">  1       -2 0.27976857E+00 0.49642980E+04</pdfrwt>
<totfact> 0.29921861E-02</totfact>
</mgrwt>
</event>
<event>
 6    1  0.1014650E-006  0.3157224E+04  0.7818608E-02  0.8200206E-01
          2   -1    0    0  501    0  0.00000000000E+00  0.00000000000E+00  0.35299425549E+04  0.35299425549E+04  0.00000000000E+00 0. -1.
         -2   -1    0    0    0  501 -0.00000000000E+00 -0.00000000000E+00 -0.70596501575E+03  0.70596501575E+03  0.00000000000E+00 0.  1.
         23    2    1    2    0    0  0.15297135199E+04  0.33092854676E+03  0.11494867966E+04  0.19438655983E+04  0.88070497701E+02 0.  0.
         11    1    3    3    0    0  0.73967641903E+03  0.19610660943E+03  0.52880482580E+03  0.93016856049E+03  0.00000000000E+00 0.  1.
        -11    1    3    3    0    0  0.79003710091E+03  0.13482193733E+03  0.62068197083E+03  0.10136970378E+04  0.00000000000E+00 0. -1.
         22    1    1    2    0    0 -0.15297135199E+04 -0.33092854676E+03  0.16744907426E+04  0.22920419724E+04  0.00000000000E+00 0. -1.
<mgrwt>
<rscale>  0 0.31572241E+04</rscale>
<asrwt>0</asrwt>
<pdfrwt beam="1">  1        2 0.54306807E+00 0.31572241E+04</pdfrwt>
<pdfrwt beam="2">  1       -2 0.10861000E+00 0.31572241E+04</pdfrwt>
<totfact> 0.44290627E-01</totfact>
</mgrwt>
</event>
<event>
 6    1  0.1014650E-006  0.2048238E+04  0.7818608E-02  0.8584394E-01
         -2   -1    0    0    0  501 -0.00000000000E+00  0.00000000000E+00  0.59544632403E+03  0.59544632403E+03  0.00000000000E+00 0.  1.
          2   -1    0    0  501    0  0.00000000000E+00 -0.00000000000E+00 -0.17614004263E+04  0.17614004263E+04  0.00000000000E+00 0. -1.
         23    2    1    2    0    0  0.76187442823E+03  0.59224040459E+03 -0.97086244357E+03  0.13723356552E+04  0.97621334487E+02 0.  0.
         13    1    3    3    0    0  0.23181207591E+03  0.13937060617E+03 -0.31433829133E+03  0.41469213376E+03  0.00000000000E+00 0.  1.
        -13    1    3    3    0    0  0.53006235231E+03  0.45286979843E+03 -0.65652415224E+03  0.95764352144E+03  0.00000000000E+00 0. -1.
         22    1    1    2    0    0 -0.76187442823E+03 -0.59224040459E+03 -0.19509165873E+03  0.98451109518E+03  0.00000000000E+00 0.  1.
<mgrwt>
<rscale>  0 0.20482377E+04</rscale>
<asrwt>0</asrwt>
<pdfrwt beam="1">  1        2 0.27098468E+00 0.20482377E+04</pdfrwt>
<pdfrwt beam="2">  1       -2 0.91607127E-01 0.20482377E+04</pdfrwt>
<totfact> 0.85100928E+00</totfact>
</mgrwt>
</event>
<event>
 6    1  0.1014650E-006  0.1237840E+04  0.7818608E-02  0.9080365E-01
          1   -1    0    0  501    0  0.00000000000E+00  0.00000000000E+00  0.29460719146E+04  0.29460719146E+04  0.00000000000E+00 0. -1.
         -1   -1    0    0    0  501 -0.00000000000E+00 -0.00000000000E+00 -0.13002469684E+03  0.13002469684E+03  0.00000000000E+00 0.  1.
         23    2    1    2    0    0 -0.22068223492E+03 -0.56940445094E+03  0.16094714740E+04  0.17237848490E+04  0.90076091420E+02 0.  0.
         11    1    3    3    0    0 -0.18425566259E+03 -0.50232062834E+03  0.14765689695E+04  0.15705196862E+04  0.00000000000E+00 0.  1.
        -11    1    3    3    0    0 -0.36426572331E+02 -0.67083822600E+02  0.13290250453E+03  0.15326516283E+03  0.00000000000E+00 0. -1.
         22    1    1    2    0    0  0.22068223492E+03  0.56940445094E+03  0.12065757437E+04  0.13523117624E+04  0.00000000000E+00 0. -1.
<mgrwt>
<rscale>  0 0.12378402E+04</rscale>
<asrwt>0</asrwt>
<pdfrwt beam="1">  1        1 0.45324178E+00 0.12378402E+04</pdfrwt>
<pdfrwt beam="2">  1       -1 0.20003802E-01 0.12378402E+04</pdfrwt>
<totfact> 0.13352671E+01</totfact>
</mgrwt>
</event>
<event>
 6    1  0.1014650E-006  0.3133873E+04  0.7818608E-02  0.8206503E-01
         -1   -1    0    0    0  501 -0.00000000000E+00  0.00000000000E+00  0.13103117263E+04  0.13103117263E+04  0.00000000000E+00 0.  1.
          1   -1    0    0  501    0  0.00000000000E+00 -0.00000000000E+00 -0.18738217850E+04  0.18738217850E+04  0.00000000000E+00 0. -1.
         23    2    1    2    0    0  0.12180287741E+04 -0.43921538538E+02 -0.12803764238E+04  0.17701248193E+04  0.91950492838E+02 0.  0.
         11    1    3    3    0    0  0.41772986743E+03 -0.58642620007E+02 -0.43665615772E+03  0.60712914532E+03  0.00000000000E+00 0.  1.
        -11    1    3    3    0    0  0.80029890666E+03  0.14721081469E+02 -0.84372026605E+03  0.11629956739E+04  0.00000000000E+00 0. -1.
         22    1    1    2    0    0 -0.12180287741E+04  0.43921538538E+02  0.71686636507E+03  0.14140086921E+04  0.00000000000E+00 0.  1.
<mgrwt>
<rscale>  0 0.31338734E+04</rscale>
<asrwt>0</asrwt>
<pdfrwt beam="1">  1        1 0.28828027E+00 0.31338734E+04</pdfrwt>
<pdfrwt beam="2">  1       -1 0.20158642E+00 0.31338734E+04</pdfrwt>
<totfact> 0.44822274E-01</totfact>
</mgrwt>
</event>
<event>
 6    1  0.1014650E-006  0.1237781E+04  0.7818608E-02  0.9080415E-01
          1   -1    0    0  501    0  0.00000000000E+00  0.00000000000E+00  0.20551591240E+04  0.20551591240E+04  0.00000000000E+00 0. -1.
         -1   -1    0    0    0  501 -0.00000000000E+00 -0.00000000000E+00 -0.18637273923E+03  0.18637273923E+03  0.00000000000E+00 0.  1.
         23    2    1    2    0    0 -0.40028026727E+03 -0.40787712918E+03  0.13525947209E+04  0.14714397397E+04  0.95049375034E+02 0.  0.
         11    1    3    3    0    0 -0.13430823305E+03 -0.20245098308E+03  0.59146251264E+03  0.63941614452E+03  0.00000000000E+00 0. -1.
        -11    1    3    3    0    0 -0.26597203422E+03 -0.20542614610E+03  0.76113220826E+03  0.83202359518E+03  0.00000000000E+00 0.  1.
         22    1    1    2    0    0  0.40028026727E+03  0.40787712918E+03  0.51619166392E+03  0.77009212357E+03  0.00000000000E+00 0. -1.
<mgrwt>
<rscale>  0 0.12377813E+04</rscale>
<asrwt>0</asrwt>
<pdfrwt beam="1">  1        1 0.31617831E+00 0.12377813E+04</pdfrwt>
<pdfrwt beam="2">  1       -1 0.28672731E-01 0.12377813E+04</pdfrwt>
<totfact> 0.29864320E+01</totfact>
</mgrwt>
</event>
<event>
 6    1  0.1014650E-006  0.1416095E+04  0.7818608E-02  0.8942250E-01
         -1   -1    0    0    0  501 -0.00000000000E+00  0.00000000000E+00  0.12516925516E+03  0.12516925516E+03  0.00000000000E+00 0.  1.
          1   -1    0    0  501    0  0.00000000000E+00 -0.00000000000E+00 -0.40052265060E+04  0.40052265060E+04  0.00000000000E+00 0. -1.
         23    2    1    2    0    0  0.34933766106E+03 -0.94244963130E+02 -0.37132849484E+04  0.37319840201E+04  0.91108199684E+02 0.  0.
         11    1    3    3    0    0  0.91012493871E+02 -0.58882628527E+02 -0.13551006619E+04  0.13594293810E+04  0.00000000000E+00 0.  1.
        -11    1    3    3    0    0  0.25832516719E+03 -0.35362334603E+02 -0.23581842865E+04  0.23725546391E+04  0.00000000000E+00 0. -1.
         22    1    1    2    0    0 -0.34933766106E+03  0.94244963130E+02 -0.16677230243E+03  0.39841174100E+03  0.00000000000E+00 0.  1.
<mgrwt>
<rscale>  0 0.14160949E+04</rscale>
<asrwt>0</asrwt>
<pdfrwt beam="1">  1        1 0.61618859E+00 0.14160949E+04</pdfrwt>
<pdfrwt beam="2">  1       -1 0.19256812E-01 0.14160949E+04</pdfrwt>
<totfact> 0.20615619E+00</totfact>
</mgrwt>
</event>
<event>
 6    1  0.1014650E-006  0.1297400E+04  0.7818608E-02  0.9031630E-01
         -1   -1    0    0    0  501 -0.00000000000E+00  0.00000000000E+00  0.45562671018E+03  0.45562671018E+03  0.00000000000E+00 0.  1.
          1   -1    0    0  501    0  0.00000000000E+00 -0.00000000000E+00 -0.92358812297E+03  0.92358812297E+03  0.00000000000E+00 0. -1.
         23    2    1    2    0    0 -0.27544016944E+03 -0.71309871343E+02 -0.85173070372E+03  0.90147928563E+03  0.79166445417E+02 0.  0.
         11    1    3    3    0    0 -0.21107026293E+03 -0.82127960319E+02 -0.71408060232E+03  0.74913734680E+03  0.00000000000E+00 0. -1.
        -11    1    3    3    0    0 -0.64369906511E+02  0.10818088976E+02 -0.13765010140E+03  0.15234193883E+03  0.00000000000E+00 0.  1.
         22    1    1    2    0    0  0.27544016944E+03  0.71309871343E+02  0.38376929093E+03  0.47773554751E+03  0.00000000000E+00 0.  1.
<mgrwt>
<rscale>  0 0.12973996E+04</rscale>
<asrwt>0</asrwt>
<pdfrwt beam="1">  1        1 0.14209048E+00 0.12973996E+04</pdfrwt>
<pdfrwt beam="2">  1       -1 0.70096417E-01 0.12973996E+04</pdfrwt>
<totfact> 0.35202811E+01</totfact>
</mgrwt>
</event>
<event>
 6    1  0.1014650E-006  0.4678738E+04  0.7818608E-02  0.7880071E-01
         -2   -1    0    0    0  501 -0.00000000000E+00  0.00000000000E+00  0.14953157317E+04  0.14953157317E+04  0.00000000000E+00 0.  1.
          2   -1    0    0  501    0  0.00000000000E+00 -0.00000000000E+00 -0.36598608628E+04  0.36598608628E+04  0.00000000000E+00 0. -1.
         23    2    1    2    0    0 -0.88673379024E+03 -0.78315353211E+03  0.11398905771E+04  0.16453444589E+04  0.90452148364E+02 0.  0.
         13    1    3    3    0    0 -0.68182555734E+03 -0.55915603807E+03  0.81586268024E+03  0.12013215550E+04  0.00000000000E+00 0. -1.
        -13    1    3    3    0    0 -0.20490823290E+03 -0.22399749404E+03  0.32402789686E+03  0.44402290390E+03  0.00000000000E+00 0.  1.
         22    1    1    2    0    0  0.88673379024E+03  0.78315353211E+03 -0.33044357083E+04  0.35098321355E+04  0.00000000000E+00 0. -1.
<mgrwt>
<rscale>  0 0.46787381E+04</rscale>
<asrwt>0</asrwt>
<pdfrwt beam="1">  1        2 0.56305552E+00 0.46787381E+04</pdfrwt>
<pdfrwt beam="2">  1       -2 0.23004857E+00 0.46787381E+04</pdfrwt>
<totfact> 0.39761252E-02</totfact>
</mgrwt>
</event>
<event>
 6    1  0.1014650E-006  0.8473496E+03  0.7818608E-02  0.9493901E-01
          1   -1    0    0  501    0  0.00000000000E+00  0.00000000000E+00  0.42948869814E+03  0.42948869814E+03  0.00000000000E+00 0. -1.
         -1   -1    0    0    0  501 -0.00000000000E+00 -0.00000000000E+00 -0.41793957982E+03  0.41793957982E+03  0.00000000000E+00 0.  1.
         23    2    1    2    0    0  0.32971123624E+03 -0.12882246391E+03  0.22965029546E+03  0.43164846847E+03  0.90974807604E+02 0.  0.
         13    1    3    3    0    0  0.94557156867E+02 -0.36530103127E+02  0.11770637393E+03  0.15533928934E+03  0.00000000000E+00 0.  1.
        -13    1    3    3    0    0  0.23515407937E+03 -0.92292360782E+02  0.11194392153E+03  0.27630917913E+03  0.00000000000E+00 0. -1.
         22    1    1    2    0    0 -0.32971123624E+03  0.12882246391E+03 -0.21810117714E+03  0.41577980949E+03  0.00000000000E+00 0.  1.
<mgrwt>
<rscale>  0 0.84734958E+03</rscale>
<asrwt>0</asrwt>
<pdfrwt beam="1">  1        1 0.66075184E-01 0.84734958E+03</pdfrwt>
<pdfrwt beam="2">  1       -1 0.64298397E-01 0.84734958E+03</pdfrwt>
<totfact> 0.13518211E+02</totfact>
</mgrwt>
</event>
<event>
 6    1  0.1014650E-006  0.2630258E+04  0.7818608E-02  0.8357995E-01
         -1   -1    0    0    0  501 -0.00000000000E+00  0.00000000000E+00  0.89925037855E+03  0.89925037855E+03  0.00000000000E+00 0.  1.
          1   -1    0    0  501    0  0.00000000000E+00 -0.00000000000E+00 -0.19233393978E+04  0.19233393978E+04  0.00000000000E+00 0. -1.
         23    2    1    2    0    0  0.40334984186E+03 -0.16889482573E+03  0.81657428939E+03  0.93069708044E+03  0.90481646552E+02 0.  0.
         13    1    3    3    0    0  0.88411281233E+02 -0.48418077110E+02  0.27316728009E+03  0.29117216171E+03  0.00000000000E+00 0. -1.
        -13    1    3    3    0    0  0.31493856063E+03 -0.12047674862E+03  0.54340700930E+03  0.63952491873E+03  0.00000000000E+00 0.  1.
         22    1    1    2    0    0 -0.40334984186E+03  0.16889482573E+03 -0.18406633086E+04  0.18918926959E+04  0.00000000000E+00 0. -1.
<mgrwt>
<rscale>  0 0.26302575E+04</rscale>
<asrwt>0</asrwt>
<pdfrwt beam="1">  1        1 0.29589837E+00 0.26302575E+04</pdfrwt>
<pdfrwt beam="2">  1       -1 0.13834621E+00 0.26302575E+04</pdfrwt>
<totfact> 0.12757803E+00</totfact>
</mgrwt>
</event>
<event>
 6    1  0.1014650E-006  0.2078361E+04  0.7818608E-02  0.8570836E-01
          1   -1    0    0  501    0  0.00000000000E+00  0.00000000000E+00  0.77616018180E+03  0.77616018180E+03  0.00000000000E+00 0. -1.
         -1   -1    0    0    0  501 -0.00000000000E+00 -0.00000000000E+00 -0.13913314844E+04  0.13913314844E+04  0.00000000000E+00 0.  1.
         23    2    1    2    0    0 -0.71952290536E+03  0.38731595569E+03 -0.97429555092E+03  0.12749127696E+04  0.91781745133E+02 0.  0.
         11    1    3    3    0    0 -0.36725086948E+03  0.14915390586E+03 -0.44427546891E+03  0.59539968176E+03  0.00000000000E+00 0. -1.
        -11    1    3    3    0    0 -0.35227203588E+03  0.23816204983E+03 -0.53002008201E+03  0.67951308786E+03  0.00000000000E+00 0.  1.
         22    1    1    2    0    0  0.71952290536E+03 -0.38731595569E+03  0.35912424832E+03  0.89257889657E+03  0.00000000000E+00 0. -1.
<mgrwt>
<rscale>  0 0.20783610E+04</rscale>
<asrwt>0</asrwt>
<pdfrwt beam="1">  1        1 0.11940926E+00 0.20783610E+04</pdfrwt>
<pdfrwt beam="2">  1       -1 0.21405100E+00 0.20783610E+04</pdfrwt>
<totfact> 0.25799911E+00</totfact>
</mgrwt>
</event>
<event>
 6    1  0.1014650E-006  0.2152742E+04  0.7818608E-02  0.8538359E-01
          1   -1    0    0  501    0  0.00000000000E+00  0.00000000000E+00  0.69190495156E+03  0.69190495156E+03  0.00000000000E+00 0. -1.
         -1   -1    0    0    0  501 -0.00000000000E+00 -0.00000000000E+00 -0.16744709662E+04  0.16744709662E+04  0.00000000000E+00 0.  1.
         23    2    1    2    0    0  0.43743475613E+03  0.81900241490E+03  0.10198883249E+03  0.93865979122E+03  0.92554633707E+02 0.  0.
         11    1    3    3    0    0  0.48346633738E+02  0.73392282279E+02  0.36253549115E+02  0.95069153332E+02  0.00000000000E+00 0.  1.
        -11    1    3    3    0    0  0.38908812239E+03  0.74561013262E+03  0.65735283374E+02  0.84359063789E+03  0.00000000000E+00 0. -1.
         22    1    1    2    0    0 -0.43743475613E+03 -0.81900241490E+03 -0.10845548471E+04  0.14277161265E+04  0.00000000000E+00 0.  1.
<mgrwt>
<rscale>  0 0.21527422E+04</rscale>
<asrwt>0</asrwt>
<pdfrwt beam="1">  1        1 0.10644692E+00 0.21527422E+04</pdfrwt>
<pdfrwt beam="2">  1       -1 0.25761091E+00 0.21527422E+04</pdfrwt>
<totfact> 0.15787320E+00</totfact>
</mgrwt>
</event>
<event>
 6    1  0.1014650E-006  0.1820020E+04  0.7818608E-02  0.8695725E-01
         -2   -1    0    0    0  501 -0.00000000000E+00  0.00000000000E+00  0.72448617588E+03  0.72448617588E+03  0.00000000000E+00 0.  1.
          2   -1    0    0  501    0  0.00000000000E+00 -0.00000000000E+00 -0.11430422491E+04  0.11430422491E+04  0.00000000000E+00 0. -1.
         23    2    1    2    0    0 -0.52104491818E+03  0.88062796422E+02  0.54761880515E+03  0.76628514645E+03  0.89798146114E+02 0.  0.
         13    1    3    3    0    0 -0.51650551833E+03  0.97401900177E+02  0.53782807771E+03  0.75201337873E+03  0.00000000000E+00 0.  1.
        -13    1    3    3    0    0 -0.45393998477E+01 -0.93391037558E+01  0.97907274442E+01  0.14271767719E+02  0.00000000000E+00 0. -1.
         22    1    1    2    0    0  0.52104491818E+03 -0.88062796422E+02 -0.96617487833E+03  0.11012432785E+04  0.00000000000E+00 0. -1.
<mgrwt>
<rscale>  0 0.18200201E+04</rscale>
<asrwt>0</asrwt>
<pdfrwt beam="1">  1        2 0.17585265E+00 0.18200201E+04</pdfrwt>
<pdfrwt beam="2">  1       -2 0.11145941E+00 0.18200201E+04</pdfrwt>
<totfact> 0.12298376E+01</totfact>
</mgrwt>
</event>
<event>
 6    1  0.1014650E-006  0.4269437E+04  0.7818608E-02  0.7952294E-01
         -2   -1    0    0    0  501 -0.00000000000E+00  0.00000000000E+00  0.19640652645E+04  0.19640652645E+04  0.00000000000E+00 0.  1.
          2   -1    0    0  501    0  0.00000000000E+00 -0.00000000000E+00 -0.23201999339E+04  0.23201999339E+04  0.00000000000E+00 0. -1.
         23    2    1    2    0    0  0.13287589564E+04 -0.50000671026E+03 -0.17772237758E+04  0.22755090352E+04  0.61724753939E+02 0.  0.
         13    1    3    3    0    0  0.12558262430E+04 -0.48425283232E+03 -0.16699781074E+04  0.21448606569E+04  0.00000000000E+00 0.  1.
        -13    1    3    3    0    0  0.72932713421E+02 -0.15753877942E+02 -0.10724566845E+03  0.13064837833E+03  0.00000000000E+00 0. -1.
         22    1    1    2    0    0 -0.13287589564E+04  0.50000671026E+03  0.14210891065E+04  0.20087561632E+04  0.00000000000E+00 0.  1.
<mgrwt>
<rscale>  0 0.42694375E+04</rscale>
<asrwt>0</asrwt>
<pdfrwt beam="1">  1        2 0.35695383E+00 0.42694375E+04</pdfrwt>
<pdfrwt beam="2">  1       -2 0.30216389E+00 0.42694375E+04</pdfrwt>
<totfact> 0.10507713E-01</totfact>
</mgrwt>
</event>
<event>
 6    1  0.1014650E-006  0.8285800E+03  0.7818608E-02  0.9519546E-01
         -2   -1    0    0    0  501 -0.00000000000E+00  0.00000000000E+00  0.92579535102E+02  0.92579535102E+02  0.00000000000E+00 0.  1.
          2   -1    0    0  501    0  0.00000000000E+00 -0.00000000000E+00 -0.18539325764E+04  0.18539325764E+04  0.00000000000E+00 0. -1.
         23    2    1    2    0    0 -0.19223152910E+03  0.28010818419E+02 -0.17374349501E+04  0.17507836215E+04  0.93944220117E+02 0.  0.
         11    1    3    3    0    0 -0.11609347535E+03 -0.29802313845E+02 -0.91835246998E+03  0.92614098929E+03  0.00000000000E+00 0. -1.
        -11    1    3    3    0    0 -0.76138053746E+02  0.57813132264E+02 -0.81908248017E+03  0.82464263218E+03  0.00000000000E+00 0.  1.
         22    1    1    2    0    0  0.19223152910E+03 -0.28010818419E+02 -0.23918091161E+02  0.19572849004E+03  0.00000000000E+00 0.  1.
<mgrwt>
<rscale>  0 0.82858003E+03</rscale>
<asrwt>0</asrwt>
<pdfrwt beam="1">  1        2 0.28522040E+00 0.82858003E+03</pdfrwt>
<pdfrwt beam="2">  1       -2 0.14243005E-01 0.82858003E+03</pdfrwt>
<totfact> 0.31237837E+02</totfact>
</mgrwt>
</event>
<event>
 6    1  0.1014650E-006  0.1364216E+04  0.7818608E-02  0.8980136E-01
          2   -1    0    0  501    0  0.00000000000E+00  0.00000000000E+00  0.27630296135E+04  0.27630296135E+04  0.00000000000E+00 0. -1.
         -2   -1    0    0    0  501 -0.00000000000E+00 -0.00000000000E+00 -0.16839165745E+03  0.16839165745E+03  0.00000000000E+00 0.  1.
         23    2    1    2    0    0  0.59754684264E+03  0.21767984126E+03  0.79031690350E+03  0.10183030825E+04  0.88846031754E+02 0.  0.
         13    1    3    3    0    0  0.23722356419E+03  0.69308774186E+02  0.24439484218E+03  0.34757382593E+03  0.00000000000E+00 0.  1.
        -13    1    3    3    0    0  0.36032327845E+03  0.14837106708E+03  0.54592206132E+03  0.67072925654E+03  0.00000000000E+00 0. -1.
         22    1    1    2    0    0 -0.59754684264E+03 -0.21767984126E+03  0.18043210525E+04  0.19131181885E+04  0.00000000000E+00 0. -1.
<mgrwt>
<rscale>  0 0.13642157E+04</rscale>
<asrwt>0</asrwt>
<pdfrwt beam="1">  1        2 0.42508145E+00 0.13642157E+04</pdfrwt>
<pdfrwt beam="2">  1       -2 0.25906411E-01 0.13642157E+04</pdfrwt>
<totfact> 0.32157181E+01</totfact>
</mgrwt>
</event>
<event>
 6    1  0.1014650E-006  0.2935457E+04  0.7818608E-02  0.8262405E-01
         -1   -1    0    0    0  501 -0.00000000000E+00  0.00000000000E+00  0.10397627855E+04  0.10397627855E+04  0.00000000000E+00 0.  1.
          1   -1    0    0  501    0  0.00000000000E+00 -0.00000000000E+00 -0.20718452255E+04  0.20718452255E+04  0.00000000000E+00 0. -1.
         23    2    1    2    0    0  0.71641001665E+03  0.84143441171E+02 -0.18697722583E+04  0.20061453647E+04  0.90815722269E+02 0.  0.
         11    1    3    3    0    0  0.13972619240E+03  0.51098887560E+02 -0.41740320551E+03  0.44312519802E+03  0.00000000000E+00 0. -1.
        -11    1    3    3    0    0  0.57668382425E+03  0.33044553611E+02 -0.14523690528E+04  0.15630201666E+04  0.00000000000E+00 0.  1.
         22    1    1    2    0    0 -0.71641001665E+03 -0.84143441171E+02  0.83768981832E+03  0.11054626463E+04  0.00000000000E+00 0.  1.
<mgrwt>
<rscale>  0 0.29354574E+04</rscale>
<asrwt>0</asrwt>
<pdfrwt beam="1">  1        1 0.31874542E+00 0.29354574E+04</pdfrwt>
<pdfrwt beam="2">  1       -1 0.15996351E+00 0.29354574E+04</pdfrwt>
<totfact> 0.66642334E-01</totfact>
</mgrwt>
</event>
<event>
 6    1  0.1014650E-006  0.2247203E+04  0.7818608E-02  0.8499034E-01
         -2   -1    0    0    0  501 -0.00000000000E+00  0.00000000000E+00  0.37724053674E+03  0.37724053674E+03  0.00000000000E+00 0.  1.
          2   -1    0    0  501    0  0.00000000000E+00 -0.00000000000E+00 -0.33466202169E+04  0.33466202169E+04  0.00000000000E+00 0. -1.
         23    2    1    2    0    0 -0.97318220905E+03  0.48311068073E+03 -0.10252255905E+04  0.14967068150E+04  0.92543162409E+02 0.  0.
         13    1    3    3    0    0 -0.53910007595E+03  0.31305055017E+03 -0.61526543838E+03  0.87588874780E+03  0.00000000000E+00 0.  1.
        -13    1    3    3    0    0 -0.43408213310E+03  0.17006013057E+03 -0.40996015207E+03  0.62081806721E+03  0.00000000000E+00 0. -1.
         22    1    1    2    0    0  0.97318220905E+03 -0.48311068073E+03 -0.19441540897E+04  0.22271539386E+04  0.00000000000E+00 0.  1.
<mgrwt>
<rscale>  0 0.22472034E+04</rscale>
<asrwt>0</asrwt>
<pdfrwt beam="1">  1        2 0.51486463E+00 0.22472034E+04</pdfrwt>
<pdfrwt beam="2">  1       -2 0.58037008E-01 0.22472034E+04</pdfrwt>
<totfact> 0.26278952E+00</totfact>
</mgrwt>
</event>
<event>
 6    1  0.1014650E-006  0.2595582E+04  0.7818608E-02  0.8369704E-01
         -1   -1    0    0    0  501 -0.00000000000E+00  0.00000000000E+00  0.40591522989E+03  0.40591522989E+03  0.00000000000E+00 0.  1.
          1   -1    0    0  501    0  0.00000000000E+00 -0.00000000000E+00 -0.41492926166E+04  0.41492926166E+04  0.00000000000E+00 0. -1.
         23    2    1    2    0    0  0.70571184961E+03 -0.64258371248E+03 -0.33439884721E+03  0.10151403718E+04  0.88001950533E+02 0.  0.
         13    1    3    3    0    0  0.40315962929E+03 -0.31322842202E+03 -0.15867248357E+03  0.53462761628E+03  0.00000000000E+00 0.  1.
        -13    1    3    3    0    0  0.30255222032E+03 -0.32935529045E+03 -0.17572636364E+03  0.48051275555E+03  0.00000000000E+00 0. -1.
         22    1    1    2    0    0 -0.70571184961E+03  0.64258371248E+03 -0.34089785395E+04  0.35400674746E+04  0.00000000000E+00 0. -1.
<mgrwt>
<rscale>  0 0.25955817E+04</rscale>
<asrwt>0</asrwt>
<pdfrwt beam="1">  1        1 0.63835269E+00 0.25955817E+04</pdfrwt>
<pdfrwt beam="2">  1       -1 0.62448499E-01 0.25955817E+04</pdfrwt>
<totfact> 0.16181968E-01</totfact>
</mgrwt>
</event>
<event>
 6    1  0.1014650E-006  0.2503864E+04  0.7818608E-02  0.8401610E-01
          2   -1    0    0  501    0  0.00000000000E+00  0.00000000000E+00  0.91455952793E+03  0.91455952793E+03  0.00000000000E+00 0. -1.
         -2   -1    0    0    0  501 -0.00000000000E+00 -0.00000000000E+00 -0.17137576036E+04  0.17137576036E+04  0.00000000000E+00 0.  1.
         23    2    1    2    0    0  0.77131631183E+01 -0.52638449800E+03 -0.15905125655E+04  0.16778863058E+04  0.91826474515E+02 0.  0.
         13    1    3    3    0    0 -0.38460436226E+02 -0.14697854426E+03 -0.47620850344E+03  0.49985641576E+03  0.00000000000E+00 0.  1.
        -13    1    3    3    0    0  0.46173599345E+02 -0.37940595374E+03 -0.11143040621E+04  0.11780298900E+04  0.00000000000E+00 0. -1.
         22    1    1    2    0    0 -0.77131631183E+01  0.52638449800E+03  0.79131448988E+03  0.95043082574E+03  0.00000000000E+00 0. -1.
<mgrwt>
<rscale>  0 0.25038637E+04</rscale>
<asrwt>0</asrwt>
<pdfrwt beam="1">  1        2 0.14070147E+00 0.25038637E+04</pdfrwt>
<pdfrwt beam="2">  1       -2 0.26365502E+00 0.25038637E+04</pdfrwt>
<totfact> 0.13543200E+00</totfact>
</mgrwt>
</event>
<event>
 6    1  0.1014650E-006  0.1167662E+04  0.7818608E-02  0.9141642E-01
          3   -1    0    0  501    0  0.00000000000E+00  0.00000000000E+00  0.52484341473E+03  0.52484341473E+03  0.00000000000E+00 0. -1.
         -3   -1    0    0    0  501 -0.00000000000E+00 -0.00000000000E+00 -0.64944846844E+03  0.64944846844E+03  0.00000000000E+00 0.  1.
         23    2    1    2    0    0 -0.29396112038E+03 -0.28292480434E+03  0.35237074358E+03  0.54662517512E+03  0.90412144846E+02 0.  0.
         13    1    3    3    0    0 -0.10089073513E+03 -0.13806879030E+03  0.10326731884E+03  0.19976503805E+03  0.00000000000E+00 0. -1.
        -13    1    3    3    0    0 -0.19307038525E+03 -0.14485601404E+03  0.24910342474E+03  0.34686013706E+03  0.00000000000E+00 0.  1.
         22    1    1    2    0    0  0.29396112038E+03  0.28292480434E+03 -0.47697579729E+03  0.62766670806E+03  0.00000000000E+00 0.  1.
<mgrwt>
<rscale>  0 0.11676622E+04</rscale>
<asrwt>0</asrwt>
<pdfrwt beam="1">  1        3 0.80745141E-01 0.11676622E+04</pdfrwt>
<pdfrwt beam="2">  1       -3 0.99915149E-01 0.11676622E+04</pdfrwt>
<totfact> 0.32346260E+00</totfact>
</mgrwt>
</event>
<event>
 6    1  0.1128555E-006  0.2537251E+04  0.7818608E-02  0.8389834E-01
         -1   -1    0    0    0  501 -0.00000000000E+00  0.00000000000E+00  0.82211101799E+03  0.82211101799E+03  0.00000000000E+00 0.  1.
          1   -1    0    0  501    0  0.00000000000E+00 -0.00000000000E+00 -0.19576553742E+04  0.19576553742E+04  0.00000000000E+00 0. -1.
         23    2    1    2    0    0 -0.76311532071E+03 -0.24330166712E+03 -0.16440444735E+04  0.18310235065E+04  0.90687136848E+02 0.  0.
         13    1    3    3    0    0 -0.49276691396E+03 -0.15326529021E+03 -0.95788876976E+03  0.10880534803E+04  0.00000000000E+00 0.  1.
        -13    1    3    3    0    0 -0.27034840675E+03 -0.90036376905E+02 -0.68615570369E+03  0.74297002625E+03  0.00000000000E+00 0. -1.
         22    1    1    2    0    0  0.76311532071E+03  0.24330166712E+03  0.50850011723E+03  0.94874288569E+03  0.00000000000E+00 0.  1.
<mgrwt>
<rscale>  0 0.25372505E+04</rscale>
<asrwt>0</asrwt>
<pdfrwt beam="1">  1        1 0.30117774E+00 0.25372505E+04</pdfrwt>
<pdfrwt beam="2">  1       -1 0.12647862E+00 0.25372505E+04</pdfrwt>
<totfact> 0.15319581E+00</totfact>
</mgrwt>
</event>
<event>
 6    1  0.1014650E-006  0.6738916E+03  0.7818608E-02  0.9762953E-01
         -2   -1    0    0    0  501 -0.00000000000E+00  0.00000000000E+00  0.14748695299E+03  0.14748695299E+03  0.00000000000E+00 0.  1.
          2   -1    0    0  501    0  0.00000000000E+00 -0.00000000000E+00 -0.76977970094E+03  0.76977970094E+03  0.00000000000E+00 0. -1.
         23    2    1    2    0    0 -0.91600995009E+01  0.33051156725E+03 -0.32899412232E+03  0.47528714388E+03  0.91317758962E+02 0.  0.
         11    1    3    3    0    0 -0.39797066054E+02  0.74545242620E+02 -0.68282469632E+02  0.10864297181E+03  0.00000000000E+00 0.  1.
        -11    1    3    3    0    0  0.30636966553E+02  0.25596632463E+03 -0.26071165269E+03  0.36664417207E+03  0.00000000000E+00 0. -1.
         22    1    1    2    0    0  0.91600995009E+01 -0.33051156725E+03 -0.29329862563E+03  0.44197951005E+03  0.00000000000E+00 0.  1.
<mgrwt>
<rscale>  0 0.67389157E+03</rscale>
<asrwt>0</asrwt>
<pdfrwt beam="1">  1        2 0.11842765E+00 0.67389157E+03</pdfrwt>
<pdfrwt beam="2">  1       -2 0.22690301E-01 0.67389157E+03</pdfrwt>
<totfact> 0.62218748E+02</totfact>
</mgrwt>
</event>
<event>
 6    1  0.1014650E-006  0.1128848E+04  0.7818608E-02  0.9177522E-01
         -2   -1    0    0    0  501 -0.00000000000E+00  0.00000000000E+00  0.11234455768E+03  0.11234455768E+03  0.00000000000E+00 0.  1.
          2   -1    0    0  501    0  0.00000000000E+00 -0.00000000000E+00 -0.28356919623E+04  0.28356919623E+04  0.00000000000E+00 0. -1.
         23    2    1    2    0    0  0.29844630392E+02  0.55238514745E+03 -0.11306190490E+04  0.12619749352E+04  0.90891417986E+02 0.  0.
         13    1    3    3    0    0 -0.61901026505E+01  0.25191622265E+03 -0.42315541341E+03  0.49250442080E+03  0.00000000000E+00 0. -1.
        -13    1    3    3    0    0  0.36034733043E+02  0.30046892480E+03 -0.70746363561E+03  0.76947051436E+03  0.00000000000E+00 0.  1.
         22    1    1    2    0    0 -0.29844630392E+02 -0.55238514745E+03 -0.15927283556E+04  0.16860615848E+04  0.00000000000E+00 0.  1.
<mgrwt>
<rscale>  0 0.11288482E+04</rscale>
<asrwt>0</asrwt>
<pdfrwt beam="1">  1        2 0.43626028E+00 0.11288482E+04</pdfrwt>
<pdfrwt beam="2">  1       -2 0.17283779E-01 0.11288482E+04</pdfrwt>
<totfact> 0.60939651E+01</totfact>
</mgrwt>
</event>
<event>
 6    1  0.1071023E-006  0.3642985E+04  0.7818608E-02  0.8080716E-01
         -2   -1    0    0    0  501 -0.00000000000E+00  0.00000000000E+00  0.20263324707E+04  0.20263324707E+04  0.00000000000E+00 0.  1.
          2   -1    0    0  501    0  0.00000000000E+00 -0.00000000000E+00 -0.16373599137E+04  0.16373599137E+04  0.00000000000E+00 0. -1.
         23    2    1    2    0    0 -0.13475025351E+04  0.10751748329E+04  0.78392282539E+03  0.18951478648E+04  0.72707839682E+02 0.  0.
         11    1    3    3    0    0 -0.55833751723E+03  0.48464141212E+03  0.31522345461E+03  0.80373124104E+03  0.00000000000E+00 0.  1.
        -11    1    3    3    0    0 -0.78916501784E+03  0.59053342078E+03  0.46869937078E+03  0.10914166238E+04  0.00000000000E+00 0. -1.
         22    1    1    2    0    0  0.13475025351E+04 -0.10751748329E+04 -0.39495026841E+03  0.17685445196E+04  0.00000000000E+00 0. -1.
<mgrwt>
<rscale>  0 0.36429853E+04</rscale>
<asrwt>0</asrwt>
<pdfrwt beam="1">  1        2 0.25190152E+00 0.36429853E+04</pdfrwt>
<pdfrwt beam="2">  1       -2 0.31174346E+00 0.36429853E+04</pdfrwt>
<totfact> 0.23235902E-01</totfact>
</mgrwt>
</event>
<event>
 6    1  0.1014650E-006  0.2836135E+04  0.7818608E-02  0.8292137E-01
          1   -1    0    0  501    0  0.00000000000E+00  0.00000000000E+00  0.87773944914E+03  0.87773944914E+03  0.00000000000E+00 0. -1.
         -1   -1    0    0    0  501 -0.00000000000E+00 -0.00000000000E+00 -0.22910161122E+04  0.22910161122E+04  0.00000000000E+00 0.  1.
         23    2    1    2    0    0  0.10815106723E+04 -0.76976165895E+03 -0.12600707333E+04  0.18324657714E+04  0.89186347195E+02 0.  0.
         11    1    3    3    0    0  0.48306217768E+03 -0.31427802836E+03 -0.49586808994E+03  0.76026634099E+03  0.00000000000E+00 0.  1.
        -11    1    3    3    0    0  0.59844849460E+03 -0.45548363058E+03 -0.76420264339E+03  0.10721994304E+04  0.00000000000E+00 0. -1.
         22    1    1    2    0    0 -0.10815106723E+04  0.76976165895E+03 -0.15320592976E+03  0.13362897900E+04  0.00000000000E+00 0. -1.
<mgrwt>
<rscale>  0 0.28361348E+04</rscale>
<asrwt>0</asrwt>
<pdfrwt beam="1">  1        1 0.13503684E+00 0.28361348E+04</pdfrwt>
<pdfrwt beam="2">  1       -1 0.35246401E+00 0.28361348E+04</pdfrwt>
<totfact> 0.24512368E-01</totfact>
</mgrwt>
</event>
<event>
 6    1  0.1014650E-006  0.1573156E+04  0.7818608E-02  0.8837211E-01
         -2   -1    0    0    0  501 -0.00000000000E+00  0.00000000000E+00  0.72819061671E+03  0.72819061671E+03  0.00000000000E+00 0.  1.
          2   -1    0    0  501    0  0.00000000000E+00 -0.00000000000E+00 -0.84964694134E+03  0.84964694134E+03  0.00000000000E+00 0. -1.
         23    2    1    2    0    0  0.70412050903E+03 -0.24848448530E+03 -0.30043059732E+03  0.81000813626E+03  0.91238184634E+02 0.  0.
         13    1    3    3    0    0  0.38388313641E+03 -0.90020774338E+02 -0.14095284832E+03  0.41873345661E+03  0.00000000000E+00 0. -1.
        -13    1    3    3    0    0  0.32023737262E+03 -0.15846371096E+03 -0.15947774899E+03  0.39127467965E+03  0.00000000000E+00 0.  1.
         22    1    1    2    0    0 -0.70412050903E+03  0.24848448530E+03  0.17897427269E+03  0.76782942178E+03  0.00000000000E+00 0. -1.
<mgrwt>
<rscale>  0 0.15731560E+04</rscale>
<asrwt>0</asrwt>
<pdfrwt beam="1">  1        2 0.13071491E+00 0.15731560E+04</pdfrwt>
<pdfrwt beam="2">  1       -2 0.11202933E+00 0.15731560E+04</pdfrwt>
<totfact> 0.19179918E+01</totfact>
</mgrwt>
</event>
<event>
 6    1  0.1014650E-006  0.1743642E+04  0.7818608E-02  0.8736858E-01
         -1   -1    0    0    0  501 -0.00000000000E+00  0.00000000000E+00  0.25314480108E+03  0.25314480108E+03  0.00000000000E+00 0.  1.
          1   -1    0    0  501    0  0.00000000000E+00 -0.00000000000E+00 -0.30025175461E+04  0.30025175461E+04  0.00000000000E+00 0. -1.
         23    2    1    2    0    0  0.30909010945E+03  0.80408243124E+03 -0.11584021110E+04  0.14464435074E+04  0.90653832254E+02 0.  0.
         13    1    3    3    0    0  0.17552361873E+03  0.47166281733E+03 -0.74971779181E+03  0.90296795145E+03  0.00000000000E+00 0. -1.
        -13    1    3    3    0    0  0.13356649072E+03  0.33241961390E+03 -0.40868431924E+03  0.54347555598E+03  0.00000000000E+00 0.  1.
         22    1    1    2    0    0 -0.30909010945E+03 -0.80408243124E+03 -0.15909706340E+04  0.18092188398E+04  0.00000000000E+00 0.  1.
<mgrwt>
<rscale>  0 0.17436418E+04</rscale>
<asrwt>0</asrwt>
<pdfrwt beam="1">  1        1 0.46192579E+00 0.17436418E+04</pdfrwt>
<pdfrwt beam="2">  1       -1 0.38945353E-01 0.17436418E+04</pdfrwt>
<totfact> 0.36226734E+00</totfact>
</mgrwt>
</event>
<event>
 6    1  0.1014650E-006  0.1460749E+04  0.7818608E-02  0.8910983E-01
          1   -1    0    0  501    0  0.00000000000E+00  0.00000000000E+00  0.31699203763E+03  0.31699203763E+03  0.00000000000E+00 0. -1.
         -1   -1    0    0    0  501 -0.00000000000E+00 -0.00000000000E+00 -0.16828390941E+04  0.16828390941E+04  0.00000000000E+00 0.  1.
         23    2    1    2    0    0  0.64388985187E+03  0.33012774409E+03 -0.79067540978E+03  0.10754930486E+04  0.89102330137E+02 0.  0.
         13    1    3    3    0    0  0.30793844536E+03  0.10935519116E+03 -0.33991224959E+03  0.47151350075E+03  0.00000000000E+00 0. -1.
        -13    1    3    3    0    0  0.33595140651E+03  0.22077255293E+03 -0.45076316018E+03  0.60397954787E+03  0.00000000000E+00 0.  1.
         22    1    1    2    0    0 -0.64388985187E+03 -0.33012774409E+03 -0.57517164671E+03  0.92433808314E+03  0.00000000000E+00 0.  1.
<mgrwt>
<rscale>  0 0.14607486E+04</rscale>
<asrwt>0</asrwt>
<pdfrwt beam="1">  1        1 0.48768006E-01 0.14607486E+04</pdfrwt>
<pdfrwt beam="2">  1       -1 0.25889832E+00 0.14607486E+04</pdfrwt>
<totfact> 0.48340087E+00</totfact>
</mgrwt>
</event>
<event>
 6    1  0.1014650E-006  0.4909309E+04  0.7818608E-02  0.7842651E-01
          1   -1    0    0  501    0  0.00000000000E+00  0.00000000000E+00  0.38554368295E+04  0.38554368295E+04  0.00000000000E+00 0. -1.
         -1   -1    0    0    0  501 -0.00000000000E+00 -0.00000000000E+00 -0.15628133161E+04  0.15628133161E+04  0.00000000000E+00 0.  1.
         23    2    1    2    0    0 -0.23941158251E+04 -0.53340255677E+03  0.12143582802E+04  0.27388911206E+04  0.10271156779E+03 0.  0.
         11    1    3    3    0    0 -0.12455545355E+04 -0.26634846358E+03  0.68648430001E+03  0.14469306477E+04  0.00000000000E+00 0.  1.
        -11    1    3    3    0    0 -0.11485612896E+04 -0.26705409319E+03  0.52787398020E+03  0.12919604729E+04  0.00000000000E+00 0. -1.
         22    1    1    2    0    0  0.23941158251E+04  0.53340255677E+03  0.10782652331E+04  0.26793590250E+04  0.00000000000E+00 0. -1.
<mgrwt>
<rscale>  0 0.49093087E+04</rscale>
<asrwt>0</asrwt>
<pdfrwt beam="1">  1        1 0.59314413E+00 0.49093087E+04</pdfrwt>
<pdfrwt beam="2">  1       -1 0.24043282E+00 0.49093087E+04</pdfrwt>
<totfact> 0.74747049E-03</totfact>
</mgrwt>
</event>
<event>
 6    1  0.1014650E-006  0.1974868E+04  0.7818608E-02  0.8618462E-01
         -2   -1    0    0    0  501 -0.00000000000E+00  0.00000000000E+00  0.14379029924E+04  0.14379029924E+04  0.00000000000E+00 0.  1.
          2   -1    0    0  501    0  0.00000000000E+00 -0.00000000000E+00 -0.67808847770E+03  0.67808847770E+03  0.00000000000E+00 0. -1.
         23    2    1    2    0    0 -0.56484153707E+03  0.78414108530E+03  0.17456269254E+03  0.98619374526E+03  0.90458641952E+02 0.  0.
         13    1    3    3    0    0 -0.40389749863E+03  0.62523032314E+03  0.12780913761E+03  0.75523593799E+03  0.00000000000E+00 0. -1.
        -13    1    3    3    0    0 -0.16094403844E+03  0.15891076216E+03  0.46753554930E+02  0.23095780727E+03  0.00000000000E+00 0.  1.
         22    1    1    2    0    0  0.56484153707E+03 -0.78414108530E+03  0.58525182213E+03  0.11297977248E+04  0.00000000000E+00 0.  1.
<mgrwt>
<rscale>  0 0.19748675E+04</rscale>
<asrwt>0</asrwt>
<pdfrwt beam="1">  1        2 0.10432130E+00 0.19748675E+04</pdfrwt>
<pdfrwt beam="2">  1       -2 0.22121585E+00 0.19748675E+04</pdfrwt>
<totfact> 0.38532486E+00</totfact>
</mgrwt>
</event>
<event>
 6    1  0.1014650E-006  0.1438434E+04  0.7818608E-02  0.8926458E-01
         -1   -1    0    0    0  501 -0.00000000000E+00  0.00000000000E+00  0.15393325551E+03  0.15393325551E+03  0.00000000000E+00 0.  1.
          1   -1    0    0  501    0  0.00000000000E+00 -0.00000000000E+00 -0.33603730255E+04  0.33603730255E+04  0.00000000000E+00 0. -1.
         23    2    1    2    0    0  0.51551802623E+03 -0.22201773637E+03 -0.51996156593E+03  0.76981801331E+03  0.84906024241E+02 0.  0.
         11    1    3    3    0    0  0.25640052944E+03 -0.69521960576E+02 -0.21741329607E+03  0.34328279276E+03  0.00000000000E+00 0.  1.
        -11    1    3    3    0    0  0.25911749679E+03 -0.15249577580E+03 -0.30254826985E+03  0.42653522055E+03  0.00000000000E+00 0. -1.
         22    1    1    2    0    0 -0.51551802623E+03  0.22201773637E+03 -0.26864782040E+04  0.27444882677E+04  0.00000000000E+00 0. -1.
<mgrwt>
<rscale>  0 0.14384341E+04</rscale>
<asrwt>0</asrwt>
<pdfrwt beam="1">  1        1 0.51698050E+00 0.14384341E+04</pdfrwt>
<pdfrwt beam="2">  1       -1 0.23682038E-01 0.14384341E+04</pdfrwt>
<totfact> 0.48515880E+00</totfact>
</mgrwt>
</event>
<event>
 6    1  0.1014650E-006  0.4099336E+04  0.7818608E-02  0.7984802E-01
          2   -1    0    0  501    0  0.00000000000E+00  0.00000000000E+00  0.35424640054E+04  0.35424640054E+04  0.00000000000E+00 0. -1.
         -2   -1    0    0    0  501 -0.00000000000E+00 -0.00000000000E+00 -0.11859367223E+04  0.11859367223E+04  0.00000000000E+00 0.  1.
         23    2    1    2    0    0  0.13329084508E+04 -0.17054406288E+03 -0.60481032446E+03  0.14764396822E+04  0.91369529175E+02 0.  0.
         13    1    3    3    0    0  0.66523845411E+03 -0.55666849682E+02 -0.33868395985E+03  0.74856384072E+03  0.00000000000E+00 0. -1.
        -13    1    3    3    0    0  0.66766999674E+03 -0.11487721319E+03 -0.26612636461E+03  0.72787584148E+03  0.00000000000E+00 0.  1.
         22    1    1    2    0    0 -0.13329084508E+04  0.17054406288E+03  0.29613376075E+04  0.32519610455E+04  0.00000000000E+00 0. -1.
<mgrwt>
<rscale>  0 0.40993356E+04</rscale>
<asrwt>0</asrwt>
<pdfrwt beam="1">  1        2 0.54499446E+00 0.40993356E+04</pdfrwt>
<pdfrwt beam="2">  1       -2 0.18245181E+00 0.40993356E+04</pdfrwt>
<totfact> 0.10337436E-01</totfact>
</mgrwt>
</event>
<event>
 6    1  0.1014650E-006  0.3733175E+04  0.7818608E-02  0.8060649E-01
         -2   -1    0    0    0  501 -0.00000000000E+00  0.00000000000E+00  0.12715498413E+04  0.12715498413E+04  0.00000000000E+00 0.  1.
          2   -1    0    0  501    0  0.00000000000E+00 -0.00000000000E+00 -0.27400804801E+04  0.27400804801E+04  0.00000000000E+00 0. -1.
         23    2    1    2    0    0 -0.99950669538E+03 -0.12343960123E+04 -0.17862362998E+04  0.23918513129E+04  0.86979508433E+02 0.  0.
         13    1    3    3    0    0 -0.55614305996E+03 -0.74826551136E+03 -0.10193608042E+04  0.13814097248E+04  0.00000000000E+00 0. -1.
        -13    1    3    3    0    0 -0.44336363542E+03 -0.48613050093E+03 -0.76687549565E+03  0.10104415881E+04  0.00000000000E+00 0.  1.
         22    1    1    2    0    0  0.99950669538E+03  0.12343960123E+04  0.31770566108E+03  0.16197790085E+04  0.00000000000E+00 0.  1.
<mgrwt>
<rscale>  0 0.37331750E+04</rscale>
<asrwt>0</asrwt>
<pdfrwt beam="1">  1        2 0.42155083E+00 0.37331750E+04</pdfrwt>
<pdfrwt beam="2">  1       -2 0.19562306E+00 0.37331750E+04</pdfrwt>
<totfact> 0.28792072E-01</totfact>
</mgrwt>
</event>
<event>
 6    1  0.1014650E-006  0.1884523E+04  0.7818608E-02  0.8662599E-01
          2   -1    0    0  501    0  0.00000000000E+00  0.00000000000E+00  0.22436922516E+04  0.22436922516E+04  0.00000000000E+00 0. -1.
         -2   -1    0    0    0  501 -0.00000000000E+00 -0.00000000000E+00 -0.39571246644E+03  0.39571246644E+03  0.00000000000E+00 0.  1.
         23    2    1    2    0    0 -0.54994115536E+03 -0.49603710962E+03  0.11502963331E+03  0.75483465639E+03  0.89752178100E+02 0.  0.
         13    1    3    3    0    0 -0.40698586949E+03 -0.32647100036E+03  0.10874523592E+03  0.53295997821E+03  0.00000000000E+00 0.  1.
        -13    1    3    3    0    0 -0.14295528587E+03 -0.16956610926E+03  0.62843973953E+01  0.22187467818E+03  0.00000000000E+00 0. -1.
         22    1    1    2    0    0  0.54994115536E+03  0.49603710962E+03  0.17329501519E+04  0.18845700617E+04  0.00000000000E+00 0. -1.
<mgrwt>
<rscale>  0 0.18845233E+04</rscale>
<asrwt>0</asrwt>
<pdfrwt beam="1">  1        2 0.34518342E+00 0.18845233E+04</pdfrwt>
<pdfrwt beam="2">  1       -2 0.60878842E-01 0.18845233E+04</pdfrwt>
<totfact> 0.11492271E+01</totfact>
</mgrwt>
</event>
<event>
 6    1  0.1014650E-006  0.2514208E+04  0.7818608E-02  0.8397941E-01
          2   -1    0    0  501    0  0.00000000000E+00  0.00000000000E+00  0.12288060129E+04  0.12288060129E+04  0.00000000000E+00 0. -1.
         -2   -1    0    0    0  501 -0.00000000000E+00 -0.00000000000E+00 -0.12860541479E+04  0.12860541479E+04  0.00000000000E+00 0.  1.
         23    2    1    2    0    0  0.26690462078E+02 -0.10470696548E+04 -0.72103115944E+03  0.12748298602E+04  0.90763411352E+02 0.  0.
         13    1    3    3    0    0 -0.17506735476E+02 -0.80948209776E+03 -0.55553802033E+03  0.98193189398E+03  0.00000000000E+00 0.  1.
        -13    1    3    3    0    0  0.44197197555E+02 -0.23758755703E+03 -0.16549313911E+03  0.29289796622E+03  0.00000000000E+00 0. -1.
         22    1    1    2    0    0 -0.26690462078E+02  0.10470696548E+04  0.66378302450E+03  0.12400303006E+04  0.00000000000E+00 0. -1.
<mgrwt>
<rscale>  0 0.25142085E+04</rscale>
<asrwt>0</asrwt>
<pdfrwt beam="1">  1        2 0.18904708E+00 0.25142085E+04</pdfrwt>
<pdfrwt beam="2">  1       -2 0.19785449E+00 0.25142085E+04</pdfrwt>
<totfact> 0.22284761E+00</totfact>
</mgrwt>
</event>
<event>
 6    1  0.1014650E-006  0.2035240E+04  0.7818608E-02  0.8590320E-01
          2   -1    0    0  501    0  0.00000000000E+00  0.00000000000E+00  0.97606470256E+03  0.97606470256E+03  0.00000000000E+00 0. -1.
         -2   -1    0    0    0  501 -0.00000000000E+00 -0.00000000000E+00 -0.10609447220E+04  0.10609447220E+04  0.00000000000E+00 0.  1.
         23    2    1    2    0    0  0.71253216281E+03 -0.66787496335E+03 -0.32140354779E+03  0.10321699204E+04  0.91189112782E+02 0.  0.
         13    1    3    3    0    0  0.46599265065E+03 -0.49211263537E+03 -0.20951773107E+03  0.70938119229E+03  0.00000000000E+00 0.  1.
        -13    1    3    3    0    0  0.24653951217E+03 -0.17576232799E+03 -0.11188581673E+03  0.32278872809E+03  0.00000000000E+00 0. -1.
         22    1    1    2    0    0 -0.71253216281E+03  0.66787496335E+03  0.23652352834E+03  0.10048395042E+04  0.00000000000E+00 0. -1.
<mgrwt>
<rscale>  0 0.20352402E+04</rscale>
<asrwt>0</asrwt>
<pdfrwt beam="1">  1        2 0.15016380E+00 0.20352402E+04</pdfrwt>
<pdfrwt beam="2">  1       -2 0.16322226E+00 0.20352402E+04</pdfrwt>
<totfact> 0.57668592E+00</totfact>
</mgrwt>
</event>
<event>
 6    1  0.1014650E-006  0.2611766E+04  0.7818608E-02  0.8364215E-01
          2   -1    0    0  501    0  0.00000000000E+00  0.00000000000E+00  0.72581369455E+03  0.72581369455E+03  0.00000000000E+00 0. -1.
         -2   -1    0    0    0  501 -0.00000000000E+00 -0.00000000000E+00 -0.23495430979E+04  0.23495430979E+04  0.00000000000E+00 0.  1.
         23    2    1    2    0    0  0.23686786915E+03 -0.82772434340E+03  0.34086889403E+03  0.93039048825E+03  0.90558719133E+02 0.  0.
         13    1    3    3    0    0  0.12404541636E+03 -0.28393523928E+03  0.10726769145E+03  0.32789151111E+03  0.00000000000E+00 0. -1.
        -13    1    3    3    0    0  0.11282245280E+03 -0.54378910412E+03  0.23360120258E+03  0.60249897715E+03  0.00000000000E+00 0.  1.
         22    1    1    2    0    0 -0.23686786915E+03  0.82772434340E+03 -0.19645982974E+04  0.21449663042E+04  0.00000000000E+00 0.  1.
<mgrwt>
<rscale>  0 0.26117661E+04</rscale>
<asrwt>0</asrwt>
<pdfrwt beam="1">  1        2 0.11166365E+00 0.26117661E+04</pdfrwt>
<pdfrwt beam="2">  1       -2 0.36146816E+00 0.26117661E+04</pdfrwt>
<totfact> 0.45513216E-01</totfact>
</mgrwt>
</event>
<event>
 6    1  0.1014650E-006  0.3494851E+03  0.7818608E-02  0.1062827E+00
         -1   -1    0    0    0  501 -0.00000000000E+00  0.00000000000E+00  0.53165097946E+02  0.53165097946E+02  0.00000000000E+00 0.  1.
          1   -1    0    0  501    0  0.00000000000E+00 -0.00000000000E+00 -0.57434226043E+03  0.57434226043E+03  0.00000000000E+00 0. -1.
         23    2    1    2    0    0 -0.15328218555E+03 -0.54666107195E+02 -0.27071122902E+03  0.32881521668E+03  0.91384164494E+02 0.  0.
         13    1    3    3    0    0 -0.86827781525E+02 -0.69262087431E+02 -0.21029594588E+03  0.23782490461E+03  0.00000000000E+00 0. -1.
        -13    1    3    3    0    0 -0.66454404030E+02  0.14595980236E+02 -0.60415283139E+02  0.90990312071E+02  0.00000000000E+00 0.  1.
         22    1    1    2    0    0  0.15328218555E+03  0.54666107195E+02 -0.25046593347E+03  0.29869214170E+03  0.00000000000E+00 0.  1.
<mgrwt>
<rscale>  0 0.34948512E+03</rscale>
<asrwt>0</asrwt>
<pdfrwt beam="1">  1        1 0.88360349E-01 0.34948512E+03</pdfrwt>
<pdfrwt beam="2">  1       -1 0.81792457E-02 0.34948512E+03</pdfrwt>
<totfact> 0.31197434E+03</totfact>
</mgrwt>
</event>
<event>
 6    1  0.1014650E-006  0.2075990E+04  0.7818608E-02  0.8571894E-01
          2   -1    0    0  501    0  0.00000000000E+00  0.00000000000E+00  0.10493214458E+04  0.10493214458E+04  0.00000000000E+00 0. -1.
         -2   -1    0    0    0  501 -0.00000000000E+00 -0.00000000000E+00 -0.10267911961E+04  0.10267911961E+04  0.00000000000E+00 0.  1.
         23    2    1    2    0    0 -0.45701535066E+03  0.18970732948E+03  0.92157771577E+03  0.10498873996E+04  0.90034237607E+02 0.  0.
         11    1    3    3    0    0 -0.37274054957E+03  0.11711209521E+03  0.74400669237E+03  0.84035511448E+03  0.00000000000E+00 0.  1.
        -11    1    3    3    0    0 -0.84274801093E+02  0.72595234276E+02  0.17757102340E+03  0.20953228508E+03  0.00000000000E+00 0. -1.
         22    1    1    2    0    0  0.45701535066E+03 -0.18970732948E+03 -0.89904746608E+03  0.10262252423E+04  0.00000000000E+00 0.  1.
<mgrwt>
<rscale>  0 0.20759904E+04</rscale>
<asrwt>0</asrwt>
<pdfrwt beam="1">  1        2 0.16143407E+00 0.20759904E+04</pdfrwt>
<pdfrwt beam="2">  1       -2 0.15796788E+00 0.20759904E+04</pdfrwt>
<totfact> 0.56421009E+00</totfact>
</mgrwt>
</event>
<event>
 6    1  0.1014650E-006  0.3200490E+04  0.7818608E-02  0.8188688E-01
          2   -1    0    0  501    0  0.00000000000E+00  0.00000000000E+00  0.38028119869E+04  0.38028119869E+04  0.00000000000E+00 0. -1.
         -2   -1    0    0    0  501 -0.00000000000E+00 -0.00000000000E+00 -0.67339227950E+03  0.67339227950E+03  0.00000000000E+00 0.  1.
         23    2    1    2    0    0 -0.37851862413E+03 -0.71763435251E+03 -0.36006534015E+03  0.89363796417E+03  0.10327801859E+03 0.  0.
         13    1    3    3    0    0 -0.34394153384E+03 -0.57948119637E+03 -0.27549125141E+03  0.72800389096E+03  0.00000000000E+00 0. -1.
        -13    1    3    3    0    0 -0.34577090288E+02 -0.13815315613E+03 -0.84574088744E+02  0.16563407321E+03  0.00000000000E+00 0.  1.
         22    1    1    2    0    0  0.37851862413E+03  0.71763435251E+03  0.34894850475E+04  0.35825663022E+04  0.00000000000E+00 0. -1.
<mgrwt>
<rscale>  0 0.32004901E+04</rscale>
<asrwt>0</asrwt>
<pdfrwt beam="1">  1        2 0.58504799E+00 0.32004901E+04</pdfrwt>
<pdfrwt beam="2">  1       -2 0.10359881E+00 0.32004901E+04</pdfrwt>
<totfact> 0.31191984E-01</totfact>
</mgrwt>
</event>
<event>
 6    1  0.1014650E-006  0.2384523E+04  0.7818608E-02  0.8445321E-01
          2   -1    0    0  501    0  0.00000000000E+00  0.00000000000E+00  0.19119495949E+04  0.19119495949E+04  0.00000000000E+00 0. -1.
         -2   -1    0    0    0  501 -0.00000000000E+00 -0.00000000000E+00 -0.74347540161E+03  0.74347540161E+03  0.00000000000E+00 0.  1.
         23    2    1    2    0    0  0.75032556463E+03  0.75276243645E+03 -0.12239711845E+02  0.10668013581E+04  0.90970261361E+02 0.  0.
         11    1    3    3    0    0  0.32244322068E+03  0.26848533738E+03  0.16793421894E+02  0.41992383354E+03  0.00000000000E+00 0. -1.
        -11    1    3    3    0    0  0.42788234395E+03  0.48427709907E+03 -0.29033133739E+02  0.64687752458E+03  0.00000000000E+00 0.  1.
         22    1    1    2    0    0 -0.75032556463E+03 -0.75276243645E+03  0.11807139051E+04  0.15886236384E+04  0.00000000000E+00 0. -1.
<mgrwt>
<rscale>  0 0.23845230E+04</rscale>
<asrwt>0</asrwt>
<pdfrwt beam="1">  1        2 0.29414609E+00 0.23845230E+04</pdfrwt>
<pdfrwt beam="2">  1       -2 0.11438083E+00 0.23845230E+04</pdfrwt>
<totfact> 0.40230319E+00</totfact>
</mgrwt>
</event>
<event>
 6    1  0.1014650E-006  0.2558197E+04  0.7818608E-02  0.8382541E-01
         -2   -1    0    0    0  501 -0.00000000000E+00  0.00000000000E+00  0.69960836989E+03  0.69960836989E+03  0.00000000000E+00 0.  1.
          2   -1    0    0  501    0  0.00000000000E+00 -0.00000000000E+00 -0.23385839872E+04  0.23385839872E+04  0.00000000000E+00 0. -1.
         23    2    1    2    0    0 -0.38720411596E+03 -0.54906983868E+03 -0.21108797409E+04  0.22171575119E+04  0.92571251456E+02 0.  0.
         11    1    3    3    0    0 -0.23986920731E+03 -0.27136782236E+03 -0.10522747343E+04  0.11128611091E+04  0.00000000000E+00 0. -1.
        -11    1    3    3    0    0 -0.14733490865E+03 -0.27770201632E+03 -0.10586050066E+04  0.11042964028E+04  0.00000000000E+00 0.  1.
         22    1    1    2    0    0  0.38720411596E+03  0.54906983868E+03  0.47190412363E+03  0.82103484522E+03  0.00000000000E+00 0.  1.
<mgrwt>
<rscale>  0 0.25581970E+04</rscale>
<asrwt>0</asrwt>
<pdfrwt beam="1">  1        2 0.35978215E+00 0.25581970E+04</pdfrwt>
<pdfrwt beam="2">  1       -2 0.10763206E+00 0.25581970E+04</pdfrwt>
<totfact> 0.26490397E+00</totfact>
</mgrwt>
</event>
<event>
 6    1  0.1014650E-006  0.2617270E+04  0.7818608E-02  0.8362359E-01
         -1   -1    0    0    0  501 -0.00000000000E+00  0.00000000000E+00  0.92999375321E+03  0.92999375321E+03  0.00000000000E+00 0.  1.
          1   -1    0    0  501    0  0.00000000000E+00 -0.00000000000E+00 -0.18414372103E+04  0.18414372103E+04  0.00000000000E+00 0. -1.
         23    2    1    2    0    0  0.36880320672E+03  0.84919013869E+03 -0.14333091707E+04  0.17086593417E+04  0.89453173790E+02 0.  0.
         13    1    3    3    0    0  0.94710959415E+02  0.14606343744E+03 -0.30641733901E+03  0.35241492482E+03  0.00000000000E+00 0.  1.
        -13    1    3    3    0    0  0.27409224730E+03  0.70312670125E+03 -0.11268918317E+04  0.13562444169E+04  0.00000000000E+00 0. -1.
         22    1    1    2    0    0 -0.36880320672E+03 -0.84919013869E+03  0.52186571364E+03  0.10627716218E+04  0.00000000000E+00 0.  1.
<mgrwt>
<rscale>  0 0.26172696E+04</rscale>
<asrwt>0</asrwt>
<pdfrwt beam="1">  1        1 0.28329803E+00 0.26172696E+04</pdfrwt>
<pdfrwt beam="2">  1       -1 0.14307596E+00 0.26172696E+04</pdfrwt>
<totfact> 0.13291326E+00</totfact>
</mgrwt>
</event>
<event>
 6    1  0.1014650E-006  0.3461328E+04  0.7818608E-02  0.8123016E-01
          1   -1    0    0  501    0  0.00000000000E+00  0.00000000000E+00  0.17632676581E+04  0.17632676581E+04  0.00000000000E+00 0. -1.
         -1   -1    0    0    0  501 -0.00000000000E+00 -0.00000000000E+00 -0.16986633519E+04  0.16986633519E+04  0.00000000000E+00 0.  1.
         23    2    1    2    0    0 -0.15016416012E+04 -0.84765247615E+03  0.16493513534E+03  0.17346474508E+04  0.91410945953E+02 0.  0.
         13    1    3    3    0    0 -0.51974622695E+03 -0.24577413551E+03  0.66643162783E+02  0.57877662122E+03  0.00000000000E+00 0.  1.
        -13    1    3    3    0    0 -0.98189537420E+03 -0.60187834064E+03  0.98291972558E+02  0.11558708296E+04  0.00000000000E+00 0. -1.
         22    1    1    2    0    0  0.15016416012E+04  0.84765247615E+03 -0.10033082914E+03  0.17272835592E+04  0.00000000000E+00 0.  1.
<mgrwt>
<rscale>  0 0.34613282E+04</rscale>
<asrwt>0</asrwt>
<pdfrwt beam="1">  1        1 0.27127195E+00 0.34613282E+04</pdfrwt>
<pdfrwt beam="2">  1       -1 0.26133282E+00 0.34613282E+04</pdfrwt>
<totfact> 0.20774835E-01</totfact>
</mgrwt>
</event>
<event>
 6    1  0.1014650E-006  0.3355880E+04  0.7818608E-02  0.8148821E-01
          2   -1    0    0  501    0  0.00000000000E+00  0.00000000000E+00  0.25310850885E+04  0.25310850885E+04  0.00000000000E+00 0. -1.
         -2   -1    0    0    0  501 -0.00000000000E+00 -0.00000000000E+00 -0.11123616948E+04  0.11123616948E+04  0.00000000000E+00 0.  1.
         23    2    1    2    0    0 -0.10170018313E+04 -0.19951972006E+03  0.21408582682E+04  0.23802842361E+04  0.91531831672E+02 0.  0.
         11    1    3    3    0    0 -0.36741033519E+03 -0.11062759512E+03  0.73877483886E+03  0.83247647518E+03  0.00000000000E+00 0. -1.
        -11    1    3    3    0    0 -0.64959149611E+03 -0.88892124945E+02  0.14020834294E+04  0.15478077609E+04  0.00000000000E+00 0.  1.
         22    1    1    2    0    0  0.10170018313E+04  0.19951972006E+03 -0.72213487459E+03  0.12631625472E+04  0.00000000000E+00 0.  1.
<mgrwt>
<rscale>  0 0.33558797E+04</rscale>
<asrwt>0</asrwt>
<pdfrwt beam="1">  1        2 0.38939771E+00 0.33558797E+04</pdfrwt>
<pdfrwt beam="2">  1       -2 0.17113257E+00 0.33558797E+04</pdfrwt>
<totfact> 0.58075803E-01</totfact>
</mgrwt>
</event>
<event>
 6    1  0.1014650E-006  0.2297548E+04  0.7818608E-02  0.8478889E-01
         -1   -1    0    0    0  501 -0.00000000000E+00  0.00000000000E+00  0.23850082450E+04  0.23850082450E+04  0.00000000000E+00 0.  1.
          1   -1    0    0  501    0  0.00000000000E+00 -0.00000000000E+00 -0.55332367428E+03  0.55332367428E+03  0.00000000000E+00 0. -1.
         23    2    1    2    0    0  0.12545609025E+03 -0.11307953410E+04  0.11026210338E+04  0.15870469846E+04  0.92236940545E+02 0.  0.
         13    1    3    3    0    0  0.10896736058E+03 -0.79046065076E+03  0.82245294752E+03  0.11459191843E+04  0.00000000000E+00 0. -1.
        -13    1    3    3    0    0  0.16488729671E+02 -0.34033469025E+03  0.28016808632E+03  0.44112780029E+03  0.00000000000E+00 0.  1.
         22    1    1    2    0    0 -0.12545609025E+03  0.11307953410E+04  0.72906353684E+03  0.13512849346E+04  0.00000000000E+00 0. -1.
<mgrwt>
<rscale>  0 0.22975478E+04</rscale>
<asrwt>0</asrwt>
<pdfrwt beam="1">  1        1 0.85126720E-01 0.22975478E+04</pdfrwt>
<pdfrwt beam="2">  1       -1 0.36692434E+00 0.22975478E+04</pdfrwt>
<totfact> 0.41694841E-01</totfact>
</mgrwt>
</event>
<event>
 6    1  0.1014650E-006  0.2399500E+04  0.7818608E-02  0.8439691E-01
         -1   -1    0    0    0  501 -0.00000000000E+00  0.00000000000E+00  0.75488240754E+03  0.75488240754E+03  0.00000000000E+00 0.  1.
          1   -1    0    0  501    0  0.00000000000E+00 -0.00000000000E+00 -0.19067877544E+04  0.19067877544E+04  0.00000000000E+00 0. -1.
         23    2    1    2    0    0 -0.37622621141E+03 -0.11368555635E+04 -0.53054652022E+03  0.13125691554E+04  0.85857108898E+02 0.  0.
         11    1    3    3    0    0 -0.11274528835E+03 -0.23086294251E+03 -0.12104068646E+03  0.28400712323E+03  0.00000000000E+00 0. -1.
        -11    1    3    3    0    0 -0.26348092306E+03 -0.90599262099E+03 -0.40950583376E+03  0.10285620322E+04  0.00000000000E+00 0.  1.
         22    1    1    2    0    0  0.37622621141E+03  0.11368555635E+04 -0.62135882661E+03  0.13491010065E+04  0.00000000000E+00 0.  1.
<mgrwt>
<rscale>  0 0.23995004E+04</rscale>
<asrwt>0</asrwt>
<pdfrwt beam="1">  1        1 0.29335196E+00 0.23995004E+04</pdfrwt>
<pdfrwt beam="2">  1       -1 0.11613576E+00 0.23995004E+04</pdfrwt>
<totfact> 0.20706744E+00</totfact>
</mgrwt>
</event>
<event>
 6    1  0.1014650E-006  0.1279799E+04  0.7818608E-02  0.9045740E-01
         -1   -1    0    0    0  501 -0.00000000000E+00  0.00000000000E+00  0.51141284794E+03  0.51141284794E+03  0.00000000000E+00 0.  1.
          1   -1    0    0  501    0  0.00000000000E+00 -0.00000000000E+00 -0.80066659428E+03  0.80066659428E+03  0.00000000000E+00 0. -1.
         23    2    1    2    0    0  0.57999099454E+03 -0.15482068013E+03 -0.36223507752E+03  0.70736027480E+03  0.93729985746E+02 0.  0.
         11    1    3    3    0    0  0.54268503616E+03 -0.11865309153E+03 -0.32747031995E+03  0.64484293828E+03  0.00000000000E+00 0. -1.
        -11    1    3    3    0    0  0.37305958382E+02 -0.36167588604E+02 -0.34764757572E+02  0.62517336518E+02  0.00000000000E+00 0.  1.
         22    1    1    2    0    0 -0.57999099454E+03  0.15482068013E+03  0.72981331178E+02  0.60471916742E+03  0.00000000000E+00 0.  1.
<mgrwt>
<rscale>  0 0.12797987E+04</rscale>
<asrwt>0</asrwt>
<pdfrwt beam="1">  1        1 0.12317948E+00 0.12797987E+04</pdfrwt>
<pdfrwt beam="2">  1       -1 0.78678900E-01 0.12797987E+04</pdfrwt>
<totfact> 0.35127683E+01</totfact>
</mgrwt>
</event>
<event>
 6    1  0.1014650E-006  0.3587983E+04  0.7818608E-02  0.8093250E-01
         -2   -1    0    0    0  501 -0.00000000000E+00  0.00000000000E+00  0.77790575197E+03  0.77790575197E+03  0.00000000000E+00 0.  1.
          2   -1    0    0  501    0  0.00000000000E+00 -0.00000000000E+00 -0.41372682562E+04  0.41372682562E+04  0.00000000000E+00 0. -1.
         23    2    1    2    0    0 -0.66402252189E+03  0.12270712996E+04 -0.32231240266E+04  0.35133213744E+04  0.90932421538E+02 0.  0.
         11    1    3    3    0    0 -0.45771787371E+03  0.86443163096E+03 -0.21545223157E+04  0.23661602028E+04  0.00000000000E+00 0. -1.
        -11    1    3    3    0    0 -0.20630464818E+03  0.36263966868E+03 -0.10686017108E+04  0.11471611716E+04  0.00000000000E+00 0.  1.
         22    1    1    2    0    0  0.66402252189E+03 -0.12270712996E+04 -0.13623847765E+03  0.14018526338E+04  0.00000000000E+00 0.  1.
<mgrwt>
<rscale>  0 0.35879826E+04</rscale>
<asrwt>0</asrwt>
<pdfrwt beam="1">  1        2 0.63650280E+00 0.35879826E+04</pdfrwt>
<pdfrwt beam="2">  1       -2 0.11967781E+00 0.35879826E+04</pdfrwt>
<totfact> 0.11441143E-01</totfact>
</mgrwt>
</event>
<event>
 6    1  0.1014650E-006  0.4302184E+04  0.7818608E-02  0.7946214E-01
         -2   -1    0    0    0  501 -0.00000000000E+00  0.00000000000E+00  0.15874250835E+04  0.15874250835E+04  0.00000000000E+00 0.  1.
          2   -1    0    0  501    0  0.00000000000E+00 -0.00000000000E+00 -0.29149073355E+04  0.29149073355E+04  0.00000000000E+00 0. -1.
         23    2    1    2    0    0 -0.20946028098E+03  0.19577683760E+04  0.24002448346E+03  0.19856266378E+04  0.91491906751E+02 0.  0.
         11    1    3    3    0    0 -0.12414196919E+03  0.86557485189E+03  0.73404011815E+02  0.87750737985E+03  0.00000000000E+00 0. -1.
        -11    1    3    3    0    0 -0.85318311788E+02  0.10921935241E+04  0.16662047165E+03  0.11081192580E+04  0.00000000000E+00 0.  1.
         22    1    1    2    0    0  0.20946028098E+03 -0.19577683760E+04 -0.15675067355E+04  0.25167057812E+04  0.00000000000E+00 0.  1.
<mgrwt>
<rscale>  0 0.43021841E+04</rscale>
<asrwt>0</asrwt>
<pdfrwt beam="1">  1        2 0.44844728E+00 0.43021841E+04</pdfrwt>
<pdfrwt beam="2">  1       -2 0.24421924E+00 0.43021841E+04</pdfrwt>
<totfact> 0.10559367E-01</totfact>
</mgrwt>
</event>
<event>
 6    1  0.1014650E-006  0.8818269E+03  0.7818608E-02  0.9448588E-01
         -1   -1    0    0    0  501 -0.00000000000E+00  0.00000000000E+00  0.60361171343E+02  0.60361171343E+02  0.00000000000E+00 0.  1.
          1   -1    0    0  501    0  0.00000000000E+00 -0.00000000000E+00 -0.32206909994E+04  0.32206909994E+04  0.00000000000E+00 0. -1.
         23    2    1    2    0    0 -0.23968932051E+03  0.23174625284E+03 -0.26435154754E+04  0.26660282922E+04  0.91517703836E+02 0.  0.
         11    1    3    3    0    0 -0.22191476089E+03  0.22509259563E+03 -0.25905936802E+04  0.26098062100E+04  0.00000000000E+00 0. -1.
        -11    1    3    3    0    0 -0.17774559622E+02  0.66536572073E+01 -0.52921795164E+02  0.56222082204E+02  0.00000000000E+00 0.  1.
         22    1    1    2    0    0  0.23968932051E+03 -0.23174625284E+03 -0.51681435273E+03  0.61502387861E+03  0.00000000000E+00 0.  1.
<mgrwt>
<rscale>  0 0.88182692E+03</rscale>
<asrwt>0</asrwt>
<pdfrwt beam="1">  1        1 0.49549106E+00 0.88182692E+03</pdfrwt>
<pdfrwt beam="2">  1       -1 0.92863315E-02 0.88182692E+03</pdfrwt>
<totfact> 0.30456738E+01</totfact>
</mgrwt>
</event>
<event>
 6    1  0.1014650E-006  0.2807217E+03  0.7818608E-02  0.1095295E+00
         -2   -1    0    0    0  501 -0.00000000000E+00  0.00000000000E+00  0.18306023115E+03  0.18306023115E+03  0.00000000000E+00 0.  1.
          2   -1    0    0  501    0  0.00000000000E+00 -0.00000000000E+00 -0.10762120021E+03  0.10762120021E+03  0.00000000000E+00 0. -1.
         23    2    1    2    0    0 -0.80957635602E+02  0.88900971378E+02  0.11648963989E+02  0.15456863212E+03  0.96427393403E+02 0.  0.
         13    1    3    3    0    0  0.20724674120E+02  0.30248813185E+02  0.48434571924E+01  0.36985968881E+02  0.00000000000E+00 0. -1.
        -13    1    3    3    0    0 -0.10168230972E+03  0.58652158193E+02  0.68055067963E+01  0.11758266324E+03  0.00000000000E+00 0.  1.
         22    1    1    2    0    0  0.80957635602E+02 -0.88900971378E+02  0.63790066951E+02  0.13611279924E+03  0.00000000000E+00 0. -1.
<mgrwt>
<rscale>  0 0.28072165E+03</rscale>
<asrwt>0</asrwt>
<pdfrwt beam="1">  1        2 0.16557108E-01 0.28072165E+03</pdfrwt>
<pdfrwt beam="2">  1       -2 0.28163112E-01 0.28072165E+03</pdfrwt>
<totfact> 0.39572289E+03</totfact>
</mgrwt>
</event>
<event>
 6    1  0.1014650E-006  0.4337296E+04  0.7818608E-02  0.7939757E-01
          1   -1    0    0  501    0  0.00000000000E+00  0.00000000000E+00  0.35552926993E+04  0.35552926993E+04  0.00000000000E+00 0. -1.
         -1   -1    0    0    0  501 -0.00000000000E+00 -0.00000000000E+00 -0.13228264386E+04  0.13228264386E+04  0.00000000000E+00 0.  1.
         23    2    1    2    0    0  0.56886952330E+03  0.71451759999E+03  0.33277423658E+04  0.34520133629E+04  0.91537258477E+02 0.  0.
         11    1    3    3    0    0  0.28132367759E+03  0.42525242525E+03  0.18189204526E+04  0.18890352695E+04  0.00000000000E+00 0. -1.
        -11    1    3    3    0    0  0.28754584570E+03  0.28926517474E+03  0.15088219132E+04  0.15629780934E+04  0.00000000000E+00 0.  1.
         22    1    1    2    0    0 -0.56886952330E+03 -0.71451759999E+03 -0.10952761050E+04  0.14261057750E+04  0.00000000000E+00 0.  1.
<mgrwt>
<rscale>  0 0.43372965E+04</rscale>
<asrwt>0</asrwt>
<pdfrwt beam="1">  1        1 0.54696810E+00 0.43372965E+04</pdfrwt>
<pdfrwt beam="2">  1       -1 0.20351176E+00 0.43372965E+04</pdfrwt>
<totfact> 0.24446268E-02</totfact>
</mgrwt>
</event>
<event>
 6    1  0.1014650E-006  0.6723739E+03  0.7818608E-02  0.9765679E-01
         -1   -1    0    0    0  501 -0.00000000000E+00  0.00000000000E+00  0.12190466745E+03  0.12190466745E+03  0.00000000000E+00 0.  1.
          1   -1    0    0  501    0  0.00000000000E+00 -0.00000000000E+00 -0.92713156334E+03  0.92713156334E+03  0.00000000000E+00 0. -1.
         23    2    1    2    0    0 -0.15686803120E+03  0.24401657603E+03 -0.65602671347E+03  0.72282715209E+03  0.89198511294E+02 0.  0.
         11    1    3    3    0    0 -0.12893290544E+03  0.12732979231E+03 -0.35018216151E+03  0.39428938149E+03  0.00000000000E+00 0.  1.
        -11    1    3    3    0    0 -0.27935125765E+02  0.11668678372E+03 -0.30584455197E+03  0.32853777061E+03  0.00000000000E+00 0. -1.
         22    1    1    2    0    0  0.15686803120E+03 -0.24401657603E+03 -0.14920018242E+03  0.32620907870E+03  0.00000000000E+00 0.  1.
<mgrwt>
<rscale>  0 0.67237390E+03</rscale>
<asrwt>0</asrwt>
<pdfrwt beam="1">  1        1 0.14263562E+00 0.67237390E+03</pdfrwt>
<pdfrwt beam="2">  1       -1 0.18754565E-01 0.67237390E+03</pdfrwt>
<totfact> 0.39861976E+02</totfact>
</mgrwt>
</event>
<event>
 6    1  0.1014650E-006  0.2266661E+04  0.7818608E-02  0.8491184E-01
         -1   -1    0    0    0  501 -0.00000000000E+00  0.00000000000E+00  0.52969945045E+03  0.52969945045E+03  0.00000000000E+00 0.  1.
          1   -1    0    0  501    0  0.00000000000E+00 -0.00000000000E+00 -0.24248423040E+04  0.24248423040E+04  0.00000000000E+00 0. -1.
         23    2    1    2    0    0  0.47117736651E+03  0.10076598090E+04 -0.67887540203E+03  0.13063024166E+04  0.90375830189E+02 0.  0.
         11    1    3    3    0    0  0.22499715991E+03  0.42251729169E+03 -0.24850764836E+03  0.53935205111E+03  0.00000000000E+00 0. -1.
        -11    1    3    3    0    0  0.24618020660E+03  0.58514251729E+03 -0.43036775367E+03  0.76695036544E+03  0.00000000000E+00 0.  1.
         22    1    1    2    0    0 -0.47117736651E+03 -0.10076598090E+04 -0.12162674515E+04  0.16482393379E+04  0.00000000000E+00 0. -1.
<mgrwt>
<rscale>  0 0.22666607E+04</rscale>
<asrwt>0</asrwt>
<pdfrwt beam="1">  1        1 0.37305266E+00 0.22666607E+04</pdfrwt>
<pdfrwt beam="2">  1       -1 0.81492225E-01 0.22666607E+04</pdfrwt>
<totfact> 0.20755694E+00</totfact>
</mgrwt>
</event>
<event>
 6    1  0.1014650E-006  0.3214317E+04  0.7818608E-02  0.8185046E-01
          2   -1    0    0  501    0  0.00000000000E+00  0.00000000000E+00  0.30909909964E+04  0.30909909964E+04  0.00000000000E+00 0. -1.
         -2   -1    0    0    0  501 -0.00000000000E+00 -0.00000000000E+00 -0.83564105789E+03  0.83564105789E+03  0.00000000000E+00 0.  1.
         23    2    1    2    0    0 -0.34842896634E+03 -0.15396542687E+04  0.76865819288E+03  0.17581786058E+04  0.91752822961E+02 0.  0.
         11    1    3    3    0    0 -0.19349357443E+03 -0.10180245569E+04  0.53123898433E+03  0.11644864191E+04  0.00000000000E+00 0. -1.
        -11    1    3    3    0    0 -0.15493539191E+03 -0.52162971187E+03  0.23741920855E+03  0.59369218671E+03  0.00000000000E+00 0.  1.
         22    1    1    2    0    0  0.34842896634E+03  0.15396542687E+04  0.14866917456E+04  0.21684534485E+04  0.00000000000E+00 0. -1.
<mgrwt>
<rscale>  0 0.32143173E+04</rscale>
<asrwt>0</asrwt>
<pdfrwt beam="1">  1        2 0.47553707E+00 0.32143173E+04</pdfrwt>
<pdfrwt beam="2">  1       -2 0.12856016E+00 0.32143173E+04</pdfrwt>
<totfact> 0.57247689E-01</totfact>
</mgrwt>
</event>
<event>
 6    1  0.1014650E-006  0.3029366E+04  0.7818608E-02  0.8235395E-01
         -1   -1    0    0    0  501 -0.00000000000E+00  0.00000000000E+00  0.97766939777E+03  0.97766939777E+03  0.00000000000E+00 0.  1.
          1   -1    0    0  501    0  0.00000000000E+00 -0.00000000000E+00 -0.23466673957E+04  0.23466673957E+04  0.00000000000E+00 0. -1.
         23    2    1    2    0    0  0.18988520153E+03  0.13028285023E+03 -0.23264913346E+04  0.23395406215E+04  0.88647498162E+02 0.  0.
         13    1    3    3    0    0  0.32988917488E+02  0.32427964583E+02 -0.21244900343E+03  0.21742681671E+03  0.00000000000E+00 0. -1.
        -13    1    3    3    0    0  0.15689628404E+03  0.97854885642E+02 -0.21140423311E+04  0.21221138048E+04  0.00000000000E+00 0.  1.
         22    1    1    2    0    0 -0.18988520153E+03 -0.13028285023E+03  0.95749333659E+03  0.98479617202E+03  0.00000000000E+00 0.  1.
<mgrwt>
<rscale>  0 0.30293662E+04</rscale>
<asrwt>0</asrwt>
<pdfrwt beam="1">  1        1 0.36102575E+00 0.30293662E+04</pdfrwt>
<pdfrwt beam="2">  1       -1 0.15041068E+00 0.30293662E+04</pdfrwt>
<totfact> 0.50816621E-01</totfact>
</mgrwt>
</event>
<event>
 6    1  0.1014650E-006  0.5769631E+04  0.7818608E-02  0.7719640E-01
          1   -1    0    0  501    0  0.00000000000E+00  0.00000000000E+00  0.34280801806E+04  0.34280801806E+04  0.00000000000E+00 0. -1.
         -1   -1    0    0    0  501 -0.00000000000E+00 -0.00000000000E+00 -0.24276442621E+04  0.24276442621E+04  0.00000000000E+00 0.  1.
         23    2    1    2    0    0  0.10296633232E+04  0.26728126748E+04  0.84267221761E+03  0.29870969767E+04  0.92291538629E+02 0.  0.
         13    1    3    3    0    0  0.55319233298E+03  0.13892808780E+04  0.48464260522E+03  0.15719419742E+04  0.00000000000E+00 0.  1.
        -13    1    3    3    0    0  0.47647099026E+03  0.12835317968E+04  0.35802961238E+03  0.14151550025E+04  0.00000000000E+00 0. -1.
         22    1    1    2    0    0 -0.10296633232E+04 -0.26728126748E+04  0.15776370087E+03  0.28686274661E+04  0.00000000000E+00 0.  1.
<mgrwt>
<rscale>  0 0.57696306E+04</rscale>
<asrwt>0</asrwt>
<pdfrwt beam="1">  1        1 0.52739695E+00 0.57696306E+04</pdfrwt>
<pdfrwt beam="2">  1       -1 0.37348373E+00 0.57696306E+04</pdfrwt>
<totfact> 0.20929210E-03</totfact>
</mgrwt>
</event>
<event>
 6    1  0.1014650E-006  0.1485849E+04  0.7818608E-02  0.8893918E-01
          2   -1    0    0  501    0  0.00000000000E+00  0.00000000000E+00  0.26100872833E+04  0.26100872833E+04  0.00000000000E+00 0. -1.
         -2   -1    0    0    0  501 -0.00000000000E+00 -0.00000000000E+00 -0.21146299205E+03  0.21146299205E+03  0.00000000000E+00 0.  1.
         23    2    1    2    0    0  0.32448290477E+03  0.62867718112E+03  0.16167561704E+04  0.17671111297E+04  0.90868457247E+02 0.  0.
         11    1    3    3    0    0  0.89791767277E+02  0.26953863162E+03  0.62557229029E+03  0.68706209748E+03  0.00000000000E+00 0. -1.
        -11    1    3    3    0    0  0.23469113749E+03  0.35913854950E+03  0.99118388015E+03  0.10800490322E+04  0.00000000000E+00 0.  1.
         22    1    1    2    0    0 -0.32448290477E+03 -0.62867718112E+03  0.78186812082E+03  0.10544391457E+04  0.00000000000E+00 0.  1.
<mgrwt>
<rscale>  0 0.14858491E+04</rscale>
<asrwt>0</asrwt>
<pdfrwt beam="1">  1        2 0.40155187E+00 0.14858491E+04</pdfrwt>
<pdfrwt beam="2">  1       -2 0.32532770E-01 0.14858491E+04</pdfrwt>
<totfact> 0.25661278E+01</totfact>
</mgrwt>
</event>
<event>
 6    1  0.1014650E-006  0.4153565E+04  0.7818608E-02  0.7974264E-01
         -1   -1    0    0    0  501 -0.00000000000E+00  0.00000000000E+00  0.20079211976E+04  0.20079211976E+04  0.00000000000E+00 0.  1.
          1   -1    0    0  501    0  0.00000000000E+00 -0.00000000000E+00 -0.21480056135E+04  0.21480056135E+04  0.00000000000E+00 0. -1.
         23    2    1    2    0    0 -0.14590765392E+04  0.71177360174E+03 -0.13644961333E+04  0.21225281633E+04  0.88034646446E+02 0.  0.
         13    1    3    3    0    0 -0.61954023669E+03  0.34787271640E+03 -0.61598298045E+03  0.94036193240E+03  0.00000000000E+00 0.  1.
        -13    1    3    3    0    0 -0.83953630248E+03  0.36390088535E+03 -0.74851315281E+03  0.11821662309E+04  0.00000000000E+00 0. -1.
         22    1    1    2    0    0  0.14590765392E+04 -0.71177360174E+03  0.12244117174E+04  0.20333986478E+04  0.00000000000E+00 0.  1.
<mgrwt>
<rscale>  0 0.41535652E+04</rscale>
<asrwt>0</asrwt>
<pdfrwt beam="1">  1        1 0.33046240E+00 0.41535652E+04</pdfrwt>
<pdfrwt beam="2">  1       -1 0.30891095E+00 0.41535652E+04</pdfrwt>
<totfact> 0.52806734E-02</totfact>
</mgrwt>
</event>
<event>
 6    1  0.1014650E-006  0.1889204E+04  0.7818608E-02  0.8660249E-01
         -1   -1    0    0    0  501 -0.00000000000E+00  0.00000000000E+00  0.13247139606E+04  0.13247139606E+04  0.00000000000E+00 0.  1.
          1   -1    0    0  501    0  0.00000000000E+00 -0.00000000000E+00 -0.67355926669E+03  0.67355926669E+03  0.00000000000E+00 0. -1.
         23    2    1    2    0    0 -0.78894901084E+03  0.29641388773E+03  0.77246635387E+03  0.11467931903E+04  0.90158853804E+02 0.  0.
         13    1    3    3    0    0 -0.10456079487E+03  0.40711727237E+02  0.14771557638E+03  0.18550012416E+03  0.00000000000E+00 0.  1.
        -13    1    3    3    0    0 -0.68438821596E+03  0.25570216049E+03  0.62475077749E+03  0.96129306614E+03  0.00000000000E+00 0. -1.
         22    1    1    2    0    0  0.78894901084E+03 -0.29641388773E+03 -0.12131165998E+03  0.85148003698E+03  0.00000000000E+00 0. -1.
<mgrwt>
<rscale>  0 0.18892045E+04</rscale>
<asrwt>0</asrwt>
<pdfrwt beam="1">  1        1 0.10362450E+00 0.18892045E+04</pdfrwt>
<pdfrwt beam="2">  1       -1 0.20380215E+00 0.18892045E+04</pdfrwt>
<totfact> 0.38316792E+00</totfact>
</mgrwt>
</event>
<event>
 6    1  0.1014650E-006  0.3209637E+04  0.7818608E-02  0.8186277E-01
          2   -1    0    0  501    0  0.00000000000E+00  0.00000000000E+00  0.15651475976E+04  0.15651475976E+04  0.00000000000E+00 0. -1.
         -2   -1    0    0    0  501 -0.00000000000E+00 -0.00000000000E+00 -0.16454949140E+04  0.16454949140E+04  0.00000000000E+00 0.  1.
         23    2    1    2    0    0 -0.15747394126E+04 -0.29760250063E+03  0.13889238275E+02  0.16052603159E+04  0.91084055210E+02 0.  0.
         11    1    3    3    0    0 -0.24190219367E+03 -0.74054055202E+02 -0.15840280291E+02  0.25347897126E+03  0.00000000000E+00 0. -1.
        -11    1    3    3    0    0 -0.13328372189E+04 -0.22354844543E+03  0.29729518566E+02  0.13517813447E+04  0.00000000000E+00 0.  1.
         22    1    1    2    0    0  0.15747394126E+04  0.29760250063E+03 -0.94236554652E+02  0.16053821957E+04  0.00000000000E+00 0. -1.
<mgrwt>
<rscale>  0 0.32096370E+04</rscale>
<asrwt>0</asrwt>
<pdfrwt beam="1">  1        2 0.24079194E+00 0.32096370E+04</pdfrwt>
<pdfrwt beam="2">  1       -2 0.25315306E+00 0.32096370E+04</pdfrwt>
<totfact> 0.60320518E-01</totfact>
</mgrwt>
</event>
<event>
 6    1  0.1014650E-006  0.1987238E+04  0.7818608E-02  0.8612611E-01
          1   -1    0    0  501    0  0.00000000000E+00  0.00000000000E+00  0.24391040229E+04  0.24391040229E+04  0.00000000000E+00 0. -1.
         -1   -1    0    0    0  501 -0.00000000000E+00 -0.00000000000E+00 -0.40477092939E+03  0.40477092939E+03  0.00000000000E+00 0.  1.
         23    2    1    2    0    0 -0.47930617090E+03 -0.19899991133E+03  0.22283926600E+04  0.22898041215E+04  0.90187012756E+02 0.  0.
         11    1    3    3    0    0 -0.14880294914E+03 -0.10422358446E+03  0.84723571024E+03  0.86649479048E+03  0.00000000000E+00 0. -1.
        -11    1    3    3    0    0 -0.33050322176E+03 -0.94776326867E+02  0.13811569498E+04  0.14233093310E+04  0.00000000000E+00 0.  1.
         22    1    1    2    0    0  0.47930617090E+03  0.19899991133E+03 -0.19405956654E+03  0.55407083079E+03  0.00000000000E+00 0.  1.
<mgrwt>
<rscale>  0 0.19872377E+04</rscale>
<asrwt>0</asrwt>
<pdfrwt beam="1">  1        1 0.37524676E+00 0.19872377E+04</pdfrwt>
<pdfrwt beam="2">  1       -1 0.62272452E-01 0.19872377E+04</pdfrwt>
<totfact> 0.36278476E+00</totfact>
</mgrwt>
</event>
<event>
 6    1  0.1014650E-006  0.3199891E+04  0.7818608E-02  0.8188846E-01
          1   -1    0    0  501    0  0.00000000000E+00  0.00000000000E+00  0.17401815288E+04  0.17401815288E+04  0.00000000000E+00 0. -1.
         -1   -1    0    0    0  501 -0.00000000000E+00 -0.00000000000E+00 -0.14710107444E+04  0.14710107444E+04  0.00000000000E+00 0.  1.
         23    2    1    2    0    0 -0.13193646098E+04 -0.77067907012E+03 -0.33715349382E+03  0.15673253889E+04  0.90372525717E+02 0.  0.
         11    1    3    3    0    0 -0.28592525778E+03 -0.14628592824E+03 -0.38136793253E+02  0.32343042658E+03  0.00000000000E+00 0. -1.
        -11    1    3    3    0    0 -0.10334393521E+04 -0.62439314188E+03 -0.29901670056E+03  0.12438949623E+04  0.00000000000E+00 0.  1.
         22    1    1    2    0    0  0.13193646098E+04  0.77067907012E+03  0.60632427827E+03  0.16438668843E+04  0.00000000000E+00 0. -1.
<mgrwt>
<rscale>  0 0.31998911E+04</rscale>
<asrwt>0</asrwt>
<pdfrwt beam="1">  1        1 0.26772024E+00 0.31998911E+04</pdfrwt>
<pdfrwt beam="2">  1       -1 0.22630934E+00 0.31998911E+04</pdfrwt>
<totfact> 0.37391742E-01</totfact>
</mgrwt>
</event>
<event>
 6    1  0.1014650E-006  0.6500146E+03  0.7818608E-02  0.9806752E-01
          1   -1    0    0  501    0  0.00000000000E+00  0.00000000000E+00  0.42247018515E+03  0.42247018515E+03  0.00000000000E+00 0. -1.
         -1   -1    0    0    0  501 -0.00000000000E+00 -0.00000000000E+00 -0.25002884350E+03  0.25002884350E+03  0.00000000000E+00 0.  1.
         23    2    1    2    0    0  0.33972201922E+02  0.23363052002E+03  0.30952840389E+03  0.39949684363E+03  0.89736084525E+02 0.  0.
         11    1    3    3    0    0  0.17682680392E+01  0.97253348623E+02  0.19727287533E+03  0.21994983049E+03  0.00000000000E+00 0.  1.
        -11    1    3    3    0    0  0.32203933883E+02  0.13637717140E+03  0.11225552856E+03  0.17954701315E+03  0.00000000000E+00 0. -1.
         22    1    1    2    0    0 -0.33972201922E+02 -0.23363052002E+03 -0.13708706224E+03  0.27300218502E+03  0.00000000000E+00 0.  1.
<mgrwt>
<rscale>  0 0.65001456E+03</rscale>
<asrwt>0</asrwt>
<pdfrwt beam="1">  1        1 0.64995413E-01 0.65001456E+03</pdfrwt>
<pdfrwt beam="2">  1       -1 0.38465976E-01 0.65001456E+03</pdfrwt>
<totfact> 0.36935087E+02</totfact>
</mgrwt>
</event>
<event>
 6    1  0.1014650E-006  0.2814046E+04  0.7818608E-02  0.8298921E-01
         -1   -1    0    0    0  501 -0.00000000000E+00  0.00000000000E+00  0.12355675461E+04  0.12355675461E+04  0.00000000000E+00 0.  1.
          1   -1    0    0  501    0  0.00000000000E+00 -0.00000000000E+00 -0.16022702472E+04  0.16022702472E+04  0.00000000000E+00 0. -1.
         23    2    1    2    0    0  0.97446515666E+03  0.27357385299E+03 -0.11668871208E+04  0.15475974667E+04  0.94907172881E+02 0.  0.
         11    1    3    3    0    0  0.69459653630E+03  0.21116261725E+03 -0.77389940373E+03  0.10611193553E+04  0.00000000000E+00 0. -1.
        -11    1    3    3    0    0  0.27986862037E+03  0.62411235744E+02 -0.39298771712E+03  0.48647811135E+03  0.00000000000E+00 0.  1.
         22    1    1    2    0    0 -0.97446515666E+03 -0.27357385299E+03  0.80018441975E+03  0.12902403265E+04  0.00000000000E+00 0.  1.
<mgrwt>
<rscale>  0 0.28140456E+04</rscale>
<asrwt>0</asrwt>
<pdfrwt beam="1">  1        1 0.24650312E+00 0.28140456E+04</pdfrwt>
<pdfrwt beam="2">  1       -1 0.19008731E+00 0.28140456E+04</pdfrwt>
<totfact> 0.84837139E-01</totfact>
</mgrwt>
</event>
<event>
 6    1  0.1014650E-006  0.3704807E+04  0.7818608E-02  0.8066897E-01
          1   -1    0    0  501    0  0.00000000000E+00  0.00000000000E+00  0.18427137275E+04  0.18427137275E+04  0.00000000000E+00 0. -1.
         -1   -1    0    0    0  501 -0.00000000000E+00 -0.00000000000E+00 -0.18621443893E+04  0.18621443893E+04  0.00000000000E+00 0.  1.
         23    2    1    2    0    0 -0.16226521926E+04 -0.32117820019E+03  0.82158063428E+03  0.18492030911E+04  0.91661109419E+02 0.  0.
         11    1    3    3    0    0 -0.42978405243E+03 -0.11404646957E+03  0.25338660781E+03  0.51178677392E+03  0.00000000000E+00 0.  1.
        -11    1    3    3    0    0 -0.11928681402E+04 -0.20713173063E+03  0.56819402647E+03  0.13374163172E+04  0.00000000000E+00 0. -1.
         22    1    1    2    0    0  0.16226521926E+04  0.32117820019E+03 -0.84101129604E+03  0.18556550257E+04  0.00000000000E+00 0.  1.
<mgrwt>
<rscale>  0 0.37048072E+04</rscale>
<asrwt>0</asrwt>
<pdfrwt beam="1">  1        1 0.28349442E+00 0.37048072E+04</pdfrwt>
<pdfrwt beam="2">  1       -1 0.28648375E+00 0.37048072E+04</pdfrwt>
<totfact> 0.12348131E-01</totfact>
</mgrwt>
</event>
<event>
 6    1  0.1014650E-006  0.1072415E+04  0.7818608E-02  0.9232503E-01
          4   -1    0    0  501    0  0.00000000000E+00  0.00000000000E+00  0.20941015698E+03  0.20941015698E+03  0.00000000000E+00 0. -1.
         -4   -1    0    0    0  501 -0.00000000000E+00 -0.00000000000E+00 -0.13729921748E+04  0.13729921748E+04  0.00000000000E+00 0.  1.
         23    2    1    2    0    0  0.47827533388E+02  0.52588289311E+03 -0.68534815594E+03  0.86997835909E+03  0.91213815949E+02 0.  0.
         11    1    3    3    0    0  0.69492616295E+02  0.45976781086E+03 -0.61542093182E+03  0.77133558646E+03  0.00000000000E+00 0. -1.
        -11    1    3    3    0    0 -0.21665082907E+02  0.66115082255E+02 -0.69927224114E+02  0.98642772625E+02  0.00000000000E+00 0.  1.
         22    1    1    2    0    0 -0.47827533388E+02 -0.52588289311E+03 -0.47823386192E+03  0.71242397272E+03  0.00000000000E+00 0. -1.
<mgrwt>
<rscale>  0 0.10724150E+04</rscale>
<asrwt>0</asrwt>
<pdfrwt beam="1">  1        4 0.32216948E-01 0.10724150E+04</pdfrwt>
<pdfrwt beam="2">  1       -4 0.21122956E+00 0.10724150E+04</pdfrwt>
<totfact> 0.20693979E+00</totfact>
</mgrwt>
</event>
<event>
 6    1  0.1016301E-006  0.3112447E+04  0.7818608E-02  0.8212330E-01
         -2   -1    0    0    0  501 -0.00000000000E+00  0.00000000000E+00  0.94431621377E+03  0.94431621377E+03  0.00000000000E+00 0.  1.
          2   -1    0    0  501    0  0.00000000000E+00 -0.00000000000E+00 -0.25646408577E+04  0.25646408577E+04  0.00000000000E+00 0. -1.
         23    2    1    2    0    0  0.19844488117E+02 -0.85579151495E+03  0.65263071057E+03  0.10801509935E+04  0.89590198466E+02 0.  0.
         11    1    3    3    0    0  0.46007914611E+02 -0.55761349357E+03  0.39087303643E+03  0.68251832725E+03  0.00000000000E+00 0. -1.
        -11    1    3    3    0    0 -0.26163426494E+02 -0.29817802138E+03  0.26175767414E+03  0.39763266628E+03  0.00000000000E+00 0.  1.
         22    1    1    2    0    0 -0.19844488117E+02  0.85579151495E+03 -0.22729553545E+04  0.24288060780E+04  0.00000000000E+00 0. -1.
<mgrwt>
<rscale>  0 0.31124472E+04</rscale>
<asrwt>0</asrwt>
<pdfrwt beam="1">  1        2 0.39456014E+00 0.31124472E+04</pdfrwt>
<pdfrwt beam="2">  1       -2 0.14527942E+00 0.31124472E+04</pdfrwt>
<totfact> 0.88241872E-01</totfact>
</mgrwt>
</event>
<event>
 6    1  0.1014650E-006  0.2813777E+04  0.7818608E-02  0.8299004E-01
         -2   -1    0    0    0  501 -0.00000000000E+00  0.00000000000E+00  0.19626538060E+04  0.19626538060E+04  0.00000000000E+00 0.  1.
          2   -1    0    0  501    0  0.00000000000E+00 -0.00000000000E+00 -0.10084991106E+04  0.10084991106E+04  0.00000000000E+00 0. -1.
         23    2    1    2    0    0  0.76977321197E+02  0.19467104636E+03  0.19450249625E+04  0.19584109898E+04  0.91810541910E+02 0.  0.
         13    1    3    3    0    0 -0.28226985880E+01  0.86349076683E+02  0.52898336218E+03  0.53599209709E+03  0.00000000000E+00 0. -1.
        -13    1    3    3    0    0  0.79800019785E+02  0.10832196968E+03  0.14160416004E+04  0.14224188927E+04  0.00000000000E+00 0.  1.
         22    1    1    2    0    0 -0.76977321197E+02 -0.19467104636E+03 -0.99087026706E+03  0.10127419269E+04  0.00000000000E+00 0. -1.
<mgrwt>
<rscale>  0 0.28137765E+04</rscale>
<asrwt>0</asrwt>
<pdfrwt beam="1">  1        2 0.15515371E+00 0.28137765E+04</pdfrwt>
<pdfrwt beam="2">  1       -2 0.30194674E+00 0.28137765E+04</pdfrwt>
<totfact> 0.66853434E-01</totfact>
</mgrwt>
</event>
<event>
 6    1  0.1014650E-006  0.3795538E+04  0.7818608E-02  0.8047113E-01
         -2   -1    0    0    0  501 -0.00000000000E+00  0.00000000000E+00  0.18447321952E+04  0.18447321952E+04  0.00000000000E+00 0.  1.
          2   -1    0    0  501    0  0.00000000000E+00 -0.00000000000E+00 -0.19523302121E+04  0.19523302121E+04  0.00000000000E+00 0. -1.
         23    2    1    2    0    0 -0.78824076534E+03  0.14768097194E+04  0.83827726144E+03  0.18743116451E+04  0.89693502124E+02 0.  0.
         13    1    3    3    0    0 -0.60615103172E+03  0.11991916150E+04  0.65011253461E+03  0.14926908288E+04  0.00000000000E+00 0. -1.
        -13    1    3    3    0    0 -0.18208973362E+03  0.27761810440E+03  0.18816472683E+03  0.38162081626E+03  0.00000000000E+00 0.  1.
         22    1    1    2    0    0  0.78824076534E+03 -0.14768097194E+04 -0.94587527836E+03  0.19227507622E+04  0.00000000000E+00 0. -1.
<mgrwt>
<rscale>  0 0.37955376E+04</rscale>
<asrwt>0</asrwt>
<pdfrwt beam="1">  1        2 0.30035849E+00 0.37955376E+04</pdfrwt>
<pdfrwt beam="2">  1       -2 0.28380496E+00 0.37955376E+04</pdfrwt>
<totfact> 0.22741445E-01</totfact>
</mgrwt>
</event>
<event>
 6    1  0.1014650E-006  0.1647494E+04  0.7818608E-02  0.8791890E-01
          1   -1    0    0  501    0  0.00000000000E+00  0.00000000000E+00  0.11097768923E+04  0.11097768923E+04  0.00000000000E+00 0. -1.
         -1   -1    0    0    0  501 -0.00000000000E+00 -0.00000000000E+00 -0.61143773291E+03  0.61143773291E+03  0.00000000000E+00 0.  1.
         23    2    1    2    0    0 -0.32301483019E+03 -0.67930281760E+03  0.59422168492E+03  0.96293739542E+03  0.91422744163E+02 0.  0.
         13    1    3    3    0    0 -0.19642087538E+03 -0.37529553198E+03  0.28001699570E+03  0.50777693380E+03  0.00000000000E+00 0.  1.
        -13    1    3    3    0    0 -0.12659395481E+03 -0.30400728561E+03  0.31420468921E+03  0.45516046162E+03  0.00000000000E+00 0. -1.
         22    1    1    2    0    0  0.32301483019E+03  0.67930281760E+03 -0.95882525528E+02  0.75827722979E+03  0.00000000000E+00 0. -1.
<mgrwt>
<rscale>  0 0.16474944E+04</rscale>
<asrwt>0</asrwt>
<pdfrwt beam="1">  1        1 0.17073491E+00 0.16474944E+04</pdfrwt>
<pdfrwt beam="2">  1       -1 0.94067344E-01 0.16474944E+04</pdfrwt>
<totfact> 0.13045453E+01</totfact>
</mgrwt>
</event>
<event>
 6    1  0.1014650E-006  0.9778855E+03  0.7818608E-02  0.9333138E-01
         -2   -1    0    0    0  501 -0.00000000000E+00  0.00000000000E+00  0.19716996255E+03  0.19716996255E+03  0.00000000000E+00 0.  1.
          2   -1    0    0  501    0  0.00000000000E+00 -0.00000000000E+00 -0.12124818860E+04  0.12124818860E+04  0.00000000000E+00 0. -1.
         23    2    1    2    0    0  0.34079224016E+02 -0.47477002120E+03 -0.38069542532E+03  0.61636371285E+03  0.91691074382E+02 0.  0.
         11    1    3    3    0    0 -0.67359558444E+01 -0.37082855053E+03 -0.26698255609E+03  0.45698891917E+03  0.00000000000E+00 0. -1.
        -11    1    3    3    0    0  0.40815179860E+02 -0.10394147067E+03 -0.11371286923E+03  0.15937479368E+03  0.00000000000E+00 0.  1.
         22    1    1    2    0    0 -0.34079224016E+02  0.47477002120E+03 -0.63461649815E+03  0.79328813571E+03  0.00000000000E+00 0.  1.
<mgrwt>
<rscale>  0 0.97788549E+03</rscale>
<asrwt>0</asrwt>
<pdfrwt beam="1">  1        2 0.18653567E+00 0.97788549E+03</pdfrwt>
<pdfrwt beam="2">  1       -2 0.30333840E-01 0.97788549E+03</pdfrwt>
<totfact> 0.18662894E+02</totfact>
</mgrwt>
</event>
<event>
 6    1  0.1014650E-006  0.2333533E+04  0.7818608E-02  0.8464816E-01
          2   -1    0    0  501    0  0.00000000000E+00  0.00000000000E+00  0.97649783928E+03  0.97649783928E+03  0.00000000000E+00 0. -1.
         -2   -1    0    0    0  501 -0.00000000000E+00 -0.00000000000E+00 -0.13941085791E+04  0.13941085791E+04  0.00000000000E+00 0.  1.
         23    2    1    2    0    0 -0.86317414341E+03 -0.42985728009E+02 -0.10027251800E+04  0.13269224227E+04  0.91367141936E+02 0.  0.
         11    1    3    3    0    0 -0.16228060139E+03 -0.41561754263E+02 -0.21409017235E+03  0.27183998032E+03  0.00000000000E+00 0.  1.
        -11    1    3    3    0    0 -0.70089354202E+03 -0.14239737456E+01 -0.78863500762E+03  0.10550824424E+04  0.00000000000E+00 0. -1.
         22    1    1    2    0    0  0.86317414341E+03  0.42985728009E+02  0.58511444019E+03  0.10436839957E+04  0.00000000000E+00 0. -1.
<mgrwt>
<rscale>  0 0.23335330E+04</rscale>
<asrwt>0</asrwt>
<pdfrwt beam="1">  1        2 0.15023044E+00 0.23335330E+04</pdfrwt>
<pdfrwt beam="2">  1       -2 0.21447824E+00 0.23335330E+04</pdfrwt>
<totfact> 0.25270792E+00</totfact>
</mgrwt>
</event>
<event>
 6    1  0.1014650E-006  0.1207980E+04  0.7818608E-02  0.9105900E-01
         -1   -1    0    0    0  501 -0.00000000000E+00  0.00000000000E+00  0.33398044669E+03  0.33398044669E+03  0.00000000000E+00 0.  1.
          1   -1    0    0  501    0  0.00000000000E+00 -0.00000000000E+00 -0.10922919756E+04  0.10922919756E+04  0.00000000000E+00 0. -1.
         23    2    1    2    0    0  0.30708222713E+03 -0.24593855729E+03  0.15424518635E+03  0.43251942142E+03  0.92174856736E+02 0.  0.
         13    1    3    3    0    0  0.29922844239E+03 -0.20840740443E+03  0.12989480404E+03  0.38709684457E+03  0.00000000000E+00 0.  1.
        -13    1    3    3    0    0  0.78537847373E+01 -0.37531152854E+02  0.24350382304E+02  0.45422576849E+02  0.00000000000E+00 0. -1.
         22    1    1    2    0    0 -0.30708222713E+03  0.24593855729E+03 -0.91255671522E+03  0.99375300083E+03  0.00000000000E+00 0. -1.
<mgrwt>
<rscale>  0 0.12079804E+04</rscale>
<asrwt>0</asrwt>
<pdfrwt beam="1">  1        1 0.16804492E+00 0.12079804E+04</pdfrwt>
<pdfrwt beam="2">  1       -1 0.51381607E-01 0.12079804E+04</pdfrwt>
<totfact> 0.48415778E+01</totfact>
</mgrwt>
</event>
<event>
 6    1  0.1014650E-006  0.1942049E+04  0.7818608E-02  0.8634204E-01
         -2   -1    0    0    0  501 -0.00000000000E+00  0.00000000000E+00  0.60853282976E+03  0.60853282976E+03  0.00000000000E+00 0.  1.
          2   -1    0    0  501    0  0.00000000000E+00 -0.00000000000E+00 -0.15494457943E+04  0.15494457943E+04  0.00000000000E+00 0. -1.
         23    2    1    2    0    0  0.35108872518E+03 -0.90126573627E+03 -0.40552569655E+03  0.10524548807E+04  0.87561207882E+02 0.  0.
         13    1    3    3    0    0  0.27028445188E+03 -0.69182807639E+03 -0.35064096833E+03  0.82135793713E+03  0.00000000000E+00 0.  1.
        -13    1    3    3    0    0  0.80804273307E+02 -0.20943765987E+03 -0.54884728219E+02  0.23109694362E+03  0.00000000000E+00 0. -1.
         22    1    1    2    0    0 -0.35108872518E+03  0.90126573627E+03 -0.53538726802E+03  0.11055237433E+04  0.00000000000E+00 0.  1.
<mgrwt>
<rscale>  0 0.19420491E+04</rscale>
<asrwt>0</asrwt>
<pdfrwt beam="1">  1        2 0.23837628E+00 0.19420491E+04</pdfrwt>
<pdfrwt beam="2">  1       -2 0.93620435E-01 0.19420491E+04</pdfrwt>
<totfact> 0.10716903E+01</totfact>
</mgrwt>
</event>
<event>
 6    1  0.1014650E-006  0.4229044E+04  0.7818608E-02  0.7959870E-01
          1   -1    0    0  501    0  0.00000000000E+00  0.00000000000E+00  0.30285050313E+04  0.30285050313E+04  0.00000000000E+00 0. -1.
         -1   -1    0    0    0  501 -0.00000000000E+00 -0.00000000000E+00 -0.14763731535E+04  0.14763731535E+04  0.00000000000E+00 0.  1.
         23    2    1    2    0    0 -0.43972693192E+02 -0.65229952109E+03 -0.13649911256E+04  0.15153907906E+04  0.76027708129E+02 0.  0.
         13    1    3    3    0    0  0.19749195232E+02 -0.18086915790E+03 -0.35106043017E+03  0.39540752221E+03  0.00000000000E+00 0. -1.
        -13    1    3    3    0    0 -0.63721888424E+02 -0.47143036319E+03 -0.10139306954E+04  0.11199832684E+04  0.00000000000E+00 0.  1.
         22    1    1    2    0    0  0.43972693192E+02  0.65229952109E+03  0.29171230034E+04  0.29894873942E+04  0.00000000000E+00 0. -1.
<mgrwt>
<rscale>  0 0.42290441E+04</rscale>
<asrwt>0</asrwt>
<pdfrwt beam="1">  1        1 0.46592385E+00 0.42290441E+04</pdfrwt>
<pdfrwt beam="2">  1       -1 0.22713433E+00 0.42290441E+04</pdfrwt>
<totfact> 0.43141493E-02</totfact>
</mgrwt>
</event>
<event>
 6    1  0.1014650E-006  0.7583799E+03  0.7818608E-02  0.9622295E-01
         -1   -1    0    0    0  501 -0.00000000000E+00  0.00000000000E+00  0.21610802470E+03  0.21610802470E+03  0.00000000000E+00 0.  1.
          1   -1    0    0  501    0  0.00000000000E+00 -0.00000000000E+00 -0.66533860963E+03  0.66533860963E+03  0.00000000000E+00 0. -1.
         23    2    1    2    0    0 -0.33558353630E+03 -0.11638057061E+03 -0.92879545988E+02  0.37830966491E+03  0.91273465206E+02 0.  0.
         11    1    3    3    0    0 -0.12611533105E+03 -0.89489648311E+02 -0.52410395185E+02  0.16327989284E+03  0.00000000000E+00 0. -1.
        -11    1    3    3    0    0 -0.20946820524E+03 -0.26890922300E+02 -0.40469150803E+02  0.21502977207E+03  0.00000000000E+00 0.  1.
         22    1    1    2    0    0  0.33558353630E+03  0.11638057061E+03 -0.35635103893E+03  0.50313696942E+03  0.00000000000E+00 0.  1.
<mgrwt>
<rscale>  0 0.75837989E+03</rscale>
<asrwt>0</asrwt>
<pdfrwt beam="1">  1        1 0.10235978E+00 0.75837989E+03</pdfrwt>
<pdfrwt beam="2">  1       -1 0.33247389E-01 0.75837989E+03</pdfrwt>
<totfact> 0.25297047E+02</totfact>
</mgrwt>
</event>
<event>
 6    1  0.1014650E-006  0.3401987E+04  0.7818608E-02  0.8137419E-01
         -2   -1    0    0    0  501 -0.00000000000E+00  0.00000000000E+00  0.88192064417E+03  0.88192064417E+03  0.00000000000E+00 0.  1.
          2   -1    0    0  501    0  0.00000000000E+00 -0.00000000000E+00 -0.32807707307E+04  0.32807707307E+04  0.00000000000E+00 0. -1.
         23    2    1    2    0    0  0.77412389771E+03 -0.81445582762E+03 -0.27607031578E+04  0.29822068348E+04  0.97311745707E+02 0.  0.
         11    1    3    3    0    0  0.29711591508E+03 -0.37459262646E+03 -0.11131123092E+04  0.12114522342E+04  0.00000000000E+00 0. -1.
        -11    1    3    3    0    0  0.47700798263E+03 -0.43986320116E+03 -0.16475908485E+04  0.17707546006E+04  0.00000000000E+00 0.  1.
         22    1    1    2    0    0 -0.77412389771E+03  0.81445582762E+03  0.36185307128E+03  0.11804845401E+04  0.00000000000E+00 0.  1.
<mgrwt>
<rscale>  0 0.34019873E+04</rscale>
<asrwt>0</asrwt>
<pdfrwt beam="1">  1        2 0.50473397E+00 0.34019873E+04</pdfrwt>
<pdfrwt beam="2">  1       -2 0.13568010E+00 0.34019873E+04</pdfrwt>
<totfact> 0.36966181E-01</totfact>
</mgrwt>
</event>
<event>
 6    1  0.1014650E-006  0.2755997E+04  0.7818608E-02  0.8317061E-01
         -2   -1    0    0    0  501 -0.00000000000E+00  0.00000000000E+00  0.54466424502E+03  0.54466424502E+03  0.00000000000E+00 0.  1.
          2   -1    0    0  501    0  0.00000000000E+00 -0.00000000000E+00 -0.34863303387E+04  0.34863303387E+04  0.00000000000E+00 0. -1.
         23    2    1    2    0    0 -0.26902165936E+03 -0.12905540205E+02 -0.34467785780E+04  0.34585630786E+04  0.94004237485E+02 0.  0.
         13    1    3    3    0    0 -0.70164295357E+02  0.60052415374E+01 -0.14780255432E+04  0.14797021990E+04  0.00000000000E+00 0.  1.
        -13    1    3    3    0    0 -0.19885736400E+03 -0.18910781742E+02 -0.19687530348E+04  0.19788608796E+04  0.00000000000E+00 0. -1.
         22    1    1    2    0    0  0.26902165936E+03  0.12905540205E+02  0.50511248435E+03  0.57243150509E+03  0.00000000000E+00 0.  1.
<mgrwt>
<rscale>  0 0.27559967E+04</rscale>
<asrwt>0</asrwt>
<pdfrwt beam="1">  1        2 0.53635852E+00 0.27559967E+04</pdfrwt>
<pdfrwt beam="2">  1       -2 0.83794498E-01 0.27559967E+04</pdfrwt>
<totfact> 0.90336208E-01</totfact>
</mgrwt>
</event>
<event>
 6    1  0.1014650E-006  0.1283571E+04  0.7818608E-02  0.9042696E-01
         -2   -1    0    0    0  501 -0.00000000000E+00  0.00000000000E+00  0.13351870115E+03  0.13351870115E+03  0.00000000000E+00 0.  1.
          2   -1    0    0  501    0  0.00000000000E+00 -0.00000000000E+00 -0.30848764424E+04  0.30848764424E+04  0.00000000000E+00 0. -1.
         23    2    1    2    0    0 -0.42288837714E+03 -0.19943566229E+03 -0.25736581509E+04  0.26173409501E+04  0.90267427079E+02 0.  0.
         13    1    3    3    0    0 -0.23728218911E+03 -0.12974118565E+03 -0.12502081311E+04  0.12791231307E+04  0.00000000000E+00 0. -1.
        -13    1    3    3    0    0 -0.18560618803E+03 -0.69694476640E+02 -0.13234500198E+04  0.13382178194E+04  0.00000000000E+00 0.  1.
         22    1    1    2    0    0  0.42288837714E+03  0.19943566229E+03 -0.37769959034E+03  0.60105419344E+03  0.00000000000E+00 0.  1.
<mgrwt>
<rscale>  0 0.12835711E+04</rscale>
<asrwt>0</asrwt>
<pdfrwt beam="1">  1        2 0.47459633E+00 0.12835711E+04</pdfrwt>
<pdfrwt beam="2">  1       -2 0.20541341E-01 0.12835711E+04</pdfrwt>
<totfact> 0.31202237E+01</totfact>
</mgrwt>
</event>
<event>
 6    1  0.1014650E-006  0.2151542E+04  0.7818608E-02  0.8538872E-01
          3   -1    0    0  501    0  0.00000000000E+00  0.00000000000E+00  0.53189868906E+03  0.53189868906E+03  0.00000000000E+00 0. -1.
         -3   -1    0    0    0  501 -0.00000000000E+00 -0.00000000000E+00 -0.21757592799E+04  0.21757592799E+04  0.00000000000E+00 0.  1.
         23    2    1    2    0    0 -0.49962016460E+03  0.85229489789E+03 -0.29377153359E+03  0.10347062768E+04  0.91040998614E+02 0.  0.
         13    1    3    3    0    0 -0.26850947616E+03  0.54303089828E+03 -0.16785993051E+03  0.62861502650E+03  0.00000000000E+00 0. -1.
        -13    1    3    3    0    0 -0.23111068844E+03  0.30926399961E+03 -0.12591160308E+03  0.40609125028E+03  0.00000000000E+00 0.  1.
         22    1    1    2    0    0  0.49962016460E+03 -0.85229489789E+03 -0.13500890573E+04  0.16729516922E+04  0.00000000000E+00 0.  1.
<mgrwt>
<rscale>  0 0.21515422E+04</rscale>
<asrwt>0</asrwt>
<pdfrwt beam="1">  1        3 0.81830569E-01 0.21515422E+04</pdfrwt>
<pdfrwt beam="2">  1       -3 0.33473219E+00 0.21515422E+04</pdfrwt>
<totfact> 0.80722947E-02</totfact>
</mgrwt>
</event>
<event>
 6    1  0.1014650E-006  0.1191143E+04  0.7818608E-02  0.9120644E-01
          2   -1    0    0  501    0  0.00000000000E+00  0.00000000000E+00  0.21805686437E+04  0.21805686437E+04  0.00000000000E+00 0. -1.
         -2   -1    0    0    0  501 -0.00000000000E+00 -0.00000000000E+00 -0.16266649198E+03  0.16266649198E+03  0.00000000000E+00 0.  1.
         23    2    1    2    0    0  0.24098362930E+02  0.57424851026E+03  0.73651128933E+03  0.93884750229E+03  0.92971342932E+02 0.  0.
         11    1    3    3    0    0 -0.32163454597E+02  0.33011711698E+03  0.42281290528E+03  0.53738491941E+03  0.00000000000E+00 0. -1.
        -11    1    3    3    0    0  0.56261817528E+02  0.24413139328E+03  0.31369838405E+03  0.40146258288E+03  0.00000000000E+00 0.  1.
         22    1    1    2    0    0 -0.24098362930E+02 -0.57424851026E+03  0.12813908624E+04  0.14043876334E+04  0.00000000000E+00 0. -1.
<mgrwt>
<rscale>  0 0.11911431E+04</rscale>
<asrwt>0</asrwt>
<pdfrwt beam="1">  1        2 0.33547208E+00 0.11911431E+04</pdfrwt>
<pdfrwt beam="2">  1       -2 0.25025616E-01 0.11911431E+04</pdfrwt>
<totfact> 0.75083229E+01</totfact>
</mgrwt>
</event>
<event>
 6    1  0.1014650E-006  0.7833132E+03  0.7818608E-02  0.9584490E-01
         -2   -1    0    0    0  501 -0.00000000000E+00  0.00000000000E+00  0.41548844093E+02  0.41548844093E+02  0.00000000000E+00 0.  1.
          2   -1    0    0  501    0  0.00000000000E+00 -0.00000000000E+00 -0.36919174578E+04  0.36919174578E+04  0.00000000000E+00 0. -1.
         23    2    1    2    0    0 -0.33654853308E+03 -0.77228603347E+02 -0.26758622108E+04  0.26995940169E+04  0.91324218102E+02 0.  0.
         11    1    3    3    0    0 -0.25586974500E+03 -0.19192850506E+02 -0.20239283860E+04  0.20401283792E+04  0.00000000000E+00 0. -1.
        -11    1    3    3    0    0 -0.80678788080E+02 -0.58035752842E+02 -0.65193382474E+03  0.65946563769E+03  0.00000000000E+00 0.  1.
         22    1    1    2    0    0  0.33654853308E+03  0.77228603347E+02 -0.97450640296E+03  0.10338722850E+04  0.00000000000E+00 0.  1.
<mgrwt>
<rscale>  0 0.78331323E+03</rscale>
<asrwt>0</asrwt>
<pdfrwt beam="1">  1        2 0.56798722E+00 0.78331323E+03</pdfrwt>
<pdfrwt beam="2">  1       -2 0.63921307E-02 0.78331323E+03</pdfrwt>
<totfact> 0.89840526E+01</totfact>
</mgrwt>
</event>
<event>
 6    1  0.1014650E-006  0.2653932E+04  0.7818608E-02  0.8350109E-01
         -2   -1    0    0    0  501 -0.00000000000E+00  0.00000000000E+00  0.14481347341E+04  0.14481347341E+04  0.00000000000E+00 0.  1.
          2   -1    0    0  501    0  0.00000000000E+00 -0.00000000000E+00 -0.12159358754E+04  0.12159358754E+04  0.00000000000E+00 0. -1.
         23    2    1    2    0    0  0.37301487957E+03  0.62549760725E+02 -0.11588001411E+04  0.12225676471E+04  0.93815307362E+02 0.  0.
         13    1    3    3    0    0  0.13174716519E+03  0.52990217392E+02 -0.32868778105E+03  0.35805158299E+03  0.00000000000E+00 0. -1.
        -13    1    3    3    0    0  0.24126771439E+03  0.95595433323E+01 -0.83011236005E+03  0.86451606415E+03  0.00000000000E+00 0.  1.
         22    1    1    2    0    0 -0.37301487957E+03 -0.62549760725E+02  0.13909989998E+04  0.14415029623E+04  0.00000000000E+00 0.  1.
<mgrwt>
<rscale>  0 0.26539322E+04</rscale>
<asrwt>0</asrwt>
<pdfrwt beam="1">  1        2 0.18706706E+00 0.26539322E+04</pdfrwt>
<pdfrwt beam="2">  1       -2 0.22278996E+00 0.26539322E+04</pdfrwt>
<totfact> 0.15485623E+00</totfact>
</mgrwt>
</event>
<event>
 6    1  0.1014650E-006  0.3178263E+04  0.7818608E-02  0.8194582E-01
          2   -1    0    0  501    0  0.00000000000E+00  0.00000000000E+00  0.18008357054E+04  0.18008357054E+04  0.00000000000E+00 0. -1.
         -2   -1    0    0    0  501 -0.00000000000E+00 -0.00000000000E+00 -0.14023148658E+04  0.14023148658E+04  0.00000000000E+00 0.  1.
         23    2    1    2    0    0  0.85966190494E+03 -0.76257771946E+02 -0.11438080174E+04  0.14357762075E+04  0.91228827190E+02 0.  0.
         11    1    3    3    0    0  0.62397343344E+03 -0.95942590126E+02 -0.82671346772E+03  0.10401937242E+04  0.00000000000E+00 0.  1.
        -11    1    3    3    0    0  0.23568847150E+03  0.19684818180E+02 -0.31709454966E+03  0.39558248329E+03  0.00000000000E+00 0. -1.
         22    1    1    2    0    0 -0.85966190494E+03  0.76257771946E+02  0.15423288569E+04  0.17673743637E+04  0.00000000000E+00 0. -1.
<mgrwt>
<rscale>  0 0.31782628E+04</rscale>
<asrwt>0</asrwt>
<pdfrwt beam="1">  1        2 0.27705165E+00 0.31782628E+04</pdfrwt>
<pdfrwt beam="2">  1       -2 0.21574075E+00 0.31782628E+04</pdfrwt>
<totfact> 0.76498800E-01</totfact>
</mgrwt>
</event>
<event>
 6    1  0.1098445E-006  0.2700073E+04  0.7818608E-02  0.8334981E-01
          2   -1    0    0  501    0  0.00000000000E+00  0.00000000000E+00  0.12369934440E+04  0.12369934440E+04  0.00000000000E+00 0. -1.
         -2   -1    0    0    0  501 -0.00000000000E+00 -0.00000000000E+00 -0.14734101427E+04  0.14734101427E+04  0.00000000000E+00 0.  1.
         23    2    1    2    0    0 -0.34051719446E+02  0.10746002354E+04 -0.93540941016E+03  0.14280167512E+04  0.91191509977E+02 0.  0.
         11    1    3    3    0    0  0.25896649262E+02  0.46831499283E+03 -0.43296681537E+03  0.63831797105E+03  0.00000000000E+00 0. -1.
        -11    1    3    3    0    0 -0.59948368707E+02  0.60628524254E+03 -0.50244259479E+03  0.78969878010E+03  0.00000000000E+00 0.  1.
         22    1    1    2    0    0  0.34051719446E+02 -0.10746002354E+04  0.69899271146E+03  0.12823868356E+04  0.00000000000E+00 0. -1.
<mgrwt>
<rscale>  0 0.27000731E+04</rscale>
<asrwt>0</asrwt>
<pdfrwt beam="1">  1        2 0.19030668E+00 0.27000731E+04</pdfrwt>
<pdfrwt beam="2">  1       -2 0.22667848E+00 0.27000731E+04</pdfrwt>
<totfact> 0.14167484E+00</totfact>
</mgrwt>
</event>
<event>
 6    1  0.1014650E-006  0.2970749E+04  0.7818608E-02  0.8252133E-01
         -1   -1    0    0    0  501 -0.00000000000E+00  0.00000000000E+00  0.97553809831E+03  0.97553809831E+03  0.00000000000E+00 0.  1.
          1   -1    0    0  501    0  0.00000000000E+00 -0.00000000000E+00 -0.22616616513E+04  0.22616616513E+04  0.00000000000E+00 0. -1.
         23    2    1    2    0    0  0.10074859593E+04 -0.44192895330E+03 -0.17285343904E+04  0.20514272137E+04  0.10096195536E+03 0.  0.
         13    1    3    3    0    0  0.88807118607E+03 -0.39476589527E+03 -0.14615370958E+04  0.17551641593E+04  0.00000000000E+00 0.  1.
        -13    1    3    3    0    0  0.11941477326E+03 -0.47163058030E+02 -0.26699729454E+03  0.29626305441E+03  0.00000000000E+00 0. -1.
         22    1    1    2    0    0 -0.10074859593E+04  0.44192895330E+03  0.44241083735E+03  0.11857725359E+04  0.00000000000E+00 0.  1.
<mgrwt>
<rscale>  0 0.29707488E+04</rscale>
<asrwt>0</asrwt>
<pdfrwt beam="1">  1        1 0.34794794E+00 0.29707488E+04</pdfrwt>
<pdfrwt beam="2">  1       -1 0.15008279E+00 0.29707488E+04</pdfrwt>
<totfact> 0.58755015E-01</totfact>
</mgrwt>
</event>
<event>
 6    1  0.1014650E-006  0.2527928E+04  0.7818608E-02  0.8393103E-01
          2   -1    0    0  501    0  0.00000000000E+00  0.00000000000E+00  0.35108703282E+04  0.35108703282E+04  0.00000000000E+00 0. -1.
         -2   -1    0    0    0  501 -0.00000000000E+00 -0.00000000000E+00 -0.45504546229E+03  0.45504546229E+03  0.00000000000E+00 0.  1.
         23    2    1    2    0    0  0.87531159296E+03 -0.41362443780E+03  0.25781412443E+03  0.10051524312E+04  0.81287925549E+02 0.  0.
         11    1    3    3    0    0  0.56799549250E+03 -0.23593770141E+03  0.13655111215E+03  0.63002514606E+03  0.00000000000E+00 0. -1.
        -11    1    3    3    0    0  0.30731610046E+03 -0.17768673639E+03  0.12126301228E+03  0.37512728512E+03  0.00000000000E+00 0.  1.
         22    1    1    2    0    0 -0.87531159296E+03  0.41362443780E+03  0.27980107415E+04  0.29607633593E+04  0.00000000000E+00 0. -1.
<mgrwt>
<rscale>  0 0.25279285E+04</rscale>
<asrwt>0</asrwt>
<pdfrwt beam="1">  1        2 0.54013388E+00 0.25279285E+04</pdfrwt>
<pdfrwt beam="2">  1       -2 0.70006996E-01 0.25279285E+04</pdfrwt>
<totfact> 0.13226102E+00</totfact>
</mgrwt>
</event>
<event>
 6    1  0.1014650E-006  0.1505837E+04  0.7818608E-02  0.8880580E-01
         -2   -1    0    0    0  501 -0.00000000000E+00  0.00000000000E+00  0.50551467070E+03  0.50551467070E+03  0.00000000000E+00 0.  1.
          2   -1    0    0  501    0  0.00000000000E+00 -0.00000000000E+00 -0.11214047925E+04  0.11214047925E+04  0.00000000000E+00 0. -1.
         23    2    1    2    0    0 -0.38984378422E+02  0.55282890954E+03  0.23748735980E+03  0.60937697706E+03  0.88320264548E+02 0.  0.
         13    1    3    3    0    0 -0.55525260422E+02  0.34590597635E+03  0.11696941696E+03  0.36934515501E+03  0.00000000000E+00 0.  1.
        -13    1    3    3    0    0  0.16540882000E+02  0.20692293318E+03  0.12051794284E+03  0.24003182206E+03  0.00000000000E+00 0. -1.
         22    1    1    2    0    0  0.38984378422E+02 -0.55282890954E+03 -0.85337748159E+03  0.10175424861E+04  0.00000000000E+00 0. -1.
<mgrwt>
<rscale>  0 0.15058374E+04</rscale>
<asrwt>0</asrwt>
<pdfrwt beam="1">  1        2 0.17252381E+00 0.15058374E+04</pdfrwt>
<pdfrwt beam="2">  1       -2 0.77771488E-01 0.15058374E+04</pdfrwt>
<totfact> 0.30066888E+01</totfact>
</mgrwt>
</event>
<event>
 6    1  0.1014650E-006  0.2181016E+04  0.7818608E-02  0.8526371E-01
         -2   -1    0    0    0  501 -0.00000000000E+00  0.00000000000E+00  0.59842236711E+03  0.59842236711E+03  0.00000000000E+00 0.  1.
          2   -1    0    0  501    0  0.00000000000E+00 -0.00000000000E+00 -0.19872388698E+04  0.19872388698E+04  0.00000000000E+00 0. -1.
         23    2    1    2    0    0 -0.40816520853E+03  0.93162804544E+03 -0.11555512915E+04  0.15421372500E+04  0.91426791312E+02 0.  0.
         11    1    3    3    0    0 -0.30343847754E+03  0.58356067381E+03 -0.74524908523E+03  0.99398901840E+03  0.00000000000E+00 0.  1.
        -11    1    3    3    0    0 -0.10472673099E+03  0.34806737163E+03 -0.41030220624E+03  0.54814823161E+03  0.00000000000E+00 0. -1.
         22    1    1    2    0    0  0.40816520853E+03 -0.93162804544E+03 -0.23326521124E+03  0.10435239869E+04  0.00000000000E+00 0.  1.
<mgrwt>
<rscale>  0 0.21810164E+04</rscale>
<asrwt>0</asrwt>
<pdfrwt beam="1">  1        2 0.30572906E+00 0.21810164E+04</pdfrwt>
<pdfrwt beam="2">  1       -2 0.92064978E-01 0.21810164E+04</pdfrwt>
<totfact> 0.62336911E+00</totfact>
</mgrwt>
</event>
<event>
 6    1  0.1014650E-006  0.1348147E+04  0.7818608E-02  0.8992232E-01
          1   -1    0    0  501    0  0.00000000000E+00  0.00000000000E+00  0.20959568097E+04  0.20959568097E+04  0.00000000000E+00 0. -1.
         -1   -1    0    0    0  501 -0.00000000000E+00 -0.00000000000E+00 -0.21678653925E+03  0.21678653925E+03  0.00000000000E+00 0.  1.
         23    2    1    2    0    0  0.61658285792E+03  0.26241527613E+03  0.99737118212E+03  0.12052209654E+04  0.93659504402E+02 0.  0.
         11    1    3    3    0    0  0.77781552032E+02  0.68852895336E+02  0.16453956242E+03  0.19458663529E+03  0.00000000000E+00 0.  1.
        -11    1    3    3    0    0  0.53880130589E+03  0.19356238079E+03  0.83283161970E+03  0.10106343301E+04  0.00000000000E+00 0. -1.
         22    1    1    2    0    0 -0.61658285792E+03 -0.26241527613E+03  0.88179908835E+03  0.11075223835E+04  0.00000000000E+00 0.  1.
<mgrwt>
<rscale>  0 0.13481472E+04</rscale>
<asrwt>0</asrwt>
<pdfrwt beam="1">  1        1 0.32245488E+00 0.13481472E+04</pdfrwt>
<pdfrwt beam="2">  1       -1 0.33351777E-01 0.13481472E+04</pdfrwt>
<totfact> 0.21271095E+01</totfact>
</mgrwt>
</event>
<event>
 6    1  0.1014650E-006  0.2623630E+04  0.7818608E-02  0.8360219E-01
         -2   -1    0    0    0  501 -0.00000000000E+00  0.00000000000E+00  0.83056506541E+03  0.83056506541E+03  0.00000000000E+00 0.  1.
          2   -1    0    0  501    0  0.00000000000E+00 -0.00000000000E+00 -0.20719138034E+04  0.20719138034E+04  0.00000000000E+00 0. -1.
         23    2    1    2    0    0 -0.11474982857E+04 -0.42141273463E+03 -0.11432136847E+04  0.16761137122E+04  0.89881247504E+02 0.  0.
         13    1    3    3    0    0 -0.16926086204E+03 -0.31113965317E+02 -0.14575344228E+03  0.22552468644E+03  0.00000000000E+00 0.  1.
        -13    1    3    3    0    0 -0.97823742371E+03 -0.39029876931E+03 -0.99746024239E+03  0.14505890257E+04  0.00000000000E+00 0. -1.
         22    1    1    2    0    0  0.11474982857E+04  0.42141273463E+03 -0.98135053324E+02  0.12263651566E+04  0.00000000000E+00 0.  1.
<mgrwt>
<rscale>  0 0.26236305E+04</rscale>
<asrwt>0</asrwt>
<pdfrwt beam="1">  1        2 0.31875596E+00 0.26236305E+04</pdfrwt>
<pdfrwt beam="2">  1       -2 0.12777924E+00 0.26236305E+04</pdfrwt>
<totfact> 0.24398493E+00</totfact>
</mgrwt>
</event>
<event>
 6    1  0.1014650E-006  0.1289616E+04  0.7818608E-02  0.9037841E-01
          2   -1    0    0  501    0  0.00000000000E+00  0.00000000000E+00  0.64967013172E+03  0.64967013172E+03  0.00000000000E+00 0. -1.
         -2   -1    0    0    0  501 -0.00000000000E+00 -0.00000000000E+00 -0.63998197125E+03  0.63998197125E+03  0.00000000000E+00 0.  1.
         23    2    1    2    0    0 -0.43761803598E+03  0.20869219177E+03 -0.41454315244E+03  0.64542063590E+03  0.98284259658E+02 0.  0.
         13    1    3    3    0    0 -0.22807670024E+03  0.68712436603E+02 -0.24493433611E+03  0.34166241986E+03  0.00000000000E+00 0. -1.
        -13    1    3    3    0    0 -0.20954133573E+03  0.13997975516E+03 -0.16960881632E+03  0.30375821604E+03  0.00000000000E+00 0.  1.
         22    1    1    2    0    0  0.43761803598E+03 -0.20869219177E+03  0.42423131290E+03  0.64423146707E+03  0.00000000000E+00 0.  1.
<mgrwt>
<rscale>  0 0.12896157E+04</rscale>
<asrwt>0</asrwt>
<pdfrwt beam="1">  1        2 0.99949251E-01 0.12896157E+04</pdfrwt>
<pdfrwt beam="2">  1       -2 0.98458765E-01 0.12896157E+04</pdfrwt>
<totfact> 0.37825786E+01</totfact>
</mgrwt>
</event>
<event>
 6    1  0.1014650E-006  0.2242707E+04  0.7818608E-02  0.8500860E-01
          2   -1    0    0  501    0  0.00000000000E+00  0.00000000000E+00  0.22796072805E+04  0.22796072805E+04  0.00000000000E+00 0. -1.
         -2   -1    0    0    0  501 -0.00000000000E+00 -0.00000000000E+00 -0.55160124279E+03  0.55160124279E+03  0.00000000000E+00 0.  1.
         23    2    1    2    0    0  0.53731537541E+03  0.95157171108E+03  0.11719696266E+04  0.16050873937E+04  0.92715703666E+02 0.  0.
         11    1    3    3    0    0  0.46918912435E+03  0.81899831700E+03  0.10551423303E+04  0.14157054831E+04  0.00000000000E+00 0.  1.
        -11    1    3    3    0    0  0.68126251066E+02  0.13257339407E+03  0.11682729634E+03  0.18938191062E+03  0.00000000000E+00 0. -1.
         22    1    1    2    0    0 -0.53731537541E+03 -0.95157171108E+03  0.55603641110E+03  0.12261211296E+04  0.00000000000E+00 0.  1.
<mgrwt>
<rscale>  0 0.22427075E+04</rscale>
<asrwt>0</asrwt>
<pdfrwt beam="1">  1        2 0.35070881E+00 0.22427075E+04</pdfrwt>
<pdfrwt beam="2">  1       -2 0.84861731E-01 0.22427075E+04</pdfrwt>
<totfact> 0.51283312E+00</totfact>
</mgrwt>
</event>
<event>
 6    1  0.1014650E-006  0.1127884E+04  0.7818608E-02  0.9178432E-01
          2   -1    0    0  501    0  0.00000000000E+00  0.00000000000E+00  0.94000605603E+03  0.94000605603E+03  0.00000000000E+00 0. -1.
         -2   -1    0    0    0  501 -0.00000000000E+00 -0.00000000000E+00 -0.33832850028E+03  0.33832850028E+03  0.00000000000E+00 0.  1.
         23    2    1    2    0    0  0.40648191248E+03 -0.32459787703E+03  0.53897796181E+03  0.75438554541E+03  0.89492909567E+02 0.  0.
         13    1    3    3    0    0  0.94843345736E+02 -0.41269595859E+02  0.75070409181E+02  0.12780456215E+03  0.00000000000E+00 0.  1.
        -13    1    3    3    0    0  0.31163856674E+03 -0.28332828117E+03  0.46390755262E+03  0.62658098325E+03  0.00000000000E+00 0. -1.
         22    1    1    2    0    0 -0.40648191248E+03  0.32459787703E+03  0.62699593939E+02  0.52394901090E+03  0.00000000000E+00 0.  1.
<mgrwt>
<rscale>  0 0.11278845E+04</rscale>
<asrwt>0</asrwt>
<pdfrwt beam="1">  1        2 0.14461632E+00 0.11278845E+04</pdfrwt>
<pdfrwt beam="2">  1       -2 0.52050539E-01 0.11278845E+04</pdfrwt>
<totfact> 0.95212318E+01</totfact>
</mgrwt>
</event>
<event>
 6    1  0.1014650E-006  0.4028246E+04  0.7818608E-02  0.7998872E-01
         -2   -1    0    0    0  501 -0.00000000000E+00  0.00000000000E+00  0.15583375696E+04  0.15583375696E+04  0.00000000000E+00 0.  1.
          2   -1    0    0  501    0  0.00000000000E+00 -0.00000000000E+00 -0.26032179610E+04  0.26032179610E+04  0.00000000000E+00 0. -1.
         23    2    1    2    0    0  0.69401788933E+03  0.14799562627E+04 -0.17365399711E+04  0.23866402243E+04  0.92461442376E+02 0.  0.
         11    1    3    3    0    0  0.49360002477E+03  0.10914526091E+04 -0.13257732676E+04  0.17867804956E+04  0.00000000000E+00 0.  1.
        -11    1    3    3    0    0  0.20041786456E+03  0.38850365362E+03 -0.41076670352E+03  0.59985972863E+03  0.00000000000E+00 0. -1.
         22    1    1    2    0    0 -0.69401788933E+03 -0.14799562627E+04  0.69165957973E+03  0.17749153063E+04  0.00000000000E+00 0.  1.
<mgrwt>
<rscale>  0 0.40282464E+04</rscale>
<asrwt>0</asrwt>
<pdfrwt beam="1">  1        2 0.40049507E+00 0.40282464E+04</pdfrwt>
<pdfrwt beam="2">  1       -2 0.23974424E+00 0.40282464E+04</pdfrwt>
<totfact> 0.17729526E-01</totfact>
</mgrwt>
</event>
<event>
 6    1  0.1014650E-006  0.2539791E+04  0.7818608E-02  0.8388945E-01
          1   -1    0    0  501    0  0.00000000000E+00  0.00000000000E+00  0.23305602166E+04  0.23305602166E+04  0.00000000000E+00 0. -1.
         -1   -1    0    0    0  501 -0.00000000000E+00 -0.00000000000E+00 -0.69195140875E+03  0.69195140875E+03  0.00000000000E+00 0.  1.
         23    2    1    2    0    0 -0.76143882311E+03  0.60721397941E+03  0.17871650332E+04  0.20373381126E+04  0.91048509822E+02 0.  0.
         11    1    3    3    0    0 -0.10839098784E+03  0.12379699306E+03  0.33862864256E+03  0.37648859119E+03  0.00000000000E+00 0.  1.
        -11    1    3    3    0    0 -0.65304783527E+03  0.48341698636E+03  0.14485363906E+04  0.16608495214E+04  0.00000000000E+00 0. -1.
         22    1    1    2    0    0  0.76143882311E+03 -0.60721397941E+03 -0.14855622532E+03  0.98517351274E+03  0.00000000000E+00 0.  1.
<mgrwt>
<rscale>  0 0.25397909E+04</rscale>
<asrwt>0</asrwt>
<pdfrwt beam="1">  1        1 0.35854772E+00 0.25397909E+04</pdfrwt>
<pdfrwt beam="2">  1       -1 0.10645406E+00 0.25397909E+04</pdfrwt>
<totfact> 0.12940144E+00</totfact>
</mgrwt>
</event>
<event>
 6    1  0.1014650E-006  0.1867140E+04  0.7818608E-02  0.8671388E-01
         -2   -1    0    0    0  501 -0.00000000000E+00  0.00000000000E+00  0.24227272600E+03  0.24227272600E+03  0.00000000000E+00 0.  1.
          2   -1    0    0  501    0  0.00000000000E+00 -0.00000000000E+00 -0.35974030752E+04  0.35974030752E+04  0.00000000000E+00 0. -1.
         23    2    1    2    0    0  0.82256865912E+03  0.29873649078E+03 -0.23369917269E+04  0.24971152088E+04  0.90506048366E+02 0.  0.
         11    1    3    3    0    0  0.14148305050E+03  0.57282114950E+02 -0.31884056124E+03  0.35349398547E+03  0.00000000000E+00 0. -1.
        -11    1    3    3    0    0  0.68108560861E+03  0.24145437583E+03 -0.20181511656E+04  0.21436212234E+04  0.00000000000E+00 0.  1.
         22    1    1    2    0    0 -0.82256865912E+03 -0.29873649078E+03 -0.10181386223E+04  0.13425605923E+04  0.00000000000E+00 0.  1.
<mgrwt>
<rscale>  0 0.18671397E+04</rscale>
<asrwt>0</asrwt>
<pdfrwt beam="1">  1        2 0.55344664E+00 0.18671397E+04</pdfrwt>
<pdfrwt beam="2">  1       -2 0.37272726E-01 0.18671397E+04</pdfrwt>
<totfact> 0.44552848E+00</totfact>
</mgrwt>
</event>
<event>
 6    1  0.1014650E-006  0.1635190E+04  0.7818608E-02  0.8799216E-01
         -2   -1    0    0    0  501 -0.00000000000E+00  0.00000000000E+00  0.65208272535E+03  0.65208272535E+03  0.00000000000E+00 0.  1.
          2   -1    0    0  501    0  0.00000000000E+00 -0.00000000000E+00 -0.10251183203E+04  0.10251183203E+04  0.00000000000E+00 0. -1.
         23    2    1    2    0    0  0.43720225993E+03  0.66402756138E+03 -0.37150179898E+03  0.88216597042E+03  0.90137641206E+02 0.  0.
         11    1    3    3    0    0  0.10509737160E+03  0.20563197060E+03 -0.14369167094E+03  0.27198761212E+03  0.00000000000E+00 0. -1.
        -11    1    3    3    0    0  0.33210488833E+03  0.45839559077E+03 -0.22781012804E+03  0.61017835829E+03  0.00000000000E+00 0.  1.
         22    1    1    2    0    0 -0.43720225993E+03 -0.66402756138E+03 -0.15337959846E+01  0.79503507525E+03  0.00000000000E+00 0.  1.
<mgrwt>
<rscale>  0 0.16351904E+04</rscale>
<asrwt>0</asrwt>
<pdfrwt beam="1">  1        2 0.15771051E+00 0.16351904E+04</pdfrwt>
<pdfrwt beam="2">  1       -2 0.10032042E+00 0.16351904E+04</pdfrwt>
<totfact> 0.19033001E+01</totfact>
</mgrwt>
</event>
<event>
 6    1  0.1014650E-006  0.1191103E+04  0.7818608E-02  0.9120680E-01
          2   -1    0    0  501    0  0.00000000000E+00  0.00000000000E+00  0.94784105427E+03  0.94784105427E+03  0.00000000000E+00 0. -1.
         -2   -1    0    0    0  501 -0.00000000000E+00 -0.00000000000E+00 -0.37419960577E+03  0.37419960577E+03  0.00000000000E+00 0.  1.
         23    2    1    2    0    0  0.27117311163E+03 -0.12887419982E+03  0.85487410840E+03  0.91065856897E+03  0.91355745203E+02 0.  0.
         13    1    3    3    0    0  0.19087930391E+03 -0.90801644983E+02  0.46504505396E+03  0.51082947214E+03  0.00000000000E+00 0. -1.
        -13    1    3    3    0    0  0.80293807721E+02 -0.38072554832E+02  0.38982905444E+03  0.39982909683E+03  0.00000000000E+00 0.  1.
         22    1    1    2    0    0 -0.27117311163E+03  0.12887419982E+03 -0.28123265990E+03  0.41138209106E+03  0.00000000000E+00 0.  1.
<mgrwt>
<rscale>  0 0.11911033E+04</rscale>
<asrwt>0</asrwt>
<pdfrwt beam="1">  1        2 0.14582170E+00 0.11911033E+04</pdfrwt>
<pdfrwt beam="2">  1       -2 0.57569170E-01 0.11911033E+04</pdfrwt>
<totfact> 0.76006835E+01</totfact>
</mgrwt>
</event>
<event>
 6    1  0.1014650E-006  0.6074269E+04  0.7818608E-02  0.7681261E-01
         -2   -1    0    0    0  501 -0.00000000000E+00  0.00000000000E+00  0.39426490663E+04  0.39426490663E+04  0.00000000000E+00 0.  1.
          2   -1    0    0  501    0  0.00000000000E+00 -0.00000000000E+00 -0.23395906665E+04  0.23395906665E+04  0.00000000000E+00 0. -1.
         23    2    1    2    0    0  0.29640706827E+04  0.64742745636E+03  0.93100790353E+03  0.31747440863E+04  0.85714490607E+02 0.  0.
         13    1    3    3    0    0  0.13842225703E+04  0.28776907803E+03  0.47602137778E+03  0.14918041153E+04  0.00000000000E+00 0. -1.
        -13    1    3    3    0    0  0.15798481125E+04  0.35965837833E+03  0.45498652575E+03  0.16829399710E+04  0.00000000000E+00 0.  1.
         22    1    1    2    0    0 -0.29640706827E+04 -0.64742745636E+03  0.67205049626E+03  0.31074956465E+04  0.00000000000E+00 0.  1.
<mgrwt>
<rscale>  0 0.60742687E+04</rscale>
<asrwt>0</asrwt>
<pdfrwt beam="1">  1        2 0.35993703E+00 0.60742687E+04</pdfrwt>
<pdfrwt beam="2">  1       -2 0.60656139E+00 0.60742687E+04</pdfrwt>
<totfact> 0.14096035E-03</totfact>
</mgrwt>
</event>
<event>
 6    1  0.1014650E-006  0.1116432E+04  0.7818608E-02  0.9189323E-01
         -1   -1    0    0    0  501 -0.00000000000E+00  0.00000000000E+00  0.58107067621E+03  0.58107067621E+03  0.00000000000E+00 0.  1.
          1   -1    0    0  501    0  0.00000000000E+00 -0.00000000000E+00 -0.53626002795E+03  0.53626002795E+03  0.00000000000E+00 0. -1.
         23    2    1    2    0    0  0.11657231979E+03  0.50862152033E+03 -0.16514930058E+03  0.55486458359E+03  0.91189132904E+02 0.  0.
         11    1    3    3    0    0  0.14260276324E+02  0.40331474733E+02  0.11028212573E+02  0.44176971462E+02  0.00000000000E+00 0.  1.
        -11    1    3    3    0    0  0.10231204347E+03  0.46829004559E+03 -0.17617751315E+03  0.51068761213E+03  0.00000000000E+00 0. -1.
         22    1    1    2    0    0 -0.11657231979E+03 -0.50862152033E+03  0.20995994884E+03  0.56246612058E+03  0.00000000000E+00 0.  1.
<mgrwt>
<rscale>  0 0.11164318E+04</rscale>
<asrwt>0</asrwt>
<pdfrwt beam="1">  1        1 0.82501542E-01 0.11164318E+04</pdfrwt>
<pdfrwt beam="2">  1       -1 0.89395489E-01 0.11164318E+04</pdfrwt>
<totfact> 0.49090467E+01</totfact>
</mgrwt>
</event>
<event>
 6    1  0.1014650E-006  0.2091349E+04  0.7818608E-02  0.8565064E-01
         -2   -1    0    0    0  501 -0.00000000000E+00  0.00000000000E+00  0.88495213294E+03  0.88495213294E+03  0.00000000000E+00 0.  1.
          2   -1    0    0  501    0  0.00000000000E+00 -0.00000000000E+00 -0.12355863583E+04  0.12355863583E+04  0.00000000000E+00 0. -1.
         23    2    1    2    0    0  0.16122607964E+03 -0.57736552429E+03 -0.10419344984E+04  0.12055298220E+04  0.91268040718E+02 0.  0.
         13    1    3    3    0    0  0.81802279436E+02 -0.19125164006E+03 -0.42911494848E+03  0.47687361194E+03  0.00000000000E+00 0.  1.
        -13    1    3    3    0    0  0.79423800200E+02 -0.38611388423E+03 -0.61281954992E+03  0.72865621002E+03  0.00000000000E+00 0. -1.
         22    1    1    2    0    0 -0.16122607964E+03  0.57736552429E+03  0.69130027303E+03  0.91500866930E+03  0.00000000000E+00 0.  1.
<mgrwt>
<rscale>  0 0.20913486E+04</rscale>
<asrwt>0</asrwt>
<pdfrwt beam="1">  1        2 0.19009021E+00 0.20913486E+04</pdfrwt>
<pdfrwt beam="2">  1       -2 0.13614648E+00 0.20913486E+04</pdfrwt>
<totfact> 0.64230894E+00</totfact>
</mgrwt>
</event>
<event>
 6    1  0.1014650E-006  0.1697809E+04  0.7818608E-02  0.8762615E-01
          1   -1    0    0  501    0  0.00000000000E+00  0.00000000000E+00  0.15939606951E+04  0.15939606951E+04  0.00000000000E+00 0. -1.
         -1   -1    0    0    0  501 -0.00000000000E+00 -0.00000000000E+00 -0.45210567119E+03  0.45210567119E+03  0.00000000000E+00 0.  1.
         23    2    1    2    0    0 -0.37260430952E+03  0.69117728963E+03  0.95465239372E+03  0.12388459243E+04  0.82571267824E+02 0.  0.
         13    1    3    3    0    0 -0.15869934049E+03  0.38028442504E+03  0.48841402277E+03  0.63902267740E+03  0.00000000000E+00 0.  1.
        -13    1    3    3    0    0 -0.21390496903E+03  0.31089286458E+03  0.46623837095E+03  0.59982324694E+03  0.00000000000E+00 0. -1.
         22    1    1    2    0    0  0.37260430952E+03 -0.69117728963E+03  0.18720263021E+03  0.80722044196E+03  0.00000000000E+00 0.  1.
<mgrwt>
<rscale>  0 0.16978088E+04</rscale>
<asrwt>0</asrwt>
<pdfrwt beam="1">  1        1 0.24522472E+00 0.16978088E+04</pdfrwt>
<pdfrwt beam="2">  1       -1 0.69554719E-01 0.16978088E+04</pdfrwt>
<totfact> 0.11208813E+01</totfact>
</mgrwt>
</event>
<event>
 6    1  0.1014650E-006  0.1259403E+04  0.7818608E-02  0.9062393E-01
         -1   -1    0    0    0  501 -0.00000000000E+00  0.00000000000E+00  0.44365990260E+03  0.44365990260E+03  0.00000000000E+00 0.  1.
          1   -1    0    0  501    0  0.00000000000E+00 -0.00000000000E+00 -0.89375641720E+03  0.89375641720E+03  0.00000000000E+00 0. -1.
         23    2    1    2    0    0  0.32338586945E+03  0.17070963263E+03 -0.76635870694E+03  0.85394763049E+03  0.90557653887E+02 0.  0.
         11    1    3    3    0    0  0.20637845584E+03  0.93083935199E+02 -0.37361899527E+03  0.43686135061E+03  0.00000000000E+00 0.  1.
        -11    1    3    3    0    0  0.11700741361E+03  0.77625697430E+02 -0.39273971167E+03  0.41708627988E+03  0.00000000000E+00 0. -1.
         22    1    1    2    0    0 -0.32338586945E+03 -0.17070963263E+03  0.31626219235E+03  0.48346868931E+03  0.00000000000E+00 0.  1.
<mgrwt>
<rscale>  0 0.12594029E+04</rscale>
<asrwt>0</asrwt>
<pdfrwt beam="1">  1        1 0.13750099E+00 0.12594029E+04</pdfrwt>
<pdfrwt beam="2">  1       -1 0.68255370E-01 0.12594029E+04</pdfrwt>
<totfact> 0.39436313E+01</totfact>
</mgrwt>
</event>
<event>
 6    1  0.1014650E-006  0.2790525E+04  0.7818608E-02  0.8306216E-01
         -2   -1    0    0    0  501 -0.00000000000E+00  0.00000000000E+00  0.87868872341E+03  0.87868872341E+03  0.00000000000E+00 0.  1.
          2   -1    0    0  501    0  0.00000000000E+00 -0.00000000000E+00 -0.22155251641E+04  0.22155251641E+04  0.00000000000E+00 0. -1.
         23    2    1    2    0    0  0.29333135935E+03 -0.13616148716E+04 -0.72465140603E+03  0.15727642953E+04  0.91812435382E+02 0.  0.
         11    1    3    3    0    0  0.14740960172E+03 -0.48348764158E+03 -0.27668687032E+03  0.57623390602E+03  0.00000000000E+00 0. -1.
        -11    1    3    3    0    0  0.14592175762E+03 -0.87812723005E+03 -0.44796453571E+03  0.99653038928E+03  0.00000000000E+00 0.  1.
         22    1    1    2    0    0 -0.29333135935E+03  0.13616148716E+04 -0.61218503467E+03  0.15214495922E+04  0.00000000000E+00 0. -1.
<mgrwt>
<rscale>  0 0.27905247E+04</rscale>
<asrwt>0</asrwt>
<pdfrwt beam="1">  1        2 0.34085002E+00 0.27905247E+04</pdfrwt>
<pdfrwt beam="2">  1       -2 0.13518288E+00 0.27905247E+04</pdfrwt>
<totfact> 0.17325742E+00</totfact>
</mgrwt>
</event>
<event>
 6    1  0.1014650E-006  0.1838719E+04  0.7818608E-02  0.8685976E-01
          1   -1    0    0  501    0  0.00000000000E+00  0.00000000000E+00  0.16469067705E+04  0.16469067705E+04  0.00000000000E+00 0. -1.
         -1   -1    0    0    0  501 -0.00000000000E+00 -0.00000000000E+00 -0.51321781341E+03  0.51321781341E+03  0.00000000000E+00 0.  1.
         23    2    1    2    0    0 -0.47253566457E+03  0.63731438956E+03  0.11086213906E+04  0.13663437777E+04  0.91620661153E+02 0.  0.
         11    1    3    3    0    0 -0.23742834004E+03  0.38980764430E+03  0.60267470211E+03  0.75600199257E+03  0.00000000000E+00 0. -1.
        -11    1    3    3    0    0 -0.23510732453E+03  0.24750674526E+03  0.50594668852E+03  0.61034178508E+03  0.00000000000E+00 0.  1.
         22    1    1    2    0    0  0.47253566457E+03 -0.63731438956E+03  0.25067566423E+02  0.79378080622E+03  0.00000000000E+00 0.  1.
<mgrwt>
<rscale>  0 0.18387190E+04</rscale>
<asrwt>0</asrwt>
<pdfrwt beam="1">  1        1 0.25337027E+00 0.18387190E+04</pdfrwt>
<pdfrwt beam="2">  1       -1 0.78956588E-01 0.18387190E+04</pdfrwt>
<totfact> 0.78165767E+00</totfact>
</mgrwt>
</event>
<event>
 6    1  0.1014650E-006  0.8952918E+03  0.7818608E-02  0.9431486E-01
          2   -1    0    0  501    0  0.00000000000E+00  0.00000000000E+00  0.54238782310E+03  0.54238782310E+03  0.00000000000E+00 0. -1.
         -2   -1    0    0    0  501 -0.00000000000E+00 -0.00000000000E+00 -0.36945305026E+03  0.36945305026E+03  0.00000000000E+00 0.  1.
         23    2    1    2    0    0  0.28724824630E+03 -0.14179238677E+03  0.39896729232E+03  0.51978560199E+03  0.91572570938E+02 0.  0.
         13    1    3    3    0    0  0.19927234439E+03 -0.89717772108E+02  0.20070562532E+03  0.29671786921E+03  0.00000000000E+00 0.  1.
        -13    1    3    3    0    0  0.87975901910E+02 -0.52074614659E+02  0.19826166699E+03  0.22306773278E+03  0.00000000000E+00 0. -1.
         22    1    1    2    0    0 -0.28724824630E+03  0.14179238677E+03 -0.22603251947E+03  0.39205527137E+03  0.00000000000E+00 0.  1.
<mgrwt>
<rscale>  0 0.89529176E+03</rscale>
<asrwt>0</asrwt>
<pdfrwt beam="1">  1        2 0.83444280E-01 0.89529176E+03</pdfrwt>
<pdfrwt beam="2">  1       -2 0.56838931E-01 0.89529176E+03</pdfrwt>
<totfact> 0.16309711E+02</totfact>
</mgrwt>
</event>
<event>
 6    1  0.1014650E-006  0.4348823E+04  0.7818608E-02  0.7937651E-01
          2   -1    0    0  501    0  0.00000000000E+00  0.00000000000E+00  0.20099061527E+04  0.20099061527E+04  0.00000000000E+00 0. -1.
         -2   -1    0    0    0  501 -0.00000000000E+00 -0.00000000000E+00 -0.23523812457E+04  0.23523812457E+04  0.00000000000E+00 0.  1.
         23    2    1    2    0    0  0.80011349277E+03 -0.89802872634E+03  0.16446794546E+04  0.20394829748E+04  0.88786831292E+02 0.  0.
         13    1    3    3    0    0  0.57236361958E+03 -0.65720668469E+03  0.11246095211E+04  0.14227674843E+04  0.00000000000E+00 0.  1.
        -13    1    3    3    0    0  0.22774987319E+03 -0.24082204165E+03  0.52006993344E+03  0.61671549044E+03  0.00000000000E+00 0. -1.
         22    1    1    2    0    0 -0.80011349277E+03  0.89802872634E+03 -0.19871545475E+04  0.23228044236E+04  0.00000000000E+00 0.  1.
<mgrwt>
<rscale>  0 0.43488231E+04</rscale>
<asrwt>0</asrwt>
<pdfrwt beam="1">  1        2 0.30921633E+00 0.43488231E+04</pdfrwt>
<pdfrwt beam="2">  1       -2 0.36190480E+00 0.43488231E+04</pdfrwt>
<totfact> 0.66162761E-02</totfact>
</mgrwt>
</event>
<event>
 6    1  0.1014650E-006  0.3534873E+04  0.7818608E-02  0.8105575E-01
          2   -1    0    0  501    0  0.00000000000E+00  0.00000000000E+00  0.18378432613E+04  0.18378432613E+04  0.00000000000E+00 0. -1.
         -2   -1    0    0    0  501 -0.00000000000E+00 -0.00000000000E+00 -0.16997268064E+04  0.16997268064E+04  0.00000000000E+00 0.  1.
         23    2    1    2    0    0  0.12969327559E+04  0.11454639770E+04  0.42357037984E+03  0.17838294258E+04  0.92267316492E+02 0.  0.
         13    1    3    3    0    0  0.34704034784E+03  0.25841517530E+03  0.88172165292E+02  0.44157642214E+03  0.00000000000E+00 0. -1.
        -13    1    3    3    0    0  0.94989240806E+03  0.88704880168E+03  0.33539821455E+03  0.13422530036E+04  0.00000000000E+00 0.  1.
         22    1    1    2    0    0 -0.12969327559E+04 -0.11454639770E+04 -0.28545392497E+03  0.17537406419E+04  0.00000000000E+00 0.  1.
<mgrwt>
<rscale>  0 0.35348728E+04</rscale>
<asrwt>0</asrwt>
<pdfrwt beam="1">  1        2 0.28274512E+00 0.35348728E+04</pdfrwt>
<pdfrwt beam="2">  1       -2 0.26149643E+00 0.35348728E+04</pdfrwt>
<totfact> 0.36801605E-01</totfact>
</mgrwt>
</event>
<event>
 6    1  0.1014650E-006  0.1524817E+04  0.7818608E-02  0.8868115E-01
         -2   -1    0    0    0  501 -0.00000000000E+00  0.00000000000E+00  0.10440775747E+04  0.10440775747E+04  0.00000000000E+00 0.  1.
          2   -1    0    0  501    0  0.00000000000E+00 -0.00000000000E+00 -0.55672785225E+03  0.55672785225E+03  0.00000000000E+00 0. -1.
         23    2    1    2    0    0 -0.43390336464E+03 -0.17876352926E+03 -0.38265852024E+03  0.61230005439E+03  0.90858594863E+02 0.  0.
         13    1    3    3    0    0 -0.36682952208E+03 -0.17474817796E+03 -0.29633250517E+03  0.50290533661E+03  0.00000000000E+00 0.  1.
        -13    1    3    3    0    0 -0.67073842562E+02 -0.40153513016E+01 -0.86326015066E+02  0.10939471778E+03  0.00000000000E+00 0. -1.
         22    1    1    2    0    0  0.43390336464E+03  0.17876352926E+03  0.87000824272E+03  0.98850537259E+03  0.00000000000E+00 0.  1.
<mgrwt>
<rscale>  0 0.15248175E+04</rscale>
<asrwt>0</asrwt>
<pdfrwt beam="1">  1        2 0.85650439E-01 0.15248175E+04</pdfrwt>
<pdfrwt beam="2">  1       -2 0.16062732E+00 0.15248175E+04</pdfrwt>
<totfact> 0.13029605E+01</totfact>
</mgrwt>
</event>
<event>
 6    1  0.1014650E-006  0.2233759E+04  0.7818608E-02  0.8504507E-01
          2   -1    0    0  501    0  0.00000000000E+00  0.00000000000E+00  0.16374123641E+04  0.16374123641E+04  0.00000000000E+00 0. -1.
         -2   -1    0    0    0  501 -0.00000000000E+00 -0.00000000000E+00 -0.76182388178E+03  0.76182388178E+03  0.00000000000E+00 0.  1.
         23    2    1    2    0    0 -0.19832501476E+03  0.51247610659E+03  0.14805606583E+04  0.15819505523E+04  0.92428976224E+02 0.  0.
         11    1    3    3    0    0 -0.16066672503E+03  0.40683754436E+03  0.10602625659E+04  0.11469469441E+04  0.00000000000E+00 0.  1.
        -11    1    3    3    0    0 -0.37658289727E+02  0.10563856223E+03  0.42029809240E+03  0.43500360814E+03  0.00000000000E+00 0. -1.
         22    1    1    2    0    0  0.19832501476E+03 -0.51247610659E+03 -0.60497217596E+03  0.81728569362E+03  0.00000000000E+00 0.  1.
<mgrwt>
<rscale>  0 0.22337590E+04</rscale>
<asrwt>0</asrwt>
<pdfrwt beam="1">  1        2 0.25190959E+00 0.22337590E+04</pdfrwt>
<pdfrwt beam="2">  1       -2 0.11720367E+00 0.22337590E+04</pdfrwt>
<totfact> 0.54532820E+00</totfact>
</mgrwt>
</event>
<event>
 6    1  0.1014650E-006  0.1476903E+04  0.7818608E-02  0.8899959E-01
          2   -1    0    0  501    0  0.00000000000E+00  0.00000000000E+00  0.12281937684E+04  0.12281937684E+04  0.00000000000E+00 0. -1.
         -2   -1    0    0    0  501 -0.00000000000E+00 -0.00000000000E+00 -0.44399399185E+03  0.44399399185E+03  0.00000000000E+00 0.  1.
         23    2    1    2    0    0  0.38580762419E+01 -0.59925445828E+03  0.87673108423E+03  0.10658191979E+04  0.90511756297E+02 0.  0.
         11    1    3    3    0    0  0.25386989632E+02 -0.18628519161E+03  0.33680447297E+03  0.38572519346E+03  0.00000000000E+00 0. -1.
        -11    1    3    3    0    0 -0.21528913390E+02 -0.41296926667E+03  0.53992661126E+03  0.68009400443E+03  0.00000000000E+00 0.  1.
         22    1    1    2    0    0 -0.38580762419E+01  0.59925445828E+03 -0.92531307672E+02  0.60636856236E+03  0.00000000000E+00 0.  1.
<mgrwt>
<rscale>  0 0.14769030E+04</rscale>
<asrwt>0</asrwt>
<pdfrwt beam="1">  1        2 0.18895289E+00 0.14769030E+04</pdfrwt>
<pdfrwt beam="2">  1       -2 0.68306769E-01 0.14769030E+04</pdfrwt>
<totfact> 0.34584076E+01</totfact>
</mgrwt>
</event>
<event>
 6    1  0.1014650E-006  0.1037689E+04  0.7818608E-02  0.9268147E-01
         -2   -1    0    0    0  501 -0.00000000000E+00  0.00000000000E+00  0.79461240626E+03  0.79461240626E+03  0.00000000000E+00 0.  1.
          2   -1    0    0  501    0  0.00000000000E+00 -0.00000000000E+00 -0.33878114298E+03  0.33878114298E+03  0.00000000000E+00 0. -1.
         23    2    1    2    0    0 -0.48548945347E+03  0.36193772293E+02  0.47051416747E+02  0.49769632452E+03  0.92074953415E+02 0.  0.
         11    1    3    3    0    0 -0.61077293089E+02 -0.23979275491E+02 -0.54241680911E+01  0.65839676363E+02  0.00000000000E+00 0. -1.
        -11    1    3    3    0    0 -0.42441216038E+03  0.60173047784E+02  0.52475584839E+02  0.43185664816E+03  0.00000000000E+00 0.  1.
         22    1    1    2    0    0  0.48548945347E+03 -0.36193772293E+02  0.40877984653E+03  0.63569722471E+03  0.00000000000E+00 0.  1.
<mgrwt>
<rscale>  0 0.10376892E+04</rscale>
<asrwt>0</asrwt>
<pdfrwt beam="1">  1        2 0.52120176E-01 0.10376892E+04</pdfrwt>
<pdfrwt beam="2">  1       -2 0.12224806E+00 0.10376892E+04</pdfrwt>
<totfact> 0.48393143E+01</totfact>
</mgrwt>
</event>
<event>
 6    1  0.1014650E-006  0.3036828E+04  0.7818608E-02  0.8233292E-01
         -2   -1    0    0    0  501 -0.00000000000E+00  0.00000000000E+00  0.29920357642E+04  0.29920357642E+04  0.00000000000E+00 0.  1.
          2   -1    0    0  501    0  0.00000000000E+00 -0.00000000000E+00 -0.77057255977E+03  0.77057255977E+03  0.00000000000E+00 0. -1.
         23    2    1    2    0    0 -0.10456463238E+04  0.58979670884E+03 -0.37437250215E+02  0.12045098786E+04  0.90587568570E+02 0.  0.
         13    1    3    3    0    0 -0.55083685164E+03  0.26675569036E+03  0.51710321527E+01  0.61205112127E+03  0.00000000000E+00 0.  1.
        -13    1    3    3    0    0 -0.49480947219E+03  0.32304101847E+03 -0.42608282367E+02  0.59245875731E+03  0.00000000000E+00 0. -1.
         22    1    1    2    0    0  0.10456463238E+04 -0.58979670884E+03  0.22589004546E+04  0.25580984454E+04  0.00000000000E+00 0.  1.
<mgrwt>
<rscale>  0 0.30368277E+04</rscale>
<asrwt>0</asrwt>
<pdfrwt beam="1">  1        2 0.11854963E+00 0.30368277E+04</pdfrwt>
<pdfrwt beam="2">  1       -2 0.46031319E+00 0.30368277E+04</pdfrwt>
<totfact> 0.91515716E-02</totfact>
</mgrwt>
</event>
<event>
 6    1  0.1014650E-006  0.2908395E+04  0.7818608E-02  0.8270384E-01
         -1   -1    0    0    0  501 -0.00000000000E+00  0.00000000000E+00  0.57174823768E+03  0.57174823768E+03  0.00000000000E+00 0.  1.
          1   -1    0    0  501    0  0.00000000000E+00 -0.00000000000E+00 -0.36986384204E+04  0.36986384204E+04  0.00000000000E+00 0. -1.
         23    2    1    2    0    0 -0.70946799219E+03  0.40704395625E+03  0.19753367864E+03  0.84681781487E+03  0.95138021401E+02 0.  0.
         13    1    3    3    0    0 -0.50273275750E+03  0.24084280392E+03  0.11686334380E+03  0.56956344931E+03  0.00000000000E+00 0.  1.
        -13    1    3    3    0    0 -0.20673523469E+03  0.16620115233E+03  0.80670334840E+02  0.27725436556E+03  0.00000000000E+00 0. -1.
         22    1    1    2    0    0  0.70946799219E+03 -0.40704395625E+03 -0.33244238613E+04  0.34235688432E+04  0.00000000000E+00 0. -1.
<mgrwt>
<rscale>  0 0.29083947E+04</rscale>
<asrwt>0</asrwt>
<pdfrwt beam="1">  1        1 0.56902129E+00 0.29083947E+04</pdfrwt>
<pdfrwt beam="2">  1       -1 0.87961268E-01 0.29083947E+04</pdfrwt>
<totfact> 0.18839867E-01</totfact>
</mgrwt>
</event>
<event>
 6    1  0.1014650E-006  0.1449583E+04  0.7818608E-02  0.8918689E-01
          1   -1    0    0  501    0  0.00000000000E+00  0.00000000000E+00  0.11628086667E+04  0.11628086667E+04  0.00000000000E+00 0. -1.
         -1   -1    0    0    0  501 -0.00000000000E+00 -0.00000000000E+00 -0.45177073448E+03  0.45177073448E+03  0.00000000000E+00 0.  1.
         23    2    1    2    0    0  0.12571178607E+03  0.70264586663E+03  0.23696706192E+03  0.75769092706E+03  0.91801336922E+02 0.  0.
         13    1    3    3    0    0  0.86625475365E+02  0.60365648541E+03  0.22731249077E+03  0.65082723807E+03  0.00000000000E+00 0. -1.
        -13    1    3    3    0    0  0.39086310704E+02  0.98989381219E+02  0.96545711492E+01  0.10686368898E+03  0.00000000000E+00 0.  1.
         22    1    1    2    0    0 -0.12571178607E+03 -0.70264586663E+03  0.47407087031E+03  0.85688847415E+03  0.00000000000E+00 0.  1.
<mgrwt>
<rscale>  0 0.14495833E+04</rscale>
<asrwt>0</asrwt>
<pdfrwt beam="1">  1        1 0.17889364E+00 0.14495833E+04</pdfrwt>
<pdfrwt beam="2">  1       -1 0.69503190E-01 0.14495833E+04</pdfrwt>
<totfact> 0.23144434E+01</totfact>
</mgrwt>
</event>
<event>
 6    1  0.1014650E-006  0.1806488E+04  0.7818608E-02  0.8702857E-01
          1   -1    0    0  501    0  0.00000000000E+00  0.00000000000E+00  0.75710385511E+03  0.75710385511E+03  0.00000000000E+00 0. -1.
         -1   -1    0    0    0  501 -0.00000000000E+00 -0.00000000000E+00 -0.10775924503E+04  0.10775924503E+04  0.00000000000E+00 0.  1.
         23    2    1    2    0    0  0.25938359051E+03  0.94887968618E+02 -0.10317184792E+04  0.10717208658E+04  0.88651114581E+02 0.  0.
         13    1    3    3    0    0  0.11247608372E+03  0.68830275013E+02 -0.61825119494E+03  0.63215742993E+03  0.00000000000E+00 0.  1.
        -13    1    3    3    0    0  0.14690750679E+03  0.26057693606E+02 -0.41346728428E+03  0.43956343582E+03  0.00000000000E+00 0. -1.
         22    1    1    2    0    0 -0.25938359051E+03 -0.94887968618E+02  0.71122988402E+03  0.76297543967E+03  0.00000000000E+00 0. -1.
<mgrwt>
<rscale>  0 0.18064876E+04</rscale>
<asrwt>0</asrwt>
<pdfrwt beam="1">  1        1 0.11647752E+00 0.18064876E+04</pdfrwt>
<pdfrwt beam="2">  1       -1 0.16578345E+00 0.18064876E+04</pdfrwt>
<totfact> 0.60177647E+00</totfact>
</mgrwt>
</event>
<event>
 6    1  0.1014650E-006  0.2649605E+04  0.7818608E-02  0.8351544E-01
         -1   -1    0    0    0  501 -0.00000000000E+00  0.00000000000E+00  0.59525846810E+03  0.59525846810E+03  0.00000000000E+00 0.  1.
          1   -1    0    0  501    0  0.00000000000E+00 -0.00000000000E+00 -0.29484692022E+04  0.29484692022E+04  0.00000000000E+00 0. -1.
         23    2    1    2    0    0  0.23736339524E+03 -0.11892546539E+04 -0.18857990650E+04  0.22440578347E+04  0.94283819627E+02 0.  0.
         13    1    3    3    0    0  0.96711254117E+02 -0.56775546804E+03 -0.97701934858E+03  0.11341367403E+04  0.00000000000E+00 0. -1.
        -13    1    3    3    0    0  0.14065214112E+03 -0.62149918584E+03 -0.90877971643E+03  0.11099210944E+04  0.00000000000E+00 0.  1.
         22    1    1    2    0    0 -0.23736339524E+03  0.11892546539E+04 -0.46741166908E+03  0.12996698356E+04  0.00000000000E+00 0.  1.
<mgrwt>
<rscale>  0 0.26496047E+04</rscale>
<asrwt>0</asrwt>
<pdfrwt beam="1">  1        1 0.45361065E+00 0.26496047E+04</pdfrwt>
<pdfrwt beam="2">  1       -1 0.91578226E-01 0.26496047E+04</pdfrwt>
<totfact> 0.66397293E-01</totfact>
</mgrwt>
</event>
<event>
 6    1  0.1014650E-006  0.3781053E+04  0.7818608E-02  0.8050233E-01
          1   -1    0    0  501    0  0.00000000000E+00  0.00000000000E+00  0.23358289585E+04  0.23358289585E+04  0.00000000000E+00 0. -1.
         -1   -1    0    0    0  501 -0.00000000000E+00 -0.00000000000E+00 -0.15301168388E+04  0.15301168388E+04  0.00000000000E+00 0.  1.
         23    2    1    2    0    0  0.93083045951E+03 -0.14388284818E+04 -0.41048202615E+03  0.17645650740E+04  0.92312849066E+02 0.  0.
         13    1    3    3    0    0  0.30205962954E+03 -0.53617502731E+03 -0.17129636244E+03  0.63880053498E+03  0.00000000000E+00 0. -1.
        -13    1    3    3    0    0  0.62877082996E+03 -0.90265345447E+03 -0.23918566371E+03  0.11257645390E+04  0.00000000000E+00 0.  1.
         22    1    1    2    0    0 -0.93083045951E+03  0.14388284818E+04  0.12161941459E+04  0.21013807234E+04  0.00000000000E+00 0.  1.
<mgrwt>
<rscale>  0 0.37810534E+04</rscale>
<asrwt>0</asrwt>
<pdfrwt beam="1">  1        1 0.35935830E+00 0.37810534E+04</pdfrwt>
<pdfrwt beam="2">  1       -1 0.23540259E+00 0.37810534E+04</pdfrwt>
<totfact> 0.12184557E-01</totfact>
</mgrwt>
</event>
<event>
 6    1  0.1014650E-006  0.5438677E+03  0.7818608E-02  0.1002923E+00
         -2   -1    0    0    0  501 -0.00000000000E+00  0.00000000000E+00  0.15605414194E+03  0.15605414194E+03  0.00000000000E+00 0.  1.
          2   -1    0    0  501    0  0.00000000000E+00 -0.00000000000E+00 -0.47386136697E+03  0.47386136697E+03  0.00000000000E+00 0. -1.
         23    2    1    2    0    0  0.25693917135E+03 -0.57253565264E+02 -0.18813838731E+03  0.33647093836E+03  0.92308889455E+02 0.  0.
         13    1    3    3    0    0  0.23819095125E+03 -0.39867411928E+02 -0.19453955316E+03  0.31011284646E+03  0.00000000000E+00 0. -1.
        -13    1    3    3    0    0  0.18748220099E+02 -0.17386153336E+02  0.64011658512E+01  0.26358091906E+02  0.00000000000E+00 0.  1.
         22    1    1    2    0    0 -0.25693917135E+03  0.57253565264E+02 -0.12966883772E+03  0.29344457055E+03  0.00000000000E+00 0.  1.
<mgrwt>
<rscale>  0 0.54386774E+03</rscale>
<asrwt>0</asrwt>
<pdfrwt beam="1">  1        2 0.72901748E-01 0.54386774E+03</pdfrwt>
<pdfrwt beam="2">  1       -2 0.24008330E-01 0.54386774E+03</pdfrwt>
<totfact> 0.10132558E+03</totfact>
</mgrwt>
</event>
<event>
 6    1  0.1014650E-006  0.6899385E+03  0.7818608E-02  0.9734595E-01
          2   -1    0    0  501    0  0.00000000000E+00  0.00000000000E+00  0.52776458769E+03  0.52776458769E+03  0.00000000000E+00 0. -1.
         -2   -1    0    0    0  501 -0.00000000000E+00 -0.00000000000E+00 -0.22548645723E+03  0.22548645723E+03  0.00000000000E+00 0.  1.
         23    2    1    2    0    0  0.10263260076E+03 -0.28535283230E+03 -0.11518063567E+02  0.31687077379E+03  0.91185151502E+02 0.  0.
         13    1    3    3    0    0  0.47269726816E+02 -0.20310498362E+03  0.27471148220E+02  0.21033479368E+03  0.00000000000E+00 0.  1.
        -13    1    3    3    0    0  0.55362873948E+02 -0.82247848674E+02 -0.38989211787E+02  0.10653598011E+03  0.00000000000E+00 0. -1.
         22    1    1    2    0    0 -0.10263260076E+03  0.28535283230E+03  0.31379619403E+03  0.43638027112E+03  0.00000000000E+00 0. -1.
<mgrwt>
<rscale>  0 0.68993845E+03</rscale>
<asrwt>0</asrwt>
<pdfrwt beam="1">  1        2 0.81194552E-01 0.68993845E+03</pdfrwt>
<pdfrwt beam="2">  1       -2 0.34690224E-01 0.68993845E+03</pdfrwt>
<totfact> 0.45360101E+02</totfact>
</mgrwt>
</event>
<event>
 6    1  0.1014650E-006  0.2352190E+04  0.7818608E-02  0.8457623E-01
          1   -1    0    0  501    0  0.00000000000E+00  0.00000000000E+00  0.81543552441E+03  0.81543552441E+03  0.00000000000E+00 0. -1.
         -1   -1    0    0    0  501 -0.00000000000E+00 -0.00000000000E+00 -0.16962707866E+04  0.16962707866E+04  0.00000000000E+00 0.  1.
         23    2    1    2    0    0  0.64302565517E+03  0.94606275446E+03 -0.72665741138E+03  0.13574587040E+04  0.78399049082E+02 0.  0.
         13    1    3    3    0    0  0.19091525314E+03  0.29920013595E+03 -0.26719609796E+03  0.44425568089E+03  0.00000000000E+00 0. -1.
        -13    1    3    3    0    0  0.45211040202E+03  0.64686261851E+03 -0.45946131343E+03  0.91320302309E+03  0.00000000000E+00 0.  1.
         22    1    1    2    0    0 -0.64302565517E+03 -0.94606275446E+03 -0.15417785076E+03  0.11542476070E+04  0.00000000000E+00 0. -1.
<mgrwt>
<rscale>  0 0.23521900E+04</rscale>
<asrwt>0</asrwt>
<pdfrwt beam="1">  1        1 0.12545162E+00 0.23521900E+04</pdfrwt>
<pdfrwt beam="2">  1       -1 0.26096473E+00 0.23521900E+04</pdfrwt>
<totfact> 0.11408052E+00</totfact>
</mgrwt>
</event>
<event>
 6    1  0.1014650E-006  0.2371185E+04  0.7818608E-02  0.8450371E-01
         -2   -1    0    0    0  501 -0.00000000000E+00  0.00000000000E+00  0.69007751066E+03  0.69007751066E+03  0.00000000000E+00 0.  1.
          2   -1    0    0  501    0  0.00000000000E+00 -0.00000000000E+00 -0.20369151729E+04  0.20369151729E+04  0.00000000000E+00 0. -1.
         23    2    1    2    0    0  0.23052240785E+03  0.10188620014E+04 -0.13155354049E+04  0.16819088640E+04  0.83448589011E+02 0.  0.
         13    1    3    3    0    0  0.14607736022E+03  0.68672242858E+03 -0.82146732403E+03  0.10806178110E+04  0.00000000000E+00 0.  1.
        -13    1    3    3    0    0  0.84445047623E+02  0.33213957285E+03 -0.49406808083E+03  0.60129105300E+03  0.00000000000E+00 0. -1.
         22    1    1    2    0    0 -0.23052240785E+03 -0.10188620014E+04 -0.31302257363E+02  0.10450838195E+04  0.00000000000E+00 0.  1.
<mgrwt>
<rscale>  0 0.23711848E+04</rscale>
<asrwt>0</asrwt>
<pdfrwt beam="1">  1        2 0.31337156E+00 0.23711848E+04</pdfrwt>
<pdfrwt beam="2">  1       -2 0.10616577E+00 0.23711848E+04</pdfrwt>
<totfact> 0.41111642E+00</totfact>
</mgrwt>
</event>
<event>
 6    1  0.1014650E-006  0.2736973E+04  0.7818608E-02  0.8323107E-01
         -2   -1    0    0    0  501 -0.00000000000E+00  0.00000000000E+00  0.83158554799E+03  0.83158554799E+03  0.00000000000E+00 0.  1.
          2   -1    0    0  501    0  0.00000000000E+00 -0.00000000000E+00 -0.22520290684E+04  0.22520290684E+04  0.00000000000E+00 0. -1.
         23    2    1    2    0    0  0.37661999169E+03 -0.61647856606E+03 -0.20184680274E+04  0.21457864064E+04  0.91091623483E+02 0.  0.
         11    1    3    3    0    0  0.28936619378E+03 -0.48992503674E+03 -0.16879037981E+04  0.17812295100E+04  0.00000000000E+00 0.  1.
        -11    1    3    3    0    0  0.87253797908E+02 -0.12655352933E+03 -0.33056422929E+03  0.36455689641E+03  0.00000000000E+00 0. -1.
         22    1    1    2    0    0 -0.37661999169E+03  0.61647856606E+03  0.59802450694E+03  0.93782820999E+03  0.00000000000E+00 0.  1.
<mgrwt>
<rscale>  0 0.27369727E+04</rscale>
<asrwt>0</asrwt>
<pdfrwt beam="1">  1        2 0.34646601E+00 0.27369727E+04</pdfrwt>
<pdfrwt beam="2">  1       -2 0.12793624E+00 0.27369727E+04</pdfrwt>
<totfact> 0.19089145E+00</totfact>
</mgrwt>
</event>
<event>
 6    1  0.1014650E-006  0.2942301E+04  0.7818608E-02  0.8260402E-01
          1   -1    0    0  501    0  0.00000000000E+00  0.00000000000E+00  0.12697753913E+04  0.12697753913E+04  0.00000000000E+00 0. -1.
         -1   -1    0    0    0  501 -0.00000000000E+00 -0.00000000000E+00 -0.17044622189E+04  0.17044622189E+04  0.00000000000E+00 0.  1.
         23    2    1    2    0    0 -0.30103621238E+03  0.12416691719E+04  0.51725479495E+03  0.13809523292E+04  0.84330771352E+02 0.  0.
         13    1    3    3    0    0 -0.25066828877E+03  0.11324292140E+04  0.46001582687E+03  0.12477359803E+04  0.00000000000E+00 0.  1.
        -13    1    3    3    0    0 -0.50367923609E+02  0.10923995795E+03  0.57238968082E+02  0.13321634888E+03  0.00000000000E+00 0. -1.
         22    1    1    2    0    0  0.30103621238E+03 -0.12416691719E+04 -0.95194162264E+03  0.15932852810E+04  0.00000000000E+00 0.  1.
<mgrwt>
<rscale>  0 0.29423013E+04</rscale>
<asrwt>0</asrwt>
<pdfrwt beam="1">  1        1 0.19535006E+00 0.29423013E+04</pdfrwt>
<pdfrwt beam="2">  1       -1 0.26222496E+00 0.29423013E+04</pdfrwt>
<totfact> 0.47197737E-01</totfact>
</mgrwt>
</event>
<event>
 6    1  0.1014650E-006  0.1064841E+04  0.7818608E-02  0.9240154E-01
          1   -1    0    0  501    0  0.00000000000E+00  0.00000000000E+00  0.60507728251E+03  0.60507728251E+03  0.00000000000E+00 0. -1.
         -1   -1    0    0    0  501 -0.00000000000E+00 -0.00000000000E+00 -0.46848825936E+03  0.46848825936E+03  0.00000000000E+00 0.  1.
         23    2    1    2    0    0 -0.24925816878E+03  0.34684066119E+03  0.38263038839E+03  0.58065131772E+03  0.91224227531E+02 0.  0.
         11    1    3    3    0    0 -0.16653219381E+03  0.15362742600E+03  0.19865231769E+03  0.30132557296E+03  0.00000000000E+00 0.  1.
        -11    1    3    3    0    0 -0.82725974970E+02  0.19321323518E+03  0.18397807070E+03  0.27932574476E+03  0.00000000000E+00 0. -1.
         22    1    1    2    0    0  0.24925816878E+03 -0.34684066119E+03 -0.24604136525E+03  0.49291422415E+03  0.00000000000E+00 0.  1.
<mgrwt>
<rscale>  0 0.10648410E+04</rscale>
<asrwt>0</asrwt>
<pdfrwt beam="1">  1        1 0.93088813E-01 0.10648410E+04</pdfrwt>
<pdfrwt beam="2">  1       -1 0.72075117E-01 0.10648410E+04</pdfrwt>
<totfact> 0.65663350E+01</totfact>
</mgrwt>
</event>
<event>
 6    1  0.1014650E-006  0.2115274E+04  0.7818608E-02  0.8554545E-01
          1   -1    0    0  501    0  0.00000000000E+00  0.00000000000E+00  0.14413688809E+04  0.14413688809E+04  0.00000000000E+00 0. -1.
         -1   -1    0    0    0  501 -0.00000000000E+00 -0.00000000000E+00 -0.77606479366E+03  0.77606479366E+03  0.00000000000E+00 0.  1.
         23    2    1    2    0    0 -0.84426743360E+03  0.32728442687E+03  0.90195419073E+03  0.12815352469E+04  0.94385546325E+02 0.  0.
         11    1    3    3    0    0 -0.20250960963E+03  0.38653265271E+02  0.22329801925E+03  0.30391811777E+03  0.00000000000E+00 0. -1.
        -11    1    3    3    0    0 -0.64175782397E+03  0.28863116160E+03  0.67865617148E+03  0.97761712913E+03  0.00000000000E+00 0.  1.
         22    1    1    2    0    0  0.84426743360E+03 -0.32728442687E+03 -0.23665010344E+03  0.93589842770E+03  0.00000000000E+00 0.  1.
<mgrwt>
<rscale>  0 0.21152736E+04</rscale>
<asrwt>0</asrwt>
<pdfrwt beam="1">  1        1 0.22174906E+00 0.21152736E+04</pdfrwt>
<pdfrwt beam="2">  1       -1 0.11939458E+00 0.21152736E+04</pdfrwt>
<totfact> 0.41373480E+00</totfact>
</mgrwt>
</event>
<event>
 6    1  0.1014650E-006  0.3305072E+04  0.7818608E-02  0.8161606E-01
          2   -1    0    0  501    0  0.00000000000E+00  0.00000000000E+00  0.11284240190E+04  0.11284240190E+04  0.00000000000E+00 0. -1.
         -2   -1    0    0    0  501 -0.00000000000E+00 -0.00000000000E+00 -0.24200796375E+04  0.24200796375E+04  0.00000000000E+00 0.  1.
         23    2    1    2    0    0 -0.86874070399E+03  0.12939049600E+03 -0.21476176664E+04  0.23220765944E+04  0.91245592012E+02 0.  0.
         11    1    3    3    0    0 -0.83692313484E+03  0.10864383789E+03 -0.20287326388E+04  0.21972710203E+04  0.00000000000E+00 0.  1.
        -11    1    3    3    0    0 -0.31817569150E+02  0.20746658109E+02 -0.11888502762E+03  0.12480557408E+03  0.00000000000E+00 0. -1.
         22    1    1    2    0    0  0.86874070399E+03 -0.12939049600E+03  0.85596204784E+03  0.12264270621E+04  0.00000000000E+00 0. -1.
<mgrwt>
<rscale>  0 0.33050725E+04</rscale>
<asrwt>0</asrwt>
<pdfrwt beam="1">  1        2 0.17360370E+00 0.33050725E+04</pdfrwt>
<pdfrwt beam="2">  1       -2 0.37231994E+00 0.33050725E+04</pdfrwt>
<totfact> 0.19588557E-01</totfact>
</mgrwt>
</event>
<event>
 6    1  0.1014650E-006  0.2030275E+04  0.7818608E-02  0.8592595E-01
          2   -1    0    0  501    0  0.00000000000E+00  0.00000000000E+00  0.11031188530E+04  0.11031188530E+04  0.00000000000E+00 0. -1.
         -2   -1    0    0    0  501 -0.00000000000E+00 -0.00000000000E+00 -0.93417370012E+03  0.93417370012E+03  0.00000000000E+00 0.  1.
         23    2    1    2    0    0 -0.32735998387E+03 -0.95852160049E+03  0.10413019559E+03  0.10223397482E+04  0.91691032497E+02 0.  0.
         13    1    3    3    0    0 -0.25195011618E+03 -0.66846500642E+03  0.10878060125E+03  0.72260469487E+03  0.00000000000E+00 0.  1.
        -13    1    3    3    0    0 -0.75409867695E+02 -0.29005659407E+03 -0.46504056604E+01  0.29973505331E+03  0.00000000000E+00 0. -1.
         22    1    1    2    0    0  0.32735998387E+03  0.95852160049E+03  0.64814957326E+02  0.10149528050E+04  0.00000000000E+00 0. -1.
<mgrwt>
<rscale>  0 0.20302755E+04</rscale>
<asrwt>0</asrwt>
<pdfrwt beam="1">  1        2 0.16971059E+00 0.20302755E+04</pdfrwt>
<pdfrwt beam="2">  1       -2 0.14371903E+00 0.20302755E+04</pdfrwt>
<totfact> 0.67422614E+00</totfact>
</mgrwt>
</event>
<event>
 6    1  0.1014650E-006  0.1479563E+04  0.7818608E-02  0.8898158E-01
          2   -1    0    0  501    0  0.00000000000E+00  0.00000000000E+00  0.23804291338E+04  0.23804291338E+04  0.00000000000E+00 0. -1.
         -2   -1    0    0    0  501 -0.00000000000E+00 -0.00000000000E+00 -0.22990687579E+03  0.22990687579E+03  0.00000000000E+00 0.  1.
         23    2    1    2    0    0  0.53279346262E+03  0.43498248799E+03  0.61202782159E+03  0.92509306877E+03  0.90224679708E+02 0.  0.
         11    1    3    3    0    0  0.40149187328E+03  0.37354070760E+03  0.49577604931E+03  0.73927144921E+03  0.00000000000E+00 0.  1.
        -11    1    3    3    0    0  0.13130158934E+03  0.61441780389E+02  0.11625177227E+03  0.18582161956E+03  0.00000000000E+00 0. -1.
         22    1    1    2    0    0 -0.53279346262E+03 -0.43498248799E+03  0.15384944364E+04  0.16852429408E+04  0.00000000000E+00 0.  1.
<mgrwt>
<rscale>  0 0.14795635E+04</rscale>
<asrwt>0</asrwt>
<pdfrwt beam="1">  1        2 0.36621985E+00 0.14795635E+04</pdfrwt>
<pdfrwt beam="2">  1       -2 0.35370290E-01 0.14795635E+04</pdfrwt>
<totfact> 0.29701226E+01</totfact>
</mgrwt>
</event>
<event>
 6    1  0.1014650E-006  0.1550305E+04  0.7818608E-02  0.8851673E-01
          2   -1    0    0  501    0  0.00000000000E+00  0.00000000000E+00  0.32958090492E+04  0.32958090492E+04  0.00000000000E+00 0. -1.
         -2   -1    0    0    0  501 -0.00000000000E+00 -0.00000000000E+00 -0.18231083499E+03  0.18231083499E+03  0.00000000000E+00 0.  1.
         23    2    1    2    0    0  0.50939214140E+03  0.45796085378E+02  0.28613303852E+04  0.29078863801E+04  0.83749574199E+02 0.  0.
         13    1    3    3    0    0  0.43644915454E+03  0.16108331559E+02  0.23053195292E+04  0.23463259523E+04  0.00000000000E+00 0.  1.
        -13    1    3    3    0    0  0.72942986862E+02  0.29687753818E+02  0.55601085603E+03  0.56156042781E+03  0.00000000000E+00 0. -1.
         22    1    1    2    0    0 -0.50939214140E+03 -0.45796085378E+02  0.25216782894E+03  0.57023350402E+03  0.00000000000E+00 0.  1.
<mgrwt>
<rscale>  0 0.15503054E+04</rscale>
<asrwt>0</asrwt>
<pdfrwt beam="1">  1        2 0.50704750E+00 0.15503054E+04</pdfrwt>
<pdfrwt beam="2">  1       -2 0.28047823E-01 0.15503054E+04</pdfrwt>
<totfact> 0.12666161E+01</totfact>
</mgrwt>
</event>
<event>
 6    1  0.1014650E-006  0.1178235E+04  0.7818608E-02  0.9132123E-01
          2   -1    0    0  501    0  0.00000000000E+00  0.00000000000E+00  0.21089006730E+04  0.21089006730E+04  0.00000000000E+00 0. -1.
         -2   -1    0    0    0  501 -0.00000000000E+00 -0.00000000000E+00 -0.16456897904E+03  0.16456897904E+03  0.00000000000E+00 0.  1.
         23    2    1    2    0    0 -0.41872696022E+03  0.37369420678E+03  0.13004388375E+04  0.14193164819E+04  0.91315269347E+02 0.  0.
         11    1    3    3    0    0 -0.70219578017E+02  0.85965370048E+02  0.34429349100E+03  0.36174416640E+03  0.00000000000E+00 0. -1.
        -11    1    3    3    0    0 -0.34850738220E+03  0.28772883673E+03  0.95614534650E+03  0.10575723155E+04  0.00000000000E+00 0.  1.
         22    1    1    2    0    0  0.41872696022E+03 -0.37369420678E+03  0.64389285644E+03  0.85415317009E+03  0.00000000000E+00 0. -1.
<mgrwt>
<rscale>  0 0.11782353E+04</rscale>
<asrwt>0</asrwt>
<pdfrwt beam="1">  1        2 0.32444624E+00 0.11782353E+04</pdfrwt>
<pdfrwt beam="2">  1       -2 0.25318306E-01 0.11782353E+04</pdfrwt>
<totfact> 0.80665362E+01</totfact>
</mgrwt>
</event>
<event>
 6    1  0.1014650E-006  0.1277569E+04  0.7818608E-02  0.9047545E-01
          1   -1    0    0  501    0  0.00000000000E+00  0.00000000000E+00  0.30325594981E+03  0.30325594981E+03  0.00000000000E+00 0. -1.
         -1   -1    0    0    0  501 -0.00000000000E+00 -0.00000000000E+00 -0.13455478813E+04  0.13455478813E+04  0.00000000000E+00 0.  1.
         23    2    1    2    0    0 -0.95117811956E+02  0.56186894716E+03 -0.88695384392E+03  0.10581482348E+04  0.90809986877E+02 0.  0.
         11    1    3    3    0    0 -0.72075190211E+02  0.39136698025E+03 -0.53907582335E+03  0.67004902029E+03  0.00000000000E+00 0. -1.
        -11    1    3    3    0    0 -0.23042621745E+02  0.17050196691E+03 -0.34787802057E+03  0.38809921455E+03  0.00000000000E+00 0.  1.
         22    1    1    2    0    0  0.95117811956E+02 -0.56186894716E+03 -0.15533808756E+03  0.59065559625E+03  0.00000000000E+00 0. -1.
<mgrwt>
<rscale>  0 0.12775686E+04</rscale>
<asrwt>0</asrwt>
<pdfrwt beam="1">  1        1 0.46654762E-01 0.12775686E+04</pdfrwt>
<pdfrwt beam="2">  1       -1 0.20700736E+00 0.12775686E+04</pdfrwt>
<totfact> 0.11464946E+01</totfact>
</mgrwt>
</event>
<event>
 6    1  0.1014650E-006  0.6957801E+03  0.7818608E-02  0.9724476E-01
         -2   -1    0    0    0  501 -0.00000000000E+00  0.00000000000E+00  0.30143422772E+03  0.30143422772E+03  0.00000000000E+00 0.  1.
          2   -1    0    0  501    0  0.00000000000E+00 -0.00000000000E+00 -0.40150541000E+03  0.40150541000E+03  0.00000000000E+00 0. -1.
         23    2    1    2    0    0  0.12401498959E+03  0.16949024822E+02 -0.37219346567E+03  0.40341080070E+03  0.92440852184E+02 0.  0.
         11    1    3    3    0    0  0.75359656794E+02  0.55444319354E+02 -0.22492727825E+03  0.24360917660E+03  0.00000000000E+00 0. -1.
        -11    1    3    3    0    0  0.48655332792E+02 -0.38495294532E+02 -0.14726618742E+03  0.15980162411E+03  0.00000000000E+00 0.  1.
         22    1    1    2    0    0 -0.12401498959E+03 -0.16949024822E+02  0.27212228339E+03  0.29952883702E+03  0.00000000000E+00 0.  1.
<mgrwt>
<rscale>  0 0.69578006E+03</rscale>
<asrwt>0</asrwt>
<pdfrwt beam="1">  1        2 0.61770063E-01 0.69578006E+03</pdfrwt>
<pdfrwt beam="2">  1       -2 0.46374497E-01 0.69578006E+03</pdfrwt>
<totfact> 0.35217825E+02</totfact>
</mgrwt>
</event>
<event>
 6    1  0.1014650E-006  0.1353077E+04  0.7818608E-02  0.8988502E-01
         -2   -1    0    0    0  501 -0.00000000000E+00  0.00000000000E+00  0.23078338671E+03  0.23078338671E+03  0.00000000000E+00 0.  1.
          2   -1    0    0  501    0  0.00000000000E+00 -0.00000000000E+00 -0.19832639631E+04  0.19832639631E+04  0.00000000000E+00 0. -1.
         23    2    1    2    0    0 -0.11519085793E+03 -0.33303600259E+03  0.59100701691E+02  0.36850985631E+03  0.90137164844E+02 0.  0.
         13    1    3    3    0    0 -0.10093769313E+03 -0.22664583920E+03  0.46536530183E+01  0.24814997644E+03  0.00000000000E+00 0.  1.
        -13    1    3    3    0    0 -0.14253164797E+02 -0.10639016339E+03  0.54447048673E+02  0.12035987987E+03  0.00000000000E+00 0. -1.
         22    1    1    2    0    0  0.11519085793E+03  0.33303600259E+03 -0.18115812781E+04  0.18455374935E+04  0.00000000000E+00 0. -1.
<mgrwt>
<rscale>  0 0.13530770E+04</rscale>
<asrwt>0</asrwt>
<pdfrwt beam="1">  1        2 0.30511752E+00 0.13530770E+04</pdfrwt>
<pdfrwt beam="2">  1       -2 0.35505137E-01 0.13530770E+04</pdfrwt>
<totfact> 0.49715966E+01</totfact>
</mgrwt>
</event>
<event>
 6    1  0.1014650E-006  0.2531444E+04  0.7818608E-02  0.8391868E-01
          2   -1    0    0  501    0  0.00000000000E+00  0.00000000000E+00  0.87873510629E+03  0.87873510629E+03  0.00000000000E+00 0. -1.
         -2   -1    0    0    0  501 -0.00000000000E+00 -0.00000000000E+00 -0.18231347664E+04  0.18231347664E+04  0.00000000000E+00 0.  1.
         23    2    1    2    0    0 -0.12865517706E+02 -0.12618509723E+04 -0.55081799599E+03  0.13800000137E+04  0.92553635358E+02 0.  0.
         11    1    3    3    0    0 -0.44815278808E+02 -0.35663152229E+03 -0.16378430455E+03  0.39499335478E+03  0.00000000000E+00 0.  1.
        -11    1    3    3    0    0  0.31949761103E+02 -0.90521944998E+03 -0.38703369144E+03  0.98500665894E+03  0.00000000000E+00 0. -1.
         22    1    1    2    0    0  0.12865517706E+02  0.12618509723E+04 -0.39358166416E+03  0.13218698590E+04  0.00000000000E+00 0.  1.
<mgrwt>
<rscale>  0 0.25314443E+04</rscale>
<asrwt>0</asrwt>
<pdfrwt beam="1">  1        2 0.13519002E+00 0.25314443E+04</pdfrwt>
<pdfrwt beam="2">  1       -2 0.28048227E+00 0.25314443E+04</pdfrwt>
<totfact> 0.11281024E+00</totfact>
</mgrwt>
</event>
<event>
 6    1  0.1014650E-006  0.9560097E+03  0.7818608E-02  0.9358154E-01
          2   -1    0    0  501    0  0.00000000000E+00  0.00000000000E+00  0.63081521628E+03  0.63081521628E+03  0.00000000000E+00 0. -1.
         -2   -1    0    0    0  501 -0.00000000000E+00 -0.00000000000E+00 -0.36221167251E+03  0.36221167251E+03  0.00000000000E+00 0.  1.
         23    2    1    2    0    0  0.39162515878E+03 -0.14506888835E+03 -0.97894560193E+02  0.43738662066E+03  0.85489552940E+02 0.  0.
         13    1    3    3    0    0  0.31905380081E+03 -0.12761896940E+03 -0.46496911464E+02  0.34676201052E+03  0.00000000000E+00 0.  1.
        -13    1    3    3    0    0  0.72571357968E+02 -0.17449918950E+02 -0.51397648729E+02  0.90624610143E+02  0.00000000000E+00 0. -1.
         22    1    1    2    0    0 -0.39162515878E+03  0.14506888835E+03  0.36649810397E+03  0.55564026813E+03  0.00000000000E+00 0. -1.
<mgrwt>
<rscale>  0 0.95600970E+03</rscale>
<asrwt>0</asrwt>
<pdfrwt beam="1">  1        2 0.97048495E-01 0.95600970E+03</pdfrwt>
<pdfrwt beam="2">  1       -2 0.55724873E-01 0.95600970E+03</pdfrwt>
<totfact> 0.14129579E+02</totfact>
</mgrwt>
</event>
<event>
 6    1  0.1014650E-006  0.1988853E+04  0.7818608E-02  0.8611850E-01
         -1   -1    0    0    0  501 -0.00000000000E+00  0.00000000000E+00  0.12147282852E+04  0.12147282852E+04  0.00000000000E+00 0.  1.
          1   -1    0    0  501    0  0.00000000000E+00 -0.00000000000E+00 -0.81407846584E+03  0.81407846584E+03  0.00000000000E+00 0. -1.
         23    2    1    2    0    0 -0.28042091279E+02 -0.63864081663E+03  0.97502060357E+03  0.11694172879E+04  0.90681664812E+02 0.  0.
         11    1    3    3    0    0 -0.46119222913E+02 -0.54901886826E+03  0.87404684831E+03  0.10332021068E+04  0.00000000000E+00 0.  1.
        -11    1    3    3    0    0  0.18077131635E+02 -0.89621948371E+02  0.10097375526E+03  0.13621518113E+03  0.00000000000E+00 0. -1.
         22    1    1    2    0    0  0.28042091279E+02  0.63864081663E+03 -0.57437078422E+03  0.85938946312E+03  0.00000000000E+00 0. -1.
<mgrwt>
<rscale>  0 0.19888531E+04</rscale>
<asrwt>0</asrwt>
<pdfrwt beam="1">  1        1 0.12524284E+00 0.19888531E+04</pdfrwt>
<pdfrwt beam="2">  1       -1 0.18688128E+00 0.19888531E+04</pdfrwt>
<totfact> 0.37096258E+00</totfact>
</mgrwt>
</event>
<event>
 6    1  0.1014650E-006  0.5578883E+04  0.7818608E-02  0.7744927E-01
         -1   -1    0    0    0  501 -0.00000000000E+00  0.00000000000E+00  0.29535048746E+04  0.29535048746E+04  0.00000000000E+00 0.  1.
          1   -1    0    0  501    0  0.00000000000E+00 -0.00000000000E+00 -0.26344916844E+04  0.26344916844E+04  0.00000000000E+00 0. -1.
         23    2    1    2    0    0  0.40357687464E+03  0.15958945689E+04 -0.20951782711E+04  0.26659982392E+04  0.89559226075E+02 0.  0.
         11    1    3    3    0    0  0.16134584548E+03  0.81732966552E+03 -0.10450850234E+04  0.13365114927E+04  0.00000000000E+00 0. -1.
        -11    1    3    3    0    0  0.24223102916E+03  0.77856490335E+03 -0.10500932477E+04  0.13294867465E+04  0.00000000000E+00 0.  1.
         22    1    1    2    0    0 -0.40357687464E+03 -0.15958945689E+04  0.24141914614E+04  0.29219983198E+04  0.00000000000E+00 0.  1.
<mgrwt>
<rscale>  0 0.55788831E+04</rscale>
<asrwt>0</asrwt>
<pdfrwt beam="1">  1        1 0.40530641E+00 0.55788831E+04</pdfrwt>
<pdfrwt beam="2">  1       -1 0.45438536E+00 0.55788831E+04</pdfrwt>
<totfact> 0.22813644E-03</totfact>
</mgrwt>
</event>
<event>
 6    1  0.1014650E-006  0.1741940E+04  0.7818608E-02  0.8737799E-01
          1   -1    0    0  501    0  0.00000000000E+00  0.00000000000E+00  0.72379517694E+03  0.72379517694E+03  0.00000000000E+00 0. -1.
         -1   -1    0    0    0  501 -0.00000000000E+00 -0.00000000000E+00 -0.10480710474E+04  0.10480710474E+04  0.00000000000E+00 0.  1.
         23    2    1    2    0    0 -0.72024650773E+03 -0.19991092286E+03  0.28697813866E+03  0.80628304686E+03  0.94955203177E+02 0.  0.
         13    1    3    3    0    0 -0.16904311332E+03 -0.61352008831E+01  0.68533828434E+02  0.18251054898E+03  0.00000000000E+00 0. -1.
        -13    1    3    3    0    0 -0.55120339441E+03 -0.19377572198E+03  0.21844431023E+03  0.62377249788E+03  0.00000000000E+00 0.  1.
         22    1    1    2    0    0  0.72024650773E+03  0.19991092286E+03 -0.61125400913E+03  0.96558317749E+03  0.00000000000E+00 0.  1.
<mgrwt>
<rscale>  0 0.17419400E+04</rscale>
<asrwt>0</asrwt>
<pdfrwt beam="1">  1        1 0.11135310E+00 0.17419400E+04</pdfrwt>
<pdfrwt beam="2">  1       -1 0.16124170E+00 0.17419400E+04</pdfrwt>
<totfact> 0.70192760E+00</totfact>
</mgrwt>
</event>
<event>
 6    1  0.1014650E-006  0.1581143E+04  0.7818608E-02  0.8832217E-01
          2   -1    0    0  501    0  0.00000000000E+00  0.00000000000E+00  0.19141025432E+04  0.19141025432E+04  0.00000000000E+00 0. -1.
         -2   -1    0    0    0  501 -0.00000000000E+00 -0.00000000000E+00 -0.32652532832E+03  0.32652532832E+03  0.00000000000E+00 0.  1.
         23    2    1    2    0    0  0.25876370301E+03 -0.70885878605E+03  0.47565497693E+03  0.89682338582E+03  0.92763655183E+02 0.  0.
         13    1    3    3    0    0  0.46661613732E+02 -0.19116250605E+03  0.84325516348E+02  0.21408223332E+03  0.00000000000E+00 0.  1.
        -13    1    3    3    0    0  0.21210208927E+03 -0.51769628000E+03  0.39132946058E+03  0.68274115250E+03  0.00000000000E+00 0. -1.
         22    1    1    2    0    0 -0.25876370301E+03  0.70885878605E+03  0.11119222379E+04  0.13438044857E+04  0.00000000000E+00 0. -1.
<mgrwt>
<rscale>  0 0.15811426E+04</rscale>
<asrwt>0</asrwt>
<pdfrwt beam="1">  1        2 0.29447731E+00 0.15811426E+04</pdfrwt>
<pdfrwt beam="2">  1       -2 0.50234667E-01 0.15811426E+04</pdfrwt>
<totfact> 0.26846098E+01</totfact>
</mgrwt>
</event>
<event>
 6    1  0.1014650E-006  0.1406933E+04  0.7818608E-02  0.8948815E-01
         -1   -1    0    0    0  501 -0.00000000000E+00  0.00000000000E+00  0.20918562498E+03  0.20918562498E+03  0.00000000000E+00 0.  1.
          1   -1    0    0  501    0  0.00000000000E+00 -0.00000000000E+00 -0.23656746999E+04  0.23656746999E+04  0.00000000000E+00 0. -1.
         23    2    1    2    0    0  0.36834588543E+03  0.25455697804E+03 -0.20686994104E+04  0.21185874114E+04  0.91746513605E+02 0.  0.
         11    1    3    3    0    0  0.17251806178E+03  0.13070178965E+03 -0.12084289301E+04  0.12276587142E+04  0.00000000000E+00 0.  1.
        -11    1    3    3    0    0  0.19582782365E+03  0.12385518839E+03 -0.86027048033E+03  0.89092869722E+03  0.00000000000E+00 0. -1.
         22    1    1    2    0    0 -0.36834588543E+03 -0.25455697804E+03 -0.87789664527E+02  0.45627291348E+03  0.00000000000E+00 0.  1.
<mgrwt>
<rscale>  0 0.14069330E+04</rscale>
<asrwt>0</asrwt>
<pdfrwt beam="1">  1        1 0.36394994E+00 0.14069330E+04</pdfrwt>
<pdfrwt beam="2">  1       -1 0.32182405E-01 0.14069330E+04</pdfrwt>
<totfact> 0.14774484E+01</totfact>
</mgrwt>
</event>
<event>
 6    1  0.1014650E-006  0.1749922E+04  0.7818608E-02  0.8733393E-01
          1   -1    0    0  501    0  0.00000000000E+00  0.00000000000E+00  0.13022615806E+04  0.13022615806E+04  0.00000000000E+00 0. -1.
         -1   -1    0    0    0  501 -0.00000000000E+00 -0.00000000000E+00 -0.58786691868E+03  0.58786691868E+03  0.00000000000E+00 0.  1.
         23    2    1    2    0    0  0.40991443889E+03  0.72342497695E+03  0.64707327717E+03  0.10559188653E+04  0.69909081054E+02 0.  0.
         11    1    3    3    0    0  0.98214159645E+02  0.14789443454E+03  0.17174623706E+03  0.24701326861E+03  0.00000000000E+00 0. -1.
        -11    1    3    3    0    0  0.31170027924E+03  0.57553054240E+03  0.47532704011E+03  0.80890559670E+03  0.00000000000E+00 0.  1.
         22    1    1    2    0    0 -0.40991443889E+03 -0.72342497695E+03  0.67321384706E+02  0.83420963392E+03  0.00000000000E+00 0.  1.
<mgrwt>
<rscale>  0 0.17499217E+04</rscale>
<asrwt>0</asrwt>
<pdfrwt beam="1">  1        1 0.20034793E+00 0.17499217E+04</pdfrwt>
<pdfrwt beam="2">  1       -1 0.90441065E-01 0.17499217E+04</pdfrwt>
<totfact> 0.10205356E+01</totfact>
</mgrwt>
</event>
<event>
 6    1  0.1014650E-006  0.5103136E+04  0.7818608E-02  0.7812792E-01
         -1   -1    0    0    0  501 -0.00000000000E+00  0.00000000000E+00  0.18939056167E+04  0.18939056167E+04  0.00000000000E+00 0.  1.
          1   -1    0    0  501    0  0.00000000000E+00 -0.00000000000E+00 -0.34376050311E+04  0.34376050311E+04  0.00000000000E+00 0. -1.
         23    2    1    2    0    0  0.12471394554E+04  0.12638283428E+04 -0.26853913772E+04  0.32205678633E+04  0.90064489461E+02 0.  0.
         11    1    3    3    0    0  0.94078368754E+03  0.95760847435E+03 -0.20984207402E+04  0.24910755789E+04  0.00000000000E+00 0.  1.
        -11    1    3    3    0    0  0.30635576789E+03  0.30621986844E+03 -0.58697063699E+03  0.72949228443E+03  0.00000000000E+00 0. -1.
         22    1    1    2    0    0 -0.12471394554E+04 -0.12638283428E+04  0.11416919628E+04  0.21109427844E+04  0.00000000000E+00 0.  1.
<mgrwt>
<rscale>  0 0.51031361E+04</rscale>
<asrwt>0</asrwt>
<pdfrwt beam="1">  1        1 0.52886231E+00 0.51031361E+04</pdfrwt>
<pdfrwt beam="2">  1       -1 0.29137010E+00 0.51031361E+04</pdfrwt>
<totfact> 0.75173606E-03</totfact>
</mgrwt>
</event>
<event>
 6    1  0.1014650E-006  0.4337444E+04  0.7818608E-02  0.7939730E-01
          2   -1    0    0  501    0  0.00000000000E+00  0.00000000000E+00  0.20627889568E+04  0.20627889568E+04  0.00000000000E+00 0. -1.
         -2   -1    0    0    0  501 -0.00000000000E+00 -0.00000000000E+00 -0.22800950356E+04  0.22800950356E+04  0.00000000000E+00 0.  1.
         23    2    1    2    0    0 -0.60759152791E+03  0.17630234085E+04 -0.12153756737E+04  0.22278043437E+04  0.92494118515E+02 0.  0.
         13    1    3    3    0    0 -0.35396233181E+03  0.88949354324E+03 -0.63671070777E+03  0.11497341524E+04  0.00000000000E+00 0. -1.
        -13    1    3    3    0    0 -0.25362919611E+03  0.87352986525E+03 -0.57866496595E+03  0.10780701913E+04  0.00000000000E+00 0.  1.
         22    1    1    2    0    0  0.60759152791E+03 -0.17630234085E+04  0.99806959496E+03  0.21150796486E+04  0.00000000000E+00 0. -1.
<mgrwt>
<rscale>  0 0.43374439E+04</rscale>
<asrwt>0</asrwt>
<pdfrwt beam="1">  1        2 0.31735215E+00 0.43374439E+04</pdfrwt>
<pdfrwt beam="2">  1       -2 0.35078385E+00 0.43374439E+04</pdfrwt>
<totfact> 0.72783285E-02</totfact>
</mgrwt>
</event>
<event>
 6    1  0.1014650E-006  0.3258159E+04  0.7818608E-02  0.8173624E-01
          2   -1    0    0  501    0  0.00000000000E+00  0.00000000000E+00  0.25500989276E+04  0.25500989276E+04  0.00000000000E+00 0. -1.
         -2   -1    0    0    0  501 -0.00000000000E+00 -0.00000000000E+00 -0.10407049758E+04  0.10407049758E+04  0.00000000000E+00 0.  1.
         23    2    1    2    0    0 -0.15353632269E+04  0.26675718730E+03  0.23681460688E+03  0.15788501702E+04  0.90482408419E+02 0.  0.
         11    1    3    3    0    0 -0.32647681906E+03  0.39358915796E+02  0.83240057445E+02  0.33921253633E+03  0.00000000000E+00 0.  1.
        -11    1    3    3    0    0 -0.12088864079E+04  0.22739827150E+03  0.15357454943E+03  0.12396376338E+04  0.00000000000E+00 0. -1.
         22    1    1    2    0    0  0.15353632269E+04 -0.26675718730E+03  0.12725793449E+04  0.20119537332E+04  0.00000000000E+00 0. -1.
<mgrwt>
<rscale>  0 0.32581594E+04</rscale>
<asrwt>0</asrwt>
<pdfrwt beam="1">  1        2 0.39232291E+00 0.32581594E+04</pdfrwt>
<pdfrwt beam="2">  1       -2 0.16010846E+00 0.32581594E+04</pdfrwt>
<totfact> 0.68572621E-01</totfact>
</mgrwt>
</event>
<event>
 6    1  0.1014650E-006  0.2677125E+04  0.7818608E-02  0.8342465E-01
          2   -1    0    0  501    0  0.00000000000E+00  0.00000000000E+00  0.29778540393E+04  0.29778540393E+04  0.00000000000E+00 0. -1.
         -2   -1    0    0    0  501 -0.00000000000E+00 -0.00000000000E+00 -0.60169173781E+03  0.60169173781E+03  0.00000000000E+00 0.  1.
         23    2    1    2    0    0 -0.83858242964E+02  0.11918683400E+04  0.38755173871E+03  0.12595987270E+04  0.93862975927E+02 0.  0.
         11    1    3    3    0    0 -0.73433101017E+02  0.42746511244E+03  0.15374240143E+03  0.46016906532E+03  0.00000000000E+00 0. -1.
        -11    1    3    3    0    0 -0.10425141947E+02  0.76440322753E+03  0.23380933728E+03  0.79942966172E+03  0.00000000000E+00 0.  1.
         22    1    1    2    0    0  0.83858242964E+02 -0.11918683400E+04  0.19886105628E+04  0.23199470501E+04  0.00000000000E+00 0. -1.
<mgrwt>
<rscale>  0 0.26771255E+04</rscale>
<asrwt>0</asrwt>
<pdfrwt beam="1">  1        2 0.45813138E+00 0.26771255E+04</pdfrwt>
<pdfrwt beam="2">  1       -2 0.92567961E-01 0.26771255E+04</pdfrwt>
<totfact> 0.15639876E+00</totfact>
</mgrwt>
</event>
<event>
 6    1  0.1014650E-006  0.2394644E+04  0.7818608E-02  0.8441511E-01
         -1   -1    0    0    0  501 -0.00000000000E+00  0.00000000000E+00  0.64134722880E+03  0.64134722880E+03  0.00000000000E+00 0.  1.
          1   -1    0    0  501    0  0.00000000000E+00 -0.00000000000E+00 -0.22352637486E+04  0.22352637486E+04  0.00000000000E+00 0. -1.
         23    2    1    2    0    0  0.72480902002E+03  0.71680665586E+03 -0.44714871211E+02  0.10221068266E+04  0.59523506604E+02 0.  0.
         13    1    3    3    0    0  0.39224981854E+03  0.36858872713E+03  0.27731821308E+01  0.53826133100E+03  0.00000000000E+00 0. -1.
        -13    1    3    3    0    0  0.33255920148E+03  0.34821792873E+03 -0.47488053341E+02  0.48384549558E+03  0.00000000000E+00 0.  1.
         22    1    1    2    0    0 -0.72480902002E+03 -0.71680665586E+03 -0.15492016486E+04  0.18545041508E+04  0.00000000000E+00 0.  1.
<mgrwt>
<rscale>  0 0.23946442E+04</rscale>
<asrwt>0</asrwt>
<pdfrwt beam="1">  1        1 0.34388673E+00 0.23946442E+04</pdfrwt>
<pdfrwt beam="2">  1       -1 0.98668805E-01 0.23946442E+04</pdfrwt>
<totfact> 0.18154662E+00</totfact>
</mgrwt>
</event>
<event>
 6    1  0.1014650E-006  0.5031260E+03  0.7818608E-02  0.1012966E+00
         -1   -1    0    0    0  501 -0.00000000000E+00  0.00000000000E+00  0.17670654623E+03  0.17670654623E+03  0.00000000000E+00 0.  1.
          1   -1    0    0  501    0  0.00000000000E+00 -0.00000000000E+00 -0.35813011587E+03  0.35813011587E+03  0.00000000000E+00 0. -1.
         23    2    1    2    0    0 -0.10914884750E+03  0.12740031315E+03  0.91936032627E+02  0.21410346635E+03  0.96144420051E+02 0.  0.
         13    1    3    3    0    0  0.90509381814E+01  0.29534365832E+02 -0.67961451159E+01  0.31628876608E+02  0.00000000000E+00 0. -1.
        -13    1    3    3    0    0 -0.11819978568E+03  0.97865947314E+02  0.98732177743E+02  0.18247458974E+03  0.00000000000E+00 0.  1.
         22    1    1    2    0    0  0.10914884750E+03 -0.12740031315E+03 -0.27335960227E+03  0.32073319575E+03  0.00000000000E+00 0.  1.
<mgrwt>
<rscale>  0 0.50312597E+03</rscale>
<asrwt>0</asrwt>
<pdfrwt beam="1">  1        1 0.55096940E-01 0.50312597E+03</pdfrwt>
<pdfrwt beam="2">  1       -1 0.27185623E-01 0.50312597E+03</pdfrwt>
<totfact> 0.84618593E+02</totfact>
</mgrwt>
</event>
<event>
 6    1  0.1014650E-006  0.4239944E+04  0.7818608E-02  0.7957817E-01
         -2   -1    0    0    0  501 -0.00000000000E+00  0.00000000000E+00  0.25690081664E+04  0.25690081664E+04  0.00000000000E+00 0.  1.
          2   -1    0    0  501    0  0.00000000000E+00 -0.00000000000E+00 -0.17494231346E+04  0.17494231346E+04  0.00000000000E+00 0. -1.
         23    2    1    2    0    0  0.13357017895E+04  0.13279387535E+04 -0.57877878899E+03  0.19725962730E+04  0.92900841253E+02 0.  0.
         13    1    3    3    0    0  0.22549852665E+03  0.23132946756E+03 -0.63440894810E+02  0.32922280482E+03  0.00000000000E+00 0.  1.
        -13    1    3    3    0    0  0.11102032628E+04  0.10966092859E+04 -0.51533789418E+03  0.16433734682E+04  0.00000000000E+00 0. -1.
         22    1    1    2    0    0 -0.13357017895E+04 -0.13279387535E+04  0.13983638208E+04  0.23458350280E+04  0.00000000000E+00 0. -1.
<mgrwt>
<rscale>  0 0.42399445E+04</rscale>
<asrwt>0</asrwt>
<pdfrwt beam="1">  1        2 0.26914202E+00 0.42399445E+04</pdfrwt>
<pdfrwt beam="2">  1       -2 0.39523203E+00 0.42399445E+04</pdfrwt>
<totfact> 0.56787715E-02</totfact>
</mgrwt>
</event>
<event>
 6    1  0.1014650E-006  0.3775305E+04  0.7818608E-02  0.8051475E-01
          1   -1    0    0  501    0  0.00000000000E+00  0.00000000000E+00  0.16992369863E+04  0.16992369863E+04  0.00000000000E+00 0. -1.
         -1   -1    0    0    0  501 -0.00000000000E+00 -0.00000000000E+00 -0.20969597757E+04  0.20969597757E+04  0.00000000000E+00 0.  1.
         23    2    1    2    0    0  0.15499163371E+04  0.84412191628E+03 -0.86905224840E+03  0.19694691085E+04  0.93671219003E+02 0.  0.
         11    1    3    3    0    0  0.76287187705E+03  0.39071229712E+03 -0.37575387323E+03  0.93585285872E+03  0.00000000000E+00 0.  1.
        -11    1    3    3    0    0  0.78704446002E+03  0.45340961916E+03 -0.49329837518E+03  0.10336162498E+04  0.00000000000E+00 0. -1.
         22    1    1    2    0    0 -0.15499163371E+04 -0.84412191628E+03  0.47132945900E+03  0.18267276536E+04  0.00000000000E+00 0. -1.
<mgrwt>
<rscale>  0 0.37753048E+04</rscale>
<asrwt>0</asrwt>
<pdfrwt beam="1">  1        1 0.26142108E+00 0.37753048E+04</pdfrwt>
<pdfrwt beam="2">  1       -1 0.32260919E+00 0.37753048E+04</pdfrwt>
<totfact> 0.89513364E-02</totfact>
</mgrwt>
</event>
<event>
 6    1  0.1014650E-006  0.2642914E+04  0.7818608E-02  0.8353769E-01
          1   -1    0    0  501    0  0.00000000000E+00  0.00000000000E+00  0.20257804036E+04  0.20257804036E+04  0.00000000000E+00 0. -1.
         -1   -1    0    0    0  501 -0.00000000000E+00 -0.00000000000E+00 -0.86201263153E+03  0.86201263153E+03  0.00000000000E+00 0.  1.
         23    2    1    2    0    0  0.37501431689E+03  0.75367363899E+03 -0.52680484979E+03  0.99922334307E+03  0.11074406340E+03 0.  0.
         11    1    3    3    0    0  0.13140941630E+01  0.42423749144E+02 -0.47366001559E+02  0.63600624514E+02  0.00000000000E+00 0. -1.
        -11    1    3    3    0    0  0.37370022273E+03  0.71124988985E+03 -0.47943884823E+03  0.93562271855E+03  0.00000000000E+00 0.  1.
         22    1    1    2    0    0 -0.37501431689E+03 -0.75367363899E+03  0.16905726219E+04  0.18885696921E+04  0.00000000000E+00 0. -1.
<mgrwt>
<rscale>  0 0.26429138E+04</rscale>
<asrwt>0</asrwt>
<pdfrwt beam="1">  1        1 0.31165852E+00 0.26429138E+04</pdfrwt>
<pdfrwt beam="2">  1       -1 0.13261733E+00 0.26429138E+04</pdfrwt>
<totfact> 0.12106558E+00</totfact>
</mgrwt>
</event>
<event>
 6    1  0.1014650E-006  0.2695434E+04  0.7818608E-02  0.8336488E-01
          1   -1    0    0  501    0  0.00000000000E+00  0.00000000000E+00  0.74064613145E+03  0.74064613145E+03  0.00000000000E+00 0. -1.
         -1   -1    0    0    0  501 -0.00000000000E+00 -0.00000000000E+00 -0.24523730062E+04  0.24523730062E+04  0.00000000000E+00 0.  1.
         23    2    1    2    0    0  0.37064834548E+03 -0.12655361533E+04 -0.53665242024E+03  0.14267343574E+04  0.92807084881E+02 0.  0.
         13    1    3    3    0    0  0.95655652200E+02 -0.45577630548E+03 -0.21680173670E+03  0.51369741820E+03  0.00000000000E+00 0. -1.
        -13    1    3    3    0    0  0.27499269328E+03 -0.80975984785E+03 -0.31985068354E+03  0.91303693918E+03  0.00000000000E+00 0.  1.
         22    1    1    2    0    0 -0.37064834548E+03  0.12655361533E+04 -0.11750744545E+04  0.17662847803E+04  0.00000000000E+00 0.  1.
<mgrwt>
<rscale>  0 0.26954336E+04</rscale>
<asrwt>0</asrwt>
<pdfrwt beam="1">  1        1 0.11394556E+00 0.26954336E+04</pdfrwt>
<pdfrwt beam="2">  1       -1 0.37728815E+00 0.26954336E+04</pdfrwt>
<totfact> 0.22262475E-01</totfact>
</mgrwt>
</event>
<event>
 6    1  0.1201385E-006  0.2427110E+04  0.7818608E-02  0.8429423E-01
         -2   -1    0    0    0  501 -0.00000000000E+00  0.00000000000E+00  0.10709640047E+04  0.10709640047E+04  0.00000000000E+00 0.  1.
          2   -1    0    0  501    0  0.00000000000E+00 -0.00000000000E+00 -0.13751308393E+04  0.13751308393E+04  0.00000000000E+00 0. -1.
         23    2    1    2    0    0 -0.87302275835E+03 -0.38061675837E+03 -0.90770475460E+03  0.13185772725E+04  0.87637027688E+02 0.  0.
         13    1    3    3    0    0 -0.29399763166E+03 -0.95291599835E+02 -0.33282452525E+03  0.45418857431E+03  0.00000000000E+00 0.  1.
        -13    1    3    3    0    0 -0.57902512669E+03 -0.28532515854E+03 -0.57488022935E+03  0.86438869817E+03  0.00000000000E+00 0. -1.
         22    1    1    2    0    0  0.87302275835E+03  0.38061675837E+03  0.60353792001E+03  0.11275175716E+04  0.00000000000E+00 0.  1.
<mgrwt>
<rscale>  0 0.24271099E+04</rscale>
<asrwt>0</asrwt>
<pdfrwt beam="1">  1        2 0.21155859E+00 0.24271099E+04</pdfrwt>
<pdfrwt beam="2">  1       -2 0.16476369E+00 0.24271099E+04</pdfrwt>
<totfact> 0.31191021E+00</totfact>
</mgrwt>
</event>
<event>
 6    1  0.1014650E-006  0.4887667E+04  0.7818608E-02  0.7846073E-01
          1   -1    0    0  501    0  0.00000000000E+00  0.00000000000E+00  0.19704016905E+04  0.19704016905E+04  0.00000000000E+00 0. -1.
         -1   -1    0    0    0  501 -0.00000000000E+00 -0.00000000000E+00 -0.30310174697E+04  0.30310174697E+04  0.00000000000E+00 0.  1.
         23    2    1    2    0    0  0.33860065506E+03 -0.23040827996E+04  0.22448476296E+03  0.23415448484E+04  0.94820447080E+02 0.  0.
         13    1    3    3    0    0  0.29188220113E+03 -0.21494450922E+04  0.20518725505E+03  0.21788554870E+04  0.00000000000E+00 0. -1.
        -13    1    3    3    0    0  0.46718453934E+02 -0.15463770742E+03  0.19297507914E+02  0.16268936138E+03  0.00000000000E+00 0.  1.
         22    1    1    2    0    0 -0.33860065506E+03  0.23040827996E+04 -0.12851005422E+04  0.26598743118E+04  0.00000000000E+00 0. -1.
<mgrwt>
<rscale>  0 0.48876669E+04</rscale>
<asrwt>0</asrwt>
<pdfrwt beam="1">  1        1 0.30313872E+00 0.48876669E+04</pdfrwt>
<pdfrwt beam="2">  1       -1 0.46631038E+00 0.48876669E+04</pdfrwt>
<totfact> 0.57011734E-03</totfact>
</mgrwt>
</event>
<event>
 6    1  0.1014650E-006  0.1107505E+04  0.7818608E-02  0.9197908E-01
         -1   -1    0    0    0  501 -0.00000000000E+00  0.00000000000E+00  0.16146243870E+03  0.16146243870E+03  0.00000000000E+00 0.  1.
          1   -1    0    0  501    0  0.00000000000E+00 -0.00000000000E+00 -0.18991530314E+04  0.18991530314E+04  0.00000000000E+00 0. -1.
         23    2    1    2    0    0  0.19374882080E+02  0.30345658404E+03 -0.17271906359E+04  0.17563597658E+04  0.95660074543E+02 0.  0.
         11    1    3    3    0    0 -0.13480953633E+02  0.22393651802E+03 -0.10481492156E+04  0.10718890233E+04  0.00000000000E+00 0. -1.
        -11    1    3    3    0    0  0.32855835714E+02  0.79520066020E+02 -0.67904142030E+03  0.68447074249E+03  0.00000000000E+00 0.  1.
         22    1    1    2    0    0 -0.19374882080E+02 -0.30345658404E+03 -0.10499956754E+02  0.30425570421E+03  0.00000000000E+00 0.  1.
<mgrwt>
<rscale>  0 0.11075051E+04</rscale>
<asrwt>0</asrwt>
<pdfrwt beam="1">  1        1 0.29217739E+00 0.11075051E+04</pdfrwt>
<pdfrwt beam="2">  1       -1 0.24840375E-01 0.11075051E+04</pdfrwt>
<totfact> 0.49307370E+01</totfact>
</mgrwt>
</event>
<event>
 6    1  0.1014650E-006  0.1650796E+04  0.7818608E-02  0.8789936E-01
         -2   -1    0    0    0  501 -0.00000000000E+00  0.00000000000E+00  0.52060694852E+03  0.52060694852E+03  0.00000000000E+00 0.  1.
          2   -1    0    0  501    0  0.00000000000E+00 -0.00000000000E+00 -0.13086297046E+04  0.13086297046E+04  0.00000000000E+00 0. -1.
         23    2    1    2    0    0 -0.15978596098E+03  0.24027228723E+03  0.45812971494E+03  0.55011261443E+03  0.97358756733E+02 0.  0.
         11    1    3    3    0    0 -0.74580021019E+00  0.70572983744E+02  0.12992199542E+03  0.14785407383E+03  0.00000000000E+00 0. -1.
        -11    1    3    3    0    0 -0.15904016077E+03  0.16969930348E+03  0.32820771951E+03  0.40225854060E+03  0.00000000000E+00 0.  1.
         22    1    1    2    0    0  0.15978596098E+03 -0.24027228723E+03 -0.12461524711E+04  0.12791240387E+04  0.00000000000E+00 0. -1.
<mgrwt>
<rscale>  0 0.16507958E+04</rscale>
<asrwt>0</asrwt>
<pdfrwt beam="1">  1        2 0.20132765E+00 0.16507958E+04</pdfrwt>
<pdfrwt beam="2">  1       -2 0.80093377E-01 0.16507958E+04</pdfrwt>
<totfact> 0.21520969E+01</totfact>
</mgrwt>
</event>
<event>
 6    1  0.1014650E-006  0.1293904E+04  0.7818608E-02  0.9034413E-01
          2   -1    0    0  501    0  0.00000000000E+00  0.00000000000E+00  0.21948415645E+04  0.21948415645E+04  0.00000000000E+00 0. -1.
         -2   -1    0    0    0  501 -0.00000000000E+00 -0.00000000000E+00 -0.19069579032E+03  0.19069579032E+03  0.00000000000E+00 0.  1.
         23    2    1    2    0    0  0.52911107206E+03 -0.32888579060E+03  0.13050879248E+04  0.14491580158E+04  0.93166911308E+02 0.  0.
         11    1    3    3    0    0  0.25672316088E+03 -0.12381579456E+03  0.51427084325E+03  0.58797247600E+03  0.00000000000E+00 0. -1.
        -11    1    3    3    0    0  0.27238791118E+03 -0.20506999603E+03  0.79081708154E+03  0.86118553975E+03  0.00000000000E+00 0.  1.
         22    1    1    2    0    0 -0.52911107206E+03  0.32888579060E+03  0.69905784940E+03  0.93637933907E+03  0.00000000000E+00 0.  1.
<mgrwt>
<rscale>  0 0.12939042E+04</rscale>
<asrwt>0</asrwt>
<pdfrwt beam="1">  1        2 0.33766792E+00 0.12939042E+04</pdfrwt>
<pdfrwt beam="2">  1       -2 0.29337815E-01 0.12939042E+04</pdfrwt>
<totfact> 0.54609560E+01</totfact>
</mgrwt>
</event>
<event>
 6    1  0.1014650E-006  0.1306081E+04  0.7818608E-02  0.9024757E-01
         -1   -1    0    0    0  501 -0.00000000000E+00  0.00000000000E+00  0.23643171421E+03  0.23643171421E+03  0.00000000000E+00 0.  1.
          1   -1    0    0  501    0  0.00000000000E+00 -0.00000000000E+00 -0.18037422427E+04  0.18037422427E+04  0.00000000000E+00 0. -1.
         23    2    1    2    0    0  0.31188963133E+03 -0.45029957604E+03 -0.24105242951E+03  0.60525047622E+03  0.90426848236E+02 0.  0.
         13    1    3    3    0    0  0.20500009942E+03 -0.36395862766E+03 -0.18492439126E+03  0.45682376678E+03  0.00000000000E+00 0.  1.
        -13    1    3    3    0    0  0.10688953190E+03 -0.86340948377E+02 -0.56128038249E+02  0.14842670944E+03  0.00000000000E+00 0. -1.
         22    1    1    2    0    0 -0.31188963133E+03  0.45029957604E+03 -0.13262580990E+04  0.14349234807E+04  0.00000000000E+00 0. -1.
<mgrwt>
<rscale>  0 0.13060810E+04</rscale>
<asrwt>0</asrwt>
<pdfrwt beam="1">  1        1 0.27749879E+00 0.13060810E+04</pdfrwt>
<pdfrwt beam="2">  1       -1 0.36374112E-01 0.13060810E+04</pdfrwt>
<totfact> 0.28812295E+01</totfact>
</mgrwt>
</event>
<event>
 6    1  0.1014650E-006  0.3085210E+04  0.7818608E-02  0.8219809E-01
          1   -1    0    0  501    0  0.00000000000E+00  0.00000000000E+00  0.19338544256E+04  0.19338544256E+04  0.00000000000E+00 0. -1.
         -1   -1    0    0    0  501 -0.00000000000E+00 -0.00000000000E+00 -0.12305116581E+04  0.12305116581E+04  0.00000000000E+00 0.  1.
         23    2    1    2    0    0  0.12351777928E+04 -0.46802609308E+03 -0.46256270126E+03  0.14025351707E+04  0.91804405191E+02 0.  0.
         13    1    3    3    0    0  0.28257856379E+03 -0.74585417990E+02 -0.78102307385E+02  0.30251214803E+03  0.00000000000E+00 0.  1.
        -13    1    3    3    0    0  0.95259922904E+03 -0.39344067509E+03 -0.38446039387E+03  0.11000230227E+04  0.00000000000E+00 0. -1.
         22    1    1    2    0    0 -0.12351777928E+04  0.46802609308E+03  0.11659054688E+04  0.17618309130E+04  0.00000000000E+00 0. -1.
<mgrwt>
<rscale>  0 0.30852101E+04</rscale>
<asrwt>0</asrwt>
<pdfrwt beam="1">  1        1 0.29751606E+00 0.30852101E+04</pdfrwt>
<pdfrwt beam="2">  1       -1 0.18930949E+00 0.30852101E+04</pdfrwt>
<totfact> 0.49890195E-01</totfact>
</mgrwt>
</event>
<event>
 6    1  0.1014650E-006  0.3229037E+04  0.7818608E-02  0.8181191E-01
          2   -1    0    0  501    0  0.00000000000E+00  0.00000000000E+00  0.26672830451E+04  0.26672830451E+04  0.00000000000E+00 0. -1.
         -2   -1    0    0    0  501 -0.00000000000E+00 -0.00000000000E+00 -0.97727513673E+03  0.97727513673E+03  0.00000000000E+00 0.  1.
         23    2    1    2    0    0 -0.38877751719E+03 -0.10957173235E+04  0.21079768631E+04  0.24090653822E+04  0.91022797237E+02 0.  0.
         11    1    3    3    0    0 -0.29283624033E+03 -0.88812211805E+03  0.17520642233E+04  0.19860118335E+04  0.00000000000E+00 0. -1.
        -11    1    3    3    0    0 -0.95941276864E+02 -0.20759520542E+03  0.35591263985E+03  0.42305354876E+03  0.00000000000E+00 0.  1.
         22    1    1    2    0    0  0.38877751719E+03  0.10957173235E+04 -0.41796895472E+03  0.12354927996E+04  0.00000000000E+00 0.  1.
<mgrwt>
<rscale>  0 0.32290366E+04</rscale>
<asrwt>0</asrwt>
<pdfrwt beam="1">  1        2 0.41035124E+00 0.32290366E+04</pdfrwt>
<pdfrwt beam="2">  1       -2 0.15035002E+00 0.32290366E+04</pdfrwt>
<totfact> 0.69445196E-01</totfact>
</mgrwt>
</event>
<event>
 6    1  0.1014650E-006  0.1898196E+04  0.7818608E-02  0.8655755E-01
          2   -1    0    0  501    0  0.00000000000E+00  0.00000000000E+00  0.19334550081E+04  0.19334550081E+04  0.00000000000E+00 0. -1.
         -2   -1    0    0    0  501 -0.00000000000E+00 -0.00000000000E+00 -0.46589480833E+03  0.46589480833E+03  0.00000000000E+00 0.  1.
         23    2    1    2    0    0 -0.82293395115E+03 -0.88332760663E+02  0.13169317664E+04  0.15580936785E+04  0.91234145331E+02 0.  0.
         13    1    3    3    0    0 -0.19231100488E+03  0.85039585396E+01  0.35445786951E+03  0.40335619639E+03  0.00000000000E+00 0.  1.
        -13    1    3    3    0    0 -0.63062294627E+03 -0.96836719202E+02  0.96247389685E+03  0.11547374821E+04  0.00000000000E+00 0. -1.
         22    1    1    2    0    0  0.82293395115E+03  0.88332760663E+02  0.15062843338E+03  0.84125613787E+03  0.00000000000E+00 0.  1.
<mgrwt>
<rscale>  0 0.18981956E+04</rscale>
<asrwt>0</asrwt>
<pdfrwt beam="1">  1        2 0.29745461E+00 0.18981956E+04</pdfrwt>
<pdfrwt beam="2">  1       -2 0.71676126E-01 0.18981956E+04</pdfrwt>
<totfact> 0.12026884E+01</totfact>
</mgrwt>
</event>
<event>
 6    1  0.1014650E-006  0.7695961E+03  0.7818608E-02  0.9605099E-01
         -1   -1    0    0    0  501 -0.00000000000E+00  0.00000000000E+00  0.26685487186E+03  0.26685487186E+03  0.00000000000E+00 0.  1.
          1   -1    0    0  501    0  0.00000000000E+00 -0.00000000000E+00 -0.55486913427E+03  0.55486913427E+03  0.00000000000E+00 0. -1.
         23    2    1    2    0    0  0.93900033091E+02  0.33444515772E+03 -0.30902848278E+03  0.47371197014E+03  0.90739449761E+02 0.  0.
         13    1    3    3    0    0  0.70635113232E+02  0.22598061664E+03 -0.26226580081E+03  0.35332691461E+03  0.00000000000E+00 0. -1.
        -13    1    3    3    0    0  0.23264919859E+02  0.10846454108E+03 -0.46762681979E+02  0.12038505552E+03  0.00000000000E+00 0.  1.
         22    1    1    2    0    0 -0.93900033091E+02 -0.33444515772E+03  0.21014220373E+02  0.34801203599E+03  0.00000000000E+00 0.  1.
<mgrwt>
<rscale>  0 0.76959608E+03</rscale>
<asrwt>0</asrwt>
<pdfrwt beam="1">  1        1 0.85364482E-01 0.76959608E+03</pdfrwt>
<pdfrwt beam="2">  1       -1 0.41054596E-01 0.76959608E+03</pdfrwt>
<totfact> 0.22501888E+02</totfact>
</mgrwt>
</event>
<event>
 6    1  0.1014650E-006  0.1820700E+04  0.7818608E-02  0.8695368E-01
          2   -1    0    0  501    0  0.00000000000E+00  0.00000000000E+00  0.10862878571E+04  0.10862878571E+04  0.00000000000E+00 0. -1.
         -2   -1    0    0    0  501 -0.00000000000E+00 -0.00000000000E+00 -0.76290741671E+03  0.76290741671E+03  0.00000000000E+00 0.  1.
         23    2    1    2    0    0  0.23756179780E+03  0.49685586691E+03 -0.57109313716E+03  0.79877424336E+03  0.92690669918E+02 0.  0.
         13    1    3    3    0    0  0.15153579056E+03  0.27231814543E+03 -0.38123250730E+03  0.49240074408E+03  0.00000000000E+00 0. -1.
        -13    1    3    3    0    0  0.86026007234E+02  0.22453772148E+03 -0.18986062986E+03  0.30637349928E+03  0.00000000000E+00 0.  1.
         22    1    1    2    0    0 -0.23756179780E+03 -0.49685586691E+03  0.89447357755E+03  0.10504210304E+04  0.00000000000E+00 0. -1.
<mgrwt>
<rscale>  0 0.18206999E+04</rscale>
<asrwt>0</asrwt>
<pdfrwt beam="1">  1        2 0.16712121E+00 0.18206999E+04</pdfrwt>
<pdfrwt beam="2">  1       -2 0.11737037E+00 0.18206999E+04</pdfrwt>
<totfact> 0.11746591E+01</totfact>
</mgrwt>
</event>
<event>
 6    1  0.1014650E-006  0.7811421E+03  0.7818608E-02  0.9587721E-01
          1   -1    0    0  501    0  0.00000000000E+00  0.00000000000E+00  0.29579847700E+04  0.29579847700E+04  0.00000000000E+00 0. -1.
         -1   -1    0    0    0  501 -0.00000000000E+00 -0.00000000000E+00 -0.51570838658E+02  0.51570838658E+02  0.00000000000E+00 0.  1.
         23    2    1    2    0    0 -0.27908057183E+03 -0.24342344342E+03  0.18835448378E+04  0.19217127336E+04  0.89987421029E+02 0.  0.
         13    1    3    3    0    0 -0.91972265668E+02 -0.72990917334E+02  0.40559212140E+03  0.42224582959E+03  0.00000000000E+00 0.  1.
        -13    1    3    3    0    0 -0.18710830616E+03 -0.17043252609E+03  0.14779527164E+04  0.14994669040E+04  0.00000000000E+00 0. -1.
         22    1    1    2    0    0  0.27908057183E+03  0.24342344342E+03  0.10228690935E+04  0.10878428751E+04  0.00000000000E+00 0.  1.
<mgrwt>
<rscale>  0 0.78114213E+03</rscale>
<asrwt>0</asrwt>
<pdfrwt beam="1">  1        1 0.45507445E+00 0.78114213E+03</pdfrwt>
<pdfrwt beam="2">  1       -1 0.79339775E-02 0.78114213E+03</pdfrwt>
<totfact> 0.61313622E+01</totfact>
</mgrwt>
</event>
<event>
 6    1  0.1014650E-006  0.2023442E+04  0.7818608E-02  0.8595739E-01
          1   -1    0    0  501    0  0.00000000000E+00  0.00000000000E+00  0.33682078723E+04  0.33682078723E+04  0.00000000000E+00 0. -1.
         -1   -1    0    0    0  501 -0.00000000000E+00 -0.00000000000E+00 -0.30389437479E+03  0.30389437479E+03  0.00000000000E+00 0.  1.
         23    2    1    2    0    0 -0.87098465704E+03 -0.42905513908E+03  0.20380603101E+04  0.22593396379E+04  0.90681788583E+02 0.  0.
         13    1    3    3    0    0 -0.67432415641E+03 -0.36865764271E+03  0.16464240318E+04  0.18169572417E+04  0.00000000000E+00 0.  1.
        -13    1    3    3    0    0 -0.19666050063E+03 -0.60397496371E+02  0.39163627827E+03  0.44238239627E+03  0.00000000000E+00 0. -1.
         22    1    1    2    0    0  0.87098465704E+03  0.42905513908E+03  0.10262531874E+04  0.14127626091E+04  0.00000000000E+00 0.  1.
<mgrwt>
<rscale>  0 0.20234420E+04</rscale>
<asrwt>0</asrwt>
<pdfrwt beam="1">  1        1 0.51818580E+00 0.20234420E+04</pdfrwt>
<pdfrwt beam="2">  1       -1 0.46752983E-01 0.20234420E+04</pdfrwt>
<totfact> 0.13407850E+00</totfact>
</mgrwt>
</event>
<event>
 6    1  0.1014650E-006  0.6520026E+03  0.7818608E-02  0.9803029E-01
          2   -1    0    0  501    0  0.00000000000E+00  0.00000000000E+00  0.82176308706E+03  0.82176308706E+03  0.00000000000E+00 0. -1.
         -2   -1    0    0    0  501 -0.00000000000E+00 -0.00000000000E+00 -0.12932782997E+03  0.12932782997E+03  0.00000000000E+00 0.  1.
         23    2    1    2    0    0 -0.29638504602E+03 -0.68671113136E+02  0.21772787502E+03  0.38725856972E+03  0.10001977291E+03 0.  0.
         11    1    3    3    0    0 -0.11479506172E+03 -0.42729336261E+02  0.32843515248E+02  0.12681639826E+03  0.00000000000E+00 0. -1.
        -11    1    3    3    0    0 -0.18158998430E+03 -0.25941776875E+02  0.18488435977E+03  0.26044217146E+03  0.00000000000E+00 0.  1.
         22    1    1    2    0    0  0.29638504602E+03  0.68671113136E+02  0.47470738207E+03  0.56383234732E+03  0.00000000000E+00 0. -1.
<mgrwt>
<rscale>  0 0.65200257E+03</rscale>
<asrwt>0</asrwt>
<pdfrwt beam="1">  1        2 0.12642509E+00 0.65200257E+03</pdfrwt>
<pdfrwt beam="2">  1       -2 0.19896590E-01 0.65200257E+03</pdfrwt>
<totfact> 0.71988685E+02</totfact>
</mgrwt>
</event>
<event>
 6    1  0.1014650E-006  0.4544901E+04  0.7818608E-02  0.7902823E-01
         -2   -1    0    0    0  501 -0.00000000000E+00  0.00000000000E+00  0.21392337171E+04  0.21392337171E+04  0.00000000000E+00 0.  1.
          2   -1    0    0  501    0  0.00000000000E+00 -0.00000000000E+00 -0.24139626580E+04  0.24139626580E+04  0.00000000000E+00 0. -1.
         23    2    1    2    0    0  0.21789202238E+03  0.21482318954E+04 -0.84402731252E+03  0.23201540903E+04  0.91409455644E+02 0.  0.
         11    1    3    3    0    0  0.14249872756E+03  0.10450442538E+04 -0.38227921330E+03  0.11218559518E+04  0.00000000000E+00 0. -1.
        -11    1    3    3    0    0  0.75393294821E+02  0.11031876416E+04 -0.46174809921E+03  0.11982981385E+04  0.00000000000E+00 0.  1.
         22    1    1    2    0    0 -0.21789202238E+03 -0.21482318954E+04  0.56929837160E+03  0.22330422848E+04  0.00000000000E+00 0.  1.
<mgrwt>
<rscale>  0 0.45449006E+04</rscale>
<asrwt>0</asrwt>
<pdfrwt beam="1">  1        2 0.37137887E+00 0.45449006E+04</pdfrwt>
<pdfrwt beam="2">  1       -2 0.32911288E+00 0.45449006E+04</pdfrwt>
<totfact> 0.61947524E-02</totfact>
</mgrwt>
</event>
<event>
 6    1  0.1036345E-006  0.3400577E+04  0.7818608E-02  0.8137765E-01
          2   -1    0    0  501    0  0.00000000000E+00  0.00000000000E+00  0.24712045198E+04  0.24712045198E+04  0.00000000000E+00 0. -1.
         -2   -1    0    0    0  501 -0.00000000000E+00 -0.00000000000E+00 -0.11698670049E+04  0.11698670049E+04  0.00000000000E+00 0.  1.
         23    2    1    2    0    0  0.54374027678E+03 -0.15116822824E+04  0.12430806399E+04  0.20335172721E+04  0.95426449689E+02 0.  0.
         13    1    3    3    0    0  0.20580393786E+03 -0.69726315738E+03  0.58897817330E+03  0.93564227144E+03  0.00000000000E+00 0. -1.
        -13    1    3    3    0    0  0.33793633893E+03 -0.81441912502E+03  0.65410246656E+03  0.10978750007E+04  0.00000000000E+00 0.  1.
         22    1    1    2    0    0 -0.54374027678E+03  0.15116822824E+04  0.58256874955E+02  0.16075542526E+04  0.00000000000E+00 0. -1.
<mgrwt>
<rscale>  0 0.34005768E+04</rscale>
<asrwt>0</asrwt>
<pdfrwt beam="1">  1        2 0.38018531E+00 0.34005768E+04</pdfrwt>
<pdfrwt beam="2">  1       -2 0.17997954E+00 0.34005768E+04</pdfrwt>
<totfact> 0.54348406E-01</totfact>
</mgrwt>
</event>
<event>
 6    1  0.1014650E-006  0.5889677E+04  0.7818608E-02  0.7704233E-01
          2   -1    0    0  501    0  0.00000000000E+00  0.00000000000E+00  0.47737129065E+04  0.47737129065E+04  0.00000000000E+00 0. -1.
         -2   -1    0    0    0  501 -0.00000000000E+00 -0.00000000000E+00 -0.18166306089E+04  0.18166306089E+04  0.00000000000E+00 0.  1.
         23    2    1    2    0    0 -0.23470427984E+04 -0.17061928983E+04  0.20375243294E+04  0.35464494698E+04  0.78066289172E+02 0.  0.
         13    1    3    3    0    0 -0.30682000113E+03 -0.19138860963E+03  0.25029318273E+03  0.43978948408E+03  0.00000000000E+00 0. -1.
        -13    1    3    3    0    0 -0.20402227972E+04 -0.15148042887E+04  0.17872311467E+04  0.31066599857E+04  0.00000000000E+00 0.  1.
         22    1    1    2    0    0  0.23470427984E+04  0.17061928983E+04  0.91955796820E+03  0.30438940455E+04  0.00000000000E+00 0. -1.
<mgrwt>
<rscale>  0 0.58896767E+04</rscale>
<asrwt>0</asrwt>
<pdfrwt beam="1">  1        2 0.73441736E+00 0.58896767E+04</pdfrwt>
<pdfrwt beam="2">  1       -2 0.27948163E+00 0.58896767E+04</pdfrwt>
<totfact> 0.18051389E-03</totfact>
</mgrwt>
</event>
<event>
 6    1  0.1014650E-006  0.1016251E+04  0.7818608E-02  0.9290898E-01
          2   -1    0    0  501    0  0.00000000000E+00  0.00000000000E+00  0.15723418177E+04  0.15723418177E+04  0.00000000000E+00 0. -1.
         -2   -1    0    0    0  501 -0.00000000000E+00 -0.00000000000E+00 -0.16420832635E+03  0.16420832635E+03  0.00000000000E+00 0.  1.
         23    2    1    2    0    0 -0.21591930171E+03  0.29887383562E+02  0.14862909195E+04  0.15049837732E+04  0.91657294140E+02 0.  0.
         13    1    3    3    0    0 -0.40448599443E+02  0.38416005450E+02  0.50702785510E+03  0.51008736950E+03  0.00000000000E+00 0. -1.
        -13    1    3    3    0    0 -0.17547070227E+03 -0.85286218881E+01  0.97926306441E+03  0.99489640368E+03  0.00000000000E+00 0.  1.
         22    1    1    2    0    0  0.21591930171E+03 -0.29887383562E+02 -0.78157428146E+02  0.23156637088E+03  0.00000000000E+00 0.  1.
<mgrwt>
<rscale>  0 0.10162512E+04</rscale>
<asrwt>0</asrwt>
<pdfrwt beam="1">  1        2 0.24189873E+00 0.10162512E+04</pdfrwt>
<pdfrwt beam="2">  1       -2 0.25262820E-01 0.10162512E+04</pdfrwt>
<totfact> 0.16219724E+02</totfact>
</mgrwt>
</event>
<event>
 6    1  0.1014650E-006  0.8362395E+03  0.7818608E-02  0.9508994E-01
         -3   -1    0    0    0  501 -0.00000000000E+00  0.00000000000E+00  0.10674354728E+04  0.10674354728E+04  0.00000000000E+00 0.  1.
          3   -1    0    0  501    0  0.00000000000E+00 -0.00000000000E+00 -0.16377957364E+03  0.16377957364E+03  0.00000000000E+00 0. -1.
         23    2    1    2    0    0 -0.26082045107E+03 -0.14726989991E+03  0.37714762195E+02  0.31493463969E+03  0.89697786337E+02 0.  0.
         13    1    3    3    0    0 -0.17092605470E+03 -0.48406154878E+02  0.36222996722E+02  0.18130355070E+03  0.00000000000E+00 0. -1.
        -13    1    3    3    0    0 -0.89894396371E+02 -0.98863745031E+02  0.14917654731E+01  0.13363108899E+03  0.00000000000E+00 0.  1.
         22    1    1    2    0    0  0.26082045107E+03  0.14726989991E+03  0.86594113697E+03  0.91628040676E+03  0.00000000000E+00 0.  1.
<mgrwt>
<rscale>  0 0.83623950E+03</rscale>
<asrwt>0</asrwt>
<pdfrwt beam="1">  1        3 0.25196858E-01 0.83623950E+03</pdfrwt>
<pdfrwt beam="2">  1       -3 0.16422084E+00 0.83623950E+03</pdfrwt>
<totfact> 0.10076420E+01</totfact>
</mgrwt>
</event>
<event>
 6    1  0.1014650E-006  0.4098288E+04  0.7818608E-02  0.7985007E-01
          2   -1    0    0  501    0  0.00000000000E+00  0.00000000000E+00  0.28002275551E+04  0.28002275551E+04  0.00000000000E+00 0. -1.
         -2   -1    0    0    0  501 -0.00000000000E+00 -0.00000000000E+00 -0.14995179920E+04  0.14995179920E+04  0.00000000000E+00 0.  1.
         23    2    1    2    0    0  0.10231672348E+04  0.12720765597E+04 -0.64705295327E+03  0.17583229564E+04  0.89286788269E+02 0.  0.
         13    1    3    3    0    0  0.43968230616E+02  0.37753309164E+02 -0.98202160183E+01  0.58778859286E+02  0.00000000000E+00 0. -1.
        -13    1    3    3    0    0  0.97919900423E+03  0.12343232505E+04 -0.63723273725E+03  0.16995440971E+04  0.00000000000E+00 0.  1.
         22    1    1    2    0    0 -0.10231672348E+04 -0.12720765597E+04  0.19477625164E+04  0.25414225907E+04  0.00000000000E+00 0. -1.
<mgrwt>
<rscale>  0 0.40982882E+04</rscale>
<asrwt>0</asrwt>
<pdfrwt beam="1">  1        2 0.43080424E+00 0.40982882E+04</pdfrwt>
<pdfrwt beam="2">  1       -2 0.23069508E+00 0.40982882E+04</pdfrwt>
<totfact> 0.15310585E-01</totfact>
</mgrwt>
</event>
<event>
 6    1  0.1014650E-006  0.4371037E+04  0.7818608E-02  0.7933612E-01
         -2   -1    0    0    0  501 -0.00000000000E+00  0.00000000000E+00  0.24874481836E+04  0.24874481836E+04  0.00000000000E+00 0.  1.
          2   -1    0    0  501    0  0.00000000000E+00 -0.00000000000E+00 -0.19202371938E+04  0.19202371938E+04  0.00000000000E+00 0. -1.
         23    2    1    2    0    0  0.88521930367E+03 -0.19924780897E+04  0.41563867909E+03  0.22221519599E+04  0.10780384092E+03 0.  0.
         13    1    3    3    0    0  0.22686924661E+03 -0.60234118807E+03  0.90022852409E+02  0.64991436040E+03  0.00000000000E+00 0. -1.
        -13    1    3    3    0    0  0.65835005706E+03 -0.13901369016E+04  0.32561582668E+03  0.15722375995E+04  0.00000000000E+00 0.  1.
         22    1    1    2    0    0 -0.88521930367E+03  0.19924780897E+04  0.15157231076E+03  0.21855334175E+04  0.00000000000E+00 0. -1.
<mgrwt>
<rscale>  0 0.43710367E+04</rscale>
<asrwt>0</asrwt>
<pdfrwt beam="1">  1        2 0.29542111E+00 0.43710367E+04</pdfrwt>
<pdfrwt beam="2">  1       -2 0.38268434E+00 0.43710367E+04</pdfrwt>
<totfact> 0.54495417E-02</totfact>
</mgrwt>
</event>
<event>
 6    1  0.1014650E-006  0.3771859E+04  0.7818608E-02  0.8052221E-01
         -1   -1    0    0    0  501 -0.00000000000E+00  0.00000000000E+00  0.21058411132E+04  0.21058411132E+04  0.00000000000E+00 0.  1.
          1   -1    0    0  501    0  0.00000000000E+00 -0.00000000000E+00 -0.16889827474E+04  0.16889827474E+04  0.00000000000E+00 0. -1.
         23    2    1    2    0    0  0.10583838091E+04 -0.84166651747E+03  0.15295382152E+04  0.20436427560E+04  0.91704681108E+02 0.  0.
         11    1    3    3    0    0  0.25293375449E+03 -0.23314057889E+03  0.43668134096E+03  0.55589621983E+03  0.00000000000E+00 0. -1.
        -11    1    3    3    0    0  0.80545005459E+03 -0.60852593858E+03  0.10928568742E+04  0.14877465362E+04  0.00000000000E+00 0.  1.
         22    1    1    2    0    0 -0.10583838091E+04  0.84166651747E+03 -0.11126798494E+04  0.17511811046E+04  0.00000000000E+00 0. -1.
<mgrwt>
<rscale>  0 0.37718586E+04</rscale>
<asrwt>0</asrwt>
<pdfrwt beam="1">  1        1 0.25984350E+00 0.37718586E+04</pdfrwt>
<pdfrwt beam="2">  1       -1 0.32397556E+00 0.37718586E+04</pdfrwt>
<totfact> 0.89140493E-02</totfact>
</mgrwt>
</event>
<event>
 6    1  0.1014650E-006  0.1894622E+04  0.7818608E-02  0.8657538E-01
         -2   -1    0    0    0  501 -0.00000000000E+00  0.00000000000E+00  0.57943773220E+03  0.57943773220E+03  0.00000000000E+00 0.  1.
          2   -1    0    0  501    0  0.00000000000E+00 -0.00000000000E+00 -0.15487397143E+04  0.15487397143E+04  0.00000000000E+00 0. -1.
         23    2    1    2    0    0 -0.87064696045E+03 -0.36349610527E+03 -0.54648691150E+03  0.10942876399E+04  0.93069576626E+02 0.  0.
         11    1    3    3    0    0 -0.37126582933E+03 -0.20035280401E+03 -0.26618804728E+03  0.49883427971E+03  0.00000000000E+00 0.  1.
        -11    1    3    3    0    0 -0.49938113113E+03 -0.16314330126E+03 -0.28029886423E+03  0.59545336019E+03  0.00000000000E+00 0. -1.
         22    1    1    2    0    0  0.87064696045E+03  0.36349610527E+03 -0.42281507062E+03  0.10338898066E+04  0.00000000000E+00 0. -1.
<mgrwt>
<rscale>  0 0.18946221E+04</rscale>
<asrwt>0</asrwt>
<pdfrwt beam="1">  1        2 0.23826765E+00 0.18946221E+04</pdfrwt>
<pdfrwt beam="2">  1       -2 0.89144266E-01 0.18946221E+04</pdfrwt>
<totfact> 0.12062021E+01</totfact>
</mgrwt>
</event>
<event>
 6    1  0.1014650E-006  0.4947958E+04  0.7818608E-02  0.7836586E-01
          2   -1    0    0  501    0  0.00000000000E+00  0.00000000000E+00  0.23971805269E+04  0.23971805269E+04  0.00000000000E+00 0. -1.
         -2   -1    0    0    0  501 -0.00000000000E+00 -0.00000000000E+00 -0.25532378864E+04  0.25532378864E+04  0.00000000000E+00 0.  1.
         23    2    1    2    0    0 -0.84622570664E+03  0.22013571921E+04 -0.82299168570E+03  0.24995261617E+04  0.90798041222E+02 0.  0.
         13    1    3    3    0    0 -0.16535870731E+03  0.51233053080E+03 -0.21347341361E+03  0.57913467621E+03  0.00000000000E+00 0.  1.
        -13    1    3    3    0    0 -0.68086699933E+03  0.16890266613E+04 -0.60951827209E+03  0.19203914855E+04  0.00000000000E+00 0. -1.
         22    1    1    2    0    0  0.84622570664E+03 -0.22013571921E+04  0.66693432614E+03  0.24508922516E+04  0.00000000000E+00 0. -1.
<mgrwt>
<rscale>  0 0.49479580E+04</rscale>
<asrwt>0</asrwt>
<pdfrwt beam="1">  1        2 0.36879700E+00 0.49479580E+04</pdfrwt>
<pdfrwt beam="2">  1       -2 0.39280583E+00 0.49479580E+04</pdfrwt>
<totfact> 0.24136834E-02</totfact>
</mgrwt>
</event>
<event>
 6    1  0.1014650E-006  0.1034112E+04  0.7818608E-02  0.9271903E-01
          1   -1    0    0  501    0  0.00000000000E+00  0.00000000000E+00  0.11716982287E+04  0.11716982287E+04  0.00000000000E+00 0. -1.
         -1   -1    0    0    0  501 -0.00000000000E+00 -0.00000000000E+00 -0.22817057747E+03  0.22817057747E+03  0.00000000000E+00 0.  1.
         23    2    1    2    0    0 -0.33543493652E+03  0.34246808716E+03  0.72267950742E+03  0.87206686419E+03  0.91836582102E+02 0.  0.
         11    1    3    3    0    0 -0.17639275885E+03  0.24250750147E+03  0.42763859774E+03  0.52230169818E+03  0.00000000000E+00 0.  1.
        -11    1    3    3    0    0 -0.15904217767E+03  0.99960585693E+02  0.29504090968E+03  0.34976516601E+03  0.00000000000E+00 0. -1.
         22    1    1    2    0    0  0.33543493652E+03 -0.34246808716E+03  0.22084814386E+03  0.52780194203E+03  0.00000000000E+00 0.  1.
<mgrwt>
<rscale>  0 0.10341123E+04</rscale>
<asrwt>0</asrwt>
<pdfrwt beam="1">  1        1 0.18026126E+00 0.10341123E+04</pdfrwt>
<pdfrwt beam="2">  1       -1 0.35103166E-01 0.10341123E+04</pdfrwt>
<totfact> 0.86496400E+01</totfact>
</mgrwt>
</event>
<event>
 6    1  0.1014650E-006  0.1967768E+04  0.7818608E-02  0.8621840E-01
          2   -1    0    0  501    0  0.00000000000E+00  0.00000000000E+00  0.25152090112E+04  0.25152090112E+04  0.00000000000E+00 0. -1.
         -2   -1    0    0    0  501 -0.00000000000E+00 -0.00000000000E+00 -0.38486967112E+03  0.38486967112E+03  0.00000000000E+00 0.  1.
         23    2    1    2    0    0 -0.19389073554E+03 -0.37109397084E+03 -0.23997109989E+03  0.49307308733E+03  0.10114636993E+03 0.  0.
         13    1    3    3    0    0 -0.95292956333E+02 -0.24367002701E+03 -0.10153456965E+03  0.28065120421E+03  0.00000000000E+00 0. -1.
        -13    1    3    3    0    0 -0.98597779206E+02 -0.12742394383E+03 -0.13843653024E+03  0.21242188312E+03  0.00000000000E+00 0.  1.
         22    1    1    2    0    0  0.19389073554E+03  0.37109397084E+03  0.23703104399E+04  0.24070055950E+04  0.00000000000E+00 0. -1.
<mgrwt>
<rscale>  0 0.19677679E+04</rscale>
<asrwt>0</asrwt>
<pdfrwt beam="1">  1        2 0.38695522E+00 0.19677679E+04</pdfrwt>
<pdfrwt beam="2">  1       -2 0.59210720E-01 0.19677679E+04</pdfrwt>
<totfact> 0.84684838E+00</totfact>
</mgrwt>
</event>
<event>
 6    1  0.1014650E-006  0.5433453E+03  0.7818608E-02  0.1003046E+00
         -1   -1    0    0    0  501 -0.00000000000E+00  0.00000000000E+00  0.81440530867E+02  0.81440530867E+02  0.00000000000E+00 0.  1.
          1   -1    0    0  501    0  0.00000000000E+00 -0.00000000000E+00 -0.90625684591E+03  0.90625684591E+03  0.00000000000E+00 0. -1.
         23    2    1    2    0    0  0.85207375935E+02  0.13202795542E+03 -0.81005593062E+03  0.82986979087E+03  0.88326559642E+02 0.  0.
         13    1    3    3    0    0  0.64041420897E+02  0.32418661143E+02 -0.22991769393E+03  0.24086182587E+03  0.00000000000E+00 0. -1.
        -13    1    3    3    0    0  0.21165955039E+02  0.99609294275E+02 -0.58013823669E+03  0.58900796499E+03  0.00000000000E+00 0.  1.
         22    1    1    2    0    0 -0.85207375935E+02 -0.13202795542E+03 -0.14760384424E+02  0.15782758591E+03  0.00000000000E+00 0.  1.
<mgrwt>
<rscale>  0 0.54334534E+03</rscale>
<asrwt>0</asrwt>
<pdfrwt beam="1">  1        1 0.13942414E+00 0.54334534E+03</pdfrwt>
<pdfrwt beam="2">  1       -1 0.12529312E-01 0.54334534E+03</pdfrwt>
<totfact> 0.80169648E+02</totfact>
</mgrwt>
</event>
<event>
 6    1  0.1014650E-006  0.1118139E+04  0.7818608E-02  0.9187691E-01
         -1   -1    0    0    0  501 -0.00000000000E+00  0.00000000000E+00  0.42637062071E+03  0.42637062071E+03  0.00000000000E+00 0.  1.
          1   -1    0    0  501    0  0.00000000000E+00 -0.00000000000E+00 -0.73306760007E+03  0.73306760007E+03  0.00000000000E+00 0. -1.
         23    2    1    2    0    0 -0.53303826719E+03  0.38710469934E+02 -0.31016846869E+03  0.62498490568E+03  0.93666208347E+02 0.  0.
         11    1    3    3    0    0 -0.20442022993E+03 -0.26431742739E+02 -0.96139224943E+02  0.22744014158E+03  0.00000000000E+00 0.  1.
        -11    1    3    3    0    0 -0.32861803726E+03  0.65142212672E+02 -0.21402924375E+03  0.39754476410E+03  0.00000000000E+00 0. -1.
         22    1    1    2    0    0  0.53303826719E+03 -0.38710469934E+02  0.34714893330E+01  0.53445331509E+03  0.00000000000E+00 0.  1.
<mgrwt>
<rscale>  0 0.11181386E+04</rscale>
<asrwt>0</asrwt>
<pdfrwt beam="1">  1        1 0.11277963E+00 0.11181386E+04</pdfrwt>
<pdfrwt beam="2">  1       -1 0.65595481E-01 0.11181386E+04</pdfrwt>
<totfact> 0.59523054E+01</totfact>
</mgrwt>
</event>
<event>
 6    1  0.1014650E-006  0.2727092E+04  0.7818608E-02  0.8326268E-01
          2   -1    0    0  501    0  0.00000000000E+00  0.00000000000E+00  0.10179447223E+04  0.10179447223E+04  0.00000000000E+00 0. -1.
         -2   -1    0    0    0  501 -0.00000000000E+00 -0.00000000000E+00 -0.18264821250E+04  0.18264821250E+04  0.00000000000E+00 0.  1.
         23    2    1    2    0    0 -0.10668924476E+03  0.11701733505E+04  0.31372124967E+03  0.12195721620E+04  0.90812833910E+02 0.  0.
         13    1    3    3    0    0 -0.32814106613E+01  0.49921017732E+03  0.11677157135E+03  0.51269598075E+03  0.00000000000E+00 0. -1.
        -13    1    3    3    0    0 -0.10340783410E+03  0.67096317317E+03  0.19694967832E+03  0.70687618130E+03  0.00000000000E+00 0.  1.
         22    1    1    2    0    0  0.10668924476E+03 -0.11701733505E+04 -0.11222586524E+04  0.16248546852E+04  0.00000000000E+00 0.  1.
<mgrwt>
<rscale>  0 0.27270921E+04</rscale>
<asrwt>0</asrwt>
<pdfrwt beam="1">  1        2 0.15660688E+00 0.27270921E+04</pdfrwt>
<pdfrwt beam="2">  1       -2 0.28099725E+00 0.27270921E+04</pdfrwt>
<totfact> 0.89166485E-01</totfact>
</mgrwt>
</event>
<event>
 6    1  0.1014650E-006  0.1274679E+04  0.7818608E-02  0.9049890E-01
         -1   -1    0    0    0  501 -0.00000000000E+00  0.00000000000E+00  0.10565017687E+04  0.10565017687E+04  0.00000000000E+00 0.  1.
          1   -1    0    0  501    0  0.00000000000E+00 -0.00000000000E+00 -0.38447766582E+03  0.38447766582E+03  0.00000000000E+00 0. -1.
         23    2    1    2    0    0  0.30627175763E+03  0.49738640734E+03  0.59434584594E+02  0.59453891939E+03  0.93533037466E+02 0.  0.
         13    1    3    3    0    0  0.21200088992E+03  0.35570344347E+03 -0.57489375011E+00  0.41408893674E+03  0.00000000000E+00 0. -1.
        -13    1    3    3    0    0  0.94270867713E+02  0.14168296387E+03  0.60009478344E+02  0.18044998266E+03  0.00000000000E+00 0.  1.
         22    1    1    2    0    0 -0.30627175763E+03 -0.49738640734E+03  0.61258951826E+03  0.84644051511E+03  0.00000000000E+00 0.  1.
<mgrwt>
<rscale>  0 0.12746785E+04</rscale>
<asrwt>0</asrwt>
<pdfrwt beam="1">  1        1 0.59150411E-01 0.12746785E+04</pdfrwt>
<pdfrwt beam="2">  1       -1 0.16253873E+00 0.12746785E+04</pdfrwt>
<totfact> 0.17407317E+01</totfact>
</mgrwt>
</event>
<event>
 6    1  0.1014650E-006  0.2988322E+04  0.7818608E-02  0.8247073E-01
          1   -1    0    0  501    0  0.00000000000E+00  0.00000000000E+00  0.18026549847E+04  0.18026549847E+04  0.00000000000E+00 0. -1.
         -1   -1    0    0    0  501 -0.00000000000E+00 -0.00000000000E+00 -0.12384604967E+04  0.12384604967E+04  0.00000000000E+00 0.  1.
         23    2    1    2    0    0  0.41516494809E+03  0.48010797108E+03  0.16571236697E+04  0.17772484812E+04  0.98426161228E+02 0.  0.
         11    1    3    3    0    0  0.32472275778E+03  0.42498284257E+03  0.14263728461E+04  0.15233498554E+04  0.00000000000E+00 0.  1.
        -11    1    3    3    0    0  0.90442190305E+02  0.55125128509E+02  0.23075082357E+03  0.25389862575E+03  0.00000000000E+00 0. -1.
         22    1    1    2    0    0 -0.41516494809E+03 -0.48010797108E+03 -0.10929291816E+04  0.12638670002E+04  0.00000000000E+00 0.  1.
<mgrwt>
<rscale>  0 0.29883219E+04</rscale>
<asrwt>0</asrwt>
<pdfrwt beam="1">  1        1 0.27733154E+00 0.29883219E+04</pdfrwt>
<pdfrwt beam="2">  1       -1 0.19053238E+00 0.29883219E+04</pdfrwt>
<totfact> 0.60551773E-01</totfact>
</mgrwt>
</event>
<event>
 6    1  0.1014650E-006  0.1143691E+04  0.7818608E-02  0.9163624E-01
         -1   -1    0    0    0  501 -0.00000000000E+00  0.00000000000E+00  0.27896272073E+03  0.27896272073E+03  0.00000000000E+00 0.  1.
          1   -1    0    0  501    0  0.00000000000E+00 -0.00000000000E+00 -0.11722257697E+04  0.11722257697E+04  0.00000000000E+00 0. -1.
         23    2    1    2    0    0 -0.54438574290E+03 -0.16268889158E+03 -0.43391596380E+03  0.72055639617E+03  0.89971906192E+02 0.  0.
         11    1    3    3    0    0 -0.30357491485E+03 -0.13366444843E+03 -0.22951200986E+03  0.40336047944E+03  0.00000000000E+00 0. -1.
        -11    1    3    3    0    0 -0.24081082805E+03 -0.29024443149E+02 -0.20440395394E+03  0.31719591674E+03  0.00000000000E+00 0.  1.
         22    1    1    2    0    0  0.54438574290E+03  0.16268889158E+03 -0.45934708517E+03  0.73063209427E+03  0.00000000000E+00 0. -1.
<mgrwt>
<rscale>  0 0.11436910E+04</rscale>
<asrwt>0</asrwt>
<pdfrwt beam="1">  1        1 0.18034242E+00 0.11436910E+04</pdfrwt>
<pdfrwt beam="2">  1       -1 0.42917342E-01 0.11436910E+04</pdfrwt>
<totfact> 0.59496075E+01</totfact>
</mgrwt>
</event>
<event>
 6    1  0.1014650E-006  0.4397646E+04  0.7818608E-02  0.7928805E-01
          2   -1    0    0  501    0  0.00000000000E+00  0.00000000000E+00  0.31522690945E+04  0.31522690945E+04  0.00000000000E+00 0. -1.
         -2   -1    0    0    0  501 -0.00000000000E+00 -0.00000000000E+00 -0.15337593949E+04  0.15337593949E+04  0.00000000000E+00 0.  1.
         23    2    1    2    0    0  0.11044164258E+03 -0.10862794440E+04 -0.12229450779E+04  0.16420071951E+04  0.91611015828E+02 0.  0.
         13    1    3    3    0    0  0.93548034123E+02 -0.80156780593E+03 -0.95935271485E+03  0.12536426180E+04  0.00000000000E+00 0.  1.
        -13    1    3    3    0    0  0.16893608456E+02 -0.28471163808E+03 -0.26359236309E+03  0.38836457710E+03  0.00000000000E+00 0. -1.
         22    1    1    2    0    0 -0.11044164258E+03  0.10862794440E+04  0.28414547776E+04  0.30440212942E+04  0.00000000000E+00 0. -1.
<mgrwt>
<rscale>  0 0.43976459E+04</rscale>
<asrwt>0</asrwt>
<pdfrwt beam="1">  1        2 0.48496447E+00 0.43976459E+04</pdfrwt>
<pdfrwt beam="2">  1       -2 0.23596298E+00 0.43976459E+04</pdfrwt>
<totfact> 0.83430988E-02</totfact>
</mgrwt>
</event>
<event>
 6    1  0.1014650E-006  0.2629789E+04  0.7818608E-02  0.8358152E-01
         -2   -1    0    0    0  501 -0.00000000000E+00  0.00000000000E+00  0.20650669232E+04  0.20650669232E+04  0.00000000000E+00 0.  1.
          2   -1    0    0  501    0  0.00000000000E+00 -0.00000000000E+00 -0.83723589278E+03  0.83723589278E+03  0.00000000000E+00 0. -1.
         23    2    1    2    0    0  0.76385363649E+03 -0.31924065800E+03 -0.51044641058E+03  0.97694689108E+03  0.92101651503E+02 0.  0.
         13    1    3    3    0    0  0.39046284322E+03 -0.12688527234E+03 -0.28939191481E+03  0.50230347862E+03  0.00000000000E+00 0. -1.
        -13    1    3    3    0    0  0.37339079327E+03 -0.19235538566E+03 -0.22105449577E+03  0.47464341246E+03  0.00000000000E+00 0.  1.
         22    1    1    2    0    0 -0.76385363649E+03  0.31924065800E+03  0.17382774410E+04  0.19253559249E+04  0.00000000000E+00 0.  1.
<mgrwt>
<rscale>  0 0.26297895E+04</rscale>
<asrwt>0</asrwt>
<pdfrwt beam="1">  1        2 0.12880552E+00 0.26297895E+04</pdfrwt>
<pdfrwt beam="2">  1       -2 0.31770260E+00 0.26297895E+04</pdfrwt>
<totfact> 0.70738726E-01</totfact>
</mgrwt>
</event>
<event>
 6    1  0.1014650E-006  0.2725191E+04  0.7818608E-02  0.8326877E-01
          2   -1    0    0  501    0  0.00000000000E+00  0.00000000000E+00  0.22138629469E+04  0.22138629469E+04  0.00000000000E+00 0. -1.
         -2   -1    0    0    0  501 -0.00000000000E+00 -0.00000000000E+00 -0.83865476763E+03  0.83865476763E+03  0.00000000000E+00 0.  1.
         23    2    1    2    0    0  0.52180886472E+03 -0.37460407665E+03  0.20322507058E+04  0.21336501576E+04  0.99032107782E+02 0.  0.
         13    1    3    3    0    0  0.38869254627E+03 -0.30266543970E+03  0.16678409085E+04  0.17390749150E+04  0.00000000000E+00 0. -1.
        -13    1    3    3    0    0  0.13311631845E+03 -0.71938636953E+02  0.36440979722E+03  0.39457524255E+03  0.00000000000E+00 0.  1.
         22    1    1    2    0    0 -0.52180886472E+03  0.37460407665E+03 -0.65704252650E+03  0.91886755693E+03  0.00000000000E+00 0.  1.
<mgrwt>
<rscale>  0 0.27251912E+04</rscale>
<asrwt>0</asrwt>
<pdfrwt beam="1">  1        2 0.34059430E+00 0.27251912E+04</pdfrwt>
<pdfrwt beam="2">  1       -2 0.12902381E+00 0.27251912E+04</pdfrwt>
<totfact> 0.19654531E+00</totfact>
</mgrwt>
</event>
<event>
 6    1  0.1014650E-006  0.1630420E+04  0.7818608E-02  0.8802075E-01
          2   -1    0    0  501    0  0.00000000000E+00  0.00000000000E+00  0.98842321339E+03  0.98842321339E+03  0.00000000000E+00 0. -1.
         -2   -1    0    0    0  501 -0.00000000000E+00 -0.00000000000E+00 -0.67235084472E+03  0.67235084472E+03  0.00000000000E+00 0.  1.
         23    2    1    2    0    0  0.70023502243E+03 -0.41073123735E+03  0.12021981696E+03  0.82567678355E+03  0.90885150224E+02 0.  0.
         13    1    3    3    0    0  0.20673315826E+03 -0.16886504023E+03  0.50796837422E+02  0.27172471221E+03  0.00000000000E+00 0. -1.
        -13    1    3    3    0    0  0.49350186418E+03 -0.24186619712E+03  0.69422979539E+02  0.55395207134E+03  0.00000000000E+00 0.  1.
         22    1    1    2    0    0 -0.70023502243E+03  0.41073123735E+03  0.19585255171E+03  0.83509727456E+03  0.00000000000E+00 0.  1.
<mgrwt>
<rscale>  0 0.16304198E+04</rscale>
<asrwt>0</asrwt>
<pdfrwt beam="1">  1        2 0.15206511E+00 0.16304198E+04</pdfrwt>
<pdfrwt beam="2">  1       -2 0.10343859E+00 0.16304198E+04</pdfrwt>
<totfact> 0.18683990E+01</totfact>
</mgrwt>
</event>
<event>
 6    1  0.1014650E-006  0.6371528E+04  0.7818608E-02  0.7645969E-01
         -2   -1    0    0    0  501 -0.00000000000E+00  0.00000000000E+00  0.27792502520E+04  0.27792502520E+04  0.00000000000E+00 0.  1.
          2   -1    0    0  501    0  0.00000000000E+00 -0.00000000000E+00 -0.36517377422E+04  0.36517377422E+04  0.00000000000E+00 0. -1.
         23    2    1    2    0    0  0.26972703789E+04  0.12759868186E+04 -0.15608908872E+04  0.33687487653E+04  0.93155913192E+02 0.  0.
         11    1    3    3    0    0  0.14281225386E+04  0.72695282908E+03 -0.83607339400E+03  0.18074880694E+04  0.00000000000E+00 0.  1.
        -11    1    3    3    0    0  0.12691478403E+04  0.54903398956E+03 -0.72481749318E+03  0.15612606959E+04  0.00000000000E+00 0. -1.
         22    1    1    2    0    0 -0.26972703789E+04 -0.12759868186E+04  0.68840339698E+03  0.30622392289E+04  0.00000000000E+00 0.  1.
<mgrwt>
<rscale>  0 0.63715282E+04</rscale>
<asrwt>0</asrwt>
<pdfrwt beam="1">  1        2 0.56180581E+00 0.63715282E+04</pdfrwt>
<pdfrwt beam="2">  1       -2 0.42757696E+00 0.63715282E+04</pdfrwt>
<totfact> 0.20244515E-03</totfact>
</mgrwt>
</event>
<event>
 6    1  0.1014650E-006  0.2109499E+04  0.7818608E-02  0.8557070E-01
          1   -1    0    0  501    0  0.00000000000E+00  0.00000000000E+00  0.21189460001E+04  0.21189460001E+04  0.00000000000E+00 0. -1.
         -1   -1    0    0    0  501 -0.00000000000E+00 -0.00000000000E+00 -0.52502362837E+03  0.52502362837E+03  0.00000000000E+00 0.  1.
         23    2    1    2    0    0  0.72606495898E+02 -0.89815506154E+03  0.11605364377E+03  0.91305940698E+03  0.90856010383E+02 0.  0.
         13    1    3    3    0    0 -0.15556362649E+02 -0.30645703988E+03  0.54732856936E+02  0.31169472780E+03  0.00000000000E+00 0. -1.
        -13    1    3    3    0    0  0.88162858547E+02 -0.59169802166E+03  0.61320786839E+02  0.60136467918E+03  0.00000000000E+00 0.  1.
         22    1    1    2    0    0 -0.72606495898E+02  0.89815506154E+03  0.14778687280E+04  0.17309102215E+04  0.00000000000E+00 0. -1.
<mgrwt>
<rscale>  0 0.21094992E+04</rscale>
<asrwt>0</asrwt>
<pdfrwt beam="1">  1        1 0.32599169E+00 0.21094992E+04</pdfrwt>
<pdfrwt beam="2">  1       -1 0.80772867E-01 0.21094992E+04</pdfrwt>
<totfact> 0.34737631E+00</totfact>
</mgrwt>
</event>
<event>
 6    1  0.1014650E-006  0.5194193E+04  0.7818608E-02  0.7799230E-01
         -4   -1    0    0    0  501 -0.00000000000E+00  0.00000000000E+00  0.25553439564E+04  0.25553439564E+04  0.00000000000E+00 0.  1.
          4   -1    0    0  501    0  0.00000000000E+00 -0.00000000000E+00 -0.26395313741E+04  0.26395313741E+04  0.00000000000E+00 0. -1.
         23    2    1    2    0    0 -0.17273117557E+04  0.15336408590E+04  0.11433991055E+04  0.25790334282E+04  0.91606351206E+02 0.  0.
         11    1    3    3    0    0 -0.12980413779E+04  0.11046457793E+04  0.82240146719E+03  0.18924845811E+04  0.00000000000E+00 0. -1.
        -11    1    3    3    0    0 -0.42927037780E+03  0.42899507970E+03  0.32099763835E+03  0.68654884712E+03  0.00000000000E+00 0.  1.
         22    1    1    2    0    0  0.17273117557E+04 -0.15336408590E+04 -0.12275865233E+04  0.26158419023E+04  0.00000000000E+00 0. -1.
<mgrwt>
<rscale>  0 0.51941931E+04</rscale>
<asrwt>0</asrwt>
<pdfrwt beam="1">  1        4 0.40608175E+00 0.51941931E+04</pdfrwt>
<pdfrwt beam="2">  1       -4 0.39312984E+00 0.51941931E+04</pdfrwt>
<totfact> 0.64636982E-05</totfact>
</mgrwt>
</event>
<event>
 6    1  0.1014650E-006  0.2674197E+04  0.7818608E-02  0.8343426E-01
         -2   -1    0    0    0  501 -0.00000000000E+00  0.00000000000E+00  0.11250692509E+04  0.11250692509E+04  0.00000000000E+00 0.  1.
          2   -1    0    0  501    0  0.00000000000E+00 -0.00000000000E+00 -0.15890866712E+04  0.15890866712E+04  0.00000000000E+00 0. -1.
         23    2    1    2    0    0 -0.27981339642E+02 -0.10783520648E+04  0.56476196886E+03  0.12235140594E+04  0.12001850289E+03 0.  0.
         13    1    3    3    0    0  0.21577850849E+02 -0.27671967140E+03  0.19570515736E+03  0.33961726812E+03  0.00000000000E+00 0. -1.
        -13    1    3    3    0    0 -0.49559190491E+02 -0.80163239342E+03  0.36905681150E+03  0.88389679129E+03  0.00000000000E+00 0.  1.
         22    1    1    2    0    0  0.27981339642E+02  0.10783520648E+04 -0.10287793892E+04  0.14906418627E+04  0.00000000000E+00 0. -1.
<mgrwt>
<rscale>  0 0.26741971E+04</rscale>
<asrwt>0</asrwt>
<pdfrwt beam="1">  1        2 0.24447487E+00 0.26741971E+04</pdfrwt>
<pdfrwt beam="2">  1       -2 0.17308758E+00 0.26741971E+04</pdfrwt>
<totfact> 0.20155035E+00</totfact>
</mgrwt>
</event>
<event>
 6    1  0.1014650E-006  0.2105867E+04  0.7818608E-02  0.8558663E-01
         -1   -1    0    0    0  501 -0.00000000000E+00  0.00000000000E+00  0.46223151194E+03  0.46223151194E+03  0.00000000000E+00 0.  1.
          1   -1    0    0  501    0  0.00000000000E+00 -0.00000000000E+00 -0.23985155628E+04  0.23985155628E+04  0.00000000000E+00 0. -1.
         23    2    1    2    0    0 -0.49240039431E+03  0.85550543416E+03 -0.14605871985E+04  0.17650120741E+04  0.87206428947E+02 0.  0.
         11    1    3    3    0    0 -0.33697315189E+03  0.63097187948E+03 -0.99887434951E+03  0.12285871495E+04  0.00000000000E+00 0. -1.
        -11    1    3    3    0    0 -0.15542724242E+03  0.22453355468E+03 -0.46171284896E+03  0.53642492463E+03  0.00000000000E+00 0.  1.
         22    1    1    2    0    0  0.49240039431E+03 -0.85550543416E+03 -0.47569685238E+03  0.10957350006E+04  0.00000000000E+00 0.  1.
<mgrwt>
<rscale>  0 0.21058675E+04</rscale>
<asrwt>0</asrwt>
<pdfrwt beam="1">  1        1 0.36900240E+00 0.21058675E+04</pdfrwt>
<pdfrwt beam="2">  1       -1 0.71112539E-01 0.21058675E+04</pdfrwt>
<totfact> 0.29238452E+00</totfact>
</mgrwt>
</event>
<event>
 6    1  0.1014650E-006  0.2906216E+04  0.7818608E-02  0.8271030E-01
         -1   -1    0    0    0  501 -0.00000000000E+00  0.00000000000E+00  0.66170838262E+03  0.66170838262E+03  0.00000000000E+00 0.  1.
          1   -1    0    0  501    0  0.00000000000E+00 -0.00000000000E+00 -0.31910173516E+04  0.31910173516E+04  0.00000000000E+00 0. -1.
         23    2    1    2    0    0  0.10006477013E+04 -0.25897349651E+03 -0.26170071837E+04  0.28153954730E+04  0.96757303438E+02 0.  0.
         13    1    3    3    0    0  0.78538410207E+02 -0.40381934799E+02 -0.17668639500E+03  0.19752737713E+03  0.00000000000E+00 0. -1.
        -13    1    3    3    0    0  0.92210929108E+03 -0.21859156171E+03 -0.24403207887E+04  0.26178680958E+04  0.00000000000E+00 0.  1.
         22    1    1    2    0    0 -0.10006477013E+04  0.25897349651E+03  0.87698214722E+02  0.10373302612E+04  0.00000000000E+00 0.  1.
<mgrwt>
<rscale>  0 0.29062160E+04</rscale>
<asrwt>0</asrwt>
<pdfrwt beam="1">  1        1 0.49092575E+00 0.29062160E+04</pdfrwt>
<pdfrwt beam="2">  1       -1 0.10180129E+00 0.29062160E+04</pdfrwt>
<totfact> 0.33856043E-01</totfact>
</mgrwt>
</event>
<event>
 6    1  0.1014650E-006  0.1995689E+04  0.7818608E-02  0.8608639E-01
         -1   -1    0    0    0  501 -0.00000000000E+00  0.00000000000E+00  0.30306541273E+03  0.30306541273E+03  0.00000000000E+00 0.  1.
          1   -1    0    0  501    0  0.00000000000E+00 -0.00000000000E+00 -0.32854086211E+04  0.32854086211E+04  0.00000000000E+00 0. -1.
         23    2    1    2    0    0  0.46925277916E+03  0.66711989840E+03 -0.25216494259E+04  0.26517318651E+04  0.87857426493E+02 0.  0.
         13    1    3    3    0    0  0.35515133936E+03  0.43436875150E+03 -0.17108232866E+04  0.18004791040E+04  0.00000000000E+00 0.  1.
        -13    1    3    3    0    0  0.11410143981E+03  0.23275114690E+03 -0.81082613933E+03  0.85125276103E+03  0.00000000000E+00 0. -1.
         22    1    1    2    0    0 -0.46925277916E+03 -0.66711989840E+03 -0.46069378248E+03  0.93674216880E+03  0.00000000000E+00 0.  1.
<mgrwt>
<rscale>  0 0.19956891E+04</rscale>
<asrwt>0</asrwt>
<pdfrwt beam="1">  1        1 0.50544747E+00 0.19956891E+04</pdfrwt>
<pdfrwt beam="2">  1       -1 0.46625449E-01 0.19956891E+04</pdfrwt>
<totfact> 0.15629038E+00</totfact>
</mgrwt>
</event>
<event>
 6    1  0.1014650E-006  0.1593242E+04  0.7818608E-02  0.8824711E-01
         -1   -1    0    0    0  501 -0.00000000000E+00  0.00000000000E+00  0.13045726732E+04  0.13045726732E+04  0.00000000000E+00 0.  1.
          1   -1    0    0  501    0  0.00000000000E+00 -0.00000000000E+00 -0.48644651003E+03  0.48644651003E+03  0.00000000000E+00 0. -1.
         23    2    1    2    0    0  0.65140149552E+03 -0.31062529750E+02  0.91931074189E+03  0.11310744067E+04  0.94383707613E+02 0.  0.
         13    1    3    3    0    0  0.78226354304E+02  0.17755411553E+02  0.15440693071E+03  0.17400033735E+03  0.00000000000E+00 0.  1.
        -13    1    3    3    0    0  0.57317514122E+03 -0.48817941303E+02  0.76490381119E+03  0.95707406938E+03  0.00000000000E+00 0. -1.
         22    1    1    2    0    0 -0.65140149552E+03  0.31062529750E+02 -0.10118457868E+03  0.65994477654E+03  0.00000000000E+00 0. -1.
<mgrwt>
<rscale>  0 0.15932418E+04</rscale>
<asrwt>0</asrwt>
<pdfrwt beam="1">  1        1 0.74837925E-01 0.15932418E+04</pdfrwt>
<pdfrwt beam="2">  1       -1 0.20070349E+00 0.15932418E+04</pdfrwt>
<totfact> 0.65766690E+00</totfact>
</mgrwt>
</event>
<event>
 6    1  0.1014650E-006  0.3128190E+04  0.7818608E-02  0.8208044E-01
         -1   -1    0    0    0  501 -0.00000000000E+00  0.00000000000E+00  0.16375337127E+04  0.16375337127E+04  0.00000000000E+00 0.  1.
          1   -1    0    0  501    0  0.00000000000E+00 -0.00000000000E+00 -0.14939502582E+04  0.14939502582E+04  0.00000000000E+00 0. -1.
         23    2    1    2    0    0 -0.10897610410E+04 -0.46293179920E+03 -0.94904445702E+03  0.15203599129E+04  0.94466427617E+02 0.  0.
         13    1    3    3    0    0 -0.96727088014E+03 -0.43801605387E+03 -0.86719410967E+03  0.13709473523E+04  0.00000000000E+00 0. -1.
        -13    1    3    3    0    0 -0.12249016089E+03 -0.24915745330E+02 -0.81850347351E+02  0.14941256052E+03  0.00000000000E+00 0.  1.
         22    1    1    2    0    0  0.10897610410E+04  0.46293179920E+03  0.10926279116E+04  0.16111240581E+04  0.00000000000E+00 0.  1.
<mgrwt>
<rscale>  0 0.31281905E+04</rscale>
<asrwt>0</asrwt>
<pdfrwt beam="1">  1        1 0.22983850E+00 0.31281905E+04</pdfrwt>
<pdfrwt beam="2">  1       -1 0.25192826E+00 0.31281905E+04</pdfrwt>
<totfact> 0.37656919E-01</totfact>
</mgrwt>
</event>
<event>
 6    1  0.1014650E-006  0.1542432E+04  0.7818608E-02  0.8856717E-01
          1   -1    0    0  501    0  0.00000000000E+00  0.00000000000E+00  0.97040918135E+03  0.97040918135E+03  0.00000000000E+00 0. -1.
         -1   -1    0    0    0  501 -0.00000000000E+00 -0.00000000000E+00 -0.61291027578E+03  0.61291027578E+03  0.00000000000E+00 0.  1.
         23    2    1    2    0    0 -0.15654429791E+03 -0.31859496917E+03 -0.52021297840E+03  0.63654228016E+03  0.92496810479E+02 0.  0.
         11    1    3    3    0    0 -0.11559633618E+03 -0.15232245064E+03 -0.32301767783E+03  0.37537323040E+03  0.00000000000E+00 0. -1.
        -11    1    3    3    0    0 -0.40947961728E+02 -0.16627251853E+03 -0.19719530057E+03  0.26116904976E+03  0.00000000000E+00 0.  1.
         22    1    1    2    0    0  0.15654429791E+03  0.31859496917E+03  0.87771188396E+03  0.94677717698E+03  0.00000000000E+00 0. -1.
<mgrwt>
<rscale>  0 0.15424315E+04</rscale>
<asrwt>0</asrwt>
<pdfrwt beam="1">  1        1 0.14929372E+00 0.15424315E+04</pdfrwt>
<pdfrwt beam="2">  1       -1 0.94293889E-01 0.15424315E+04</pdfrwt>
<totfact> 0.16763432E+01</totfact>
</mgrwt>
</event>
<event>
 6    1  0.1014650E-006  0.1872637E+04  0.7818608E-02  0.8668598E-01
         -2   -1    0    0    0  501 -0.00000000000E+00  0.00000000000E+00  0.41328315728E+03  0.41328315728E+03  0.00000000000E+00 0.  1.
          2   -1    0    0  501    0  0.00000000000E+00 -0.00000000000E+00 -0.21212865380E+04  0.21212865380E+04  0.00000000000E+00 0. -1.
         23    2    1    2    0    0  0.30230633565E+03 -0.85207295459E+03 -0.11741487920E+04  0.14846086663E+04  0.89554819384E+02 0.  0.
         11    1    3    3    0    0  0.10908234263E+03 -0.43451741442E+03 -0.60235283257E+03  0.75068853449E+03  0.00000000000E+00 0. -1.
        -11    1    3    3    0    0  0.19322399302E+03 -0.41755554017E+03 -0.57179595943E+03  0.73392013177E+03  0.00000000000E+00 0.  1.
         22    1    1    2    0    0 -0.30230633565E+03  0.85207295459E+03 -0.53385458869E+03  0.10499610290E+04  0.00000000000E+00 0. -1.
<mgrwt>
<rscale>  0 0.18726366E+04</rscale>
<asrwt>0</asrwt>
<pdfrwt beam="1">  1        2 0.32635178E+00 0.18726366E+04</pdfrwt>
<pdfrwt beam="2">  1       -2 0.63582024E-01 0.18726366E+04</pdfrwt>
<totfact> 0.12283647E+01</totfact>
</mgrwt>
</event>
<event>
 6    1  0.1014650E-006  0.1254832E+04  0.7818608E-02  0.9066171E-01
          2   -1    0    0  501    0  0.00000000000E+00  0.00000000000E+00  0.20033576554E+04  0.20033576554E+04  0.00000000000E+00 0. -1.
         -2   -1    0    0    0  501 -0.00000000000E+00 -0.00000000000E+00 -0.19649550866E+03  0.19649550866E+03  0.00000000000E+00 0.  1.
         23    2    1    2    0    0  0.37756322256E+03  0.45934230522E+03  0.12427193159E+04  0.13802151500E+04  0.84221267785E+02 0.  0.
         11    1    3    3    0    0  0.27104182761E+03  0.26938213659E+03  0.76138105240E+03  0.85189877027E+03  0.00000000000E+00 0. -1.
        -11    1    3    3    0    0  0.10652139495E+03  0.18996016863E+03  0.48133826348E+03  0.52831637977E+03  0.00000000000E+00 0.  1.
         22    1    1    2    0    0 -0.37756322256E+03 -0.45934230522E+03  0.56414283082E+03  0.81963801398E+03  0.00000000000E+00 0.  1.
<mgrwt>
<rscale>  0 0.12548319E+04</rscale>
<asrwt>0</asrwt>
<pdfrwt beam="1">  1        2 0.30820886E+00 0.12548319E+04</pdfrwt>
<pdfrwt beam="2">  1       -2 0.30230080E-01 0.12548319E+04</pdfrwt>
<totfact> 0.66191249E+01</totfact>
</mgrwt>
</event>
<event>
 6    1  0.1014650E-006  0.2277511E+04  0.7818608E-02  0.8486841E-01
         -2   -1    0    0    0  501 -0.00000000000E+00  0.00000000000E+00  0.55804381200E+03  0.55804381200E+03  0.00000000000E+00 0.  1.
          2   -1    0    0  501    0  0.00000000000E+00 -0.00000000000E+00 -0.23237682213E+04  0.23237682213E+04  0.00000000000E+00 0. -1.
         23    2    1    2    0    0  0.30832540317E+03  0.10039838645E+04 -0.14351851338E+04  0.17807650919E+04  0.91212882347E+02 0.  0.
         11    1    3    3    0    0  0.12161137494E+03  0.42144286290E+03 -0.67513604259E+03  0.80511619610E+03  0.00000000000E+00 0.  1.
        -11    1    3    3    0    0  0.18671402823E+03  0.58254100161E+03 -0.76004909120E+03  0.97564889583E+03  0.00000000000E+00 0. -1.
         22    1    1    2    0    0 -0.30832540317E+03 -0.10039838645E+04 -0.33053927549E+03  0.11010469414E+04  0.00000000000E+00 0.  1.
<mgrwt>
<rscale>  0 0.22775113E+04</rscale>
<asrwt>0</asrwt>
<pdfrwt beam="1">  1        2 0.35750280E+00 0.22775113E+04</pdfrwt>
<pdfrwt beam="2">  1       -2 0.85852895E-01 0.22775113E+04</pdfrwt>
<totfact> 0.47007001E+00</totfact>
</mgrwt>
</event>
<event>
 6    1  0.1014650E-006  0.2086899E+04  0.7818608E-02  0.8567037E-01
         -1   -1    0    0    0  501 -0.00000000000E+00  0.00000000000E+00  0.36788513123E+03  0.36788513123E+03  0.00000000000E+00 0.  1.
          1   -1    0    0  501    0  0.00000000000E+00 -0.00000000000E+00 -0.29595823707E+04  0.29595823707E+04  0.00000000000E+00 0. -1.
         23    2    1    2    0    0  0.84507519608E+03  0.17341445317E+03 -0.22286269834E+04  0.23914949220E+04  0.90802373008E+02 0.  0.
         13    1    3    3    0    0  0.67615408152E+03  0.10102670470E+03 -0.17616674613E+04  0.18896727180E+04  0.00000000000E+00 0.  1.
        -13    1    3    3    0    0  0.16892111456E+03  0.72387748467E+02 -0.46695952214E+03  0.50182220397E+03  0.00000000000E+00 0. -1.
         22    1    1    2    0    0 -0.84507519608E+03 -0.17341445317E+03 -0.36307025604E+03  0.93597257995E+03  0.00000000000E+00 0. -1.
<mgrwt>
<rscale>  0 0.20868985E+04</rscale>
<asrwt>0</asrwt>
<pdfrwt beam="1">  1        1 0.45532036E+00 0.20868985E+04</pdfrwt>
<pdfrwt beam="2">  1       -1 0.56597713E-01 0.20868985E+04</pdfrwt>
<totfact> 0.18633936E+00</totfact>
</mgrwt>
</event>
<event>
 6    1  0.1014650E-006  0.3130269E+04  0.7818608E-02  0.8207480E-01
          2   -1    0    0  501    0  0.00000000000E+00  0.00000000000E+00  0.33179349414E+04  0.33179349414E+04  0.00000000000E+00 0. -1.
         -2   -1    0    0    0  501 -0.00000000000E+00 -0.00000000000E+00 -0.73830421088E+03  0.73830421088E+03  0.00000000000E+00 0.  1.
         23    2    1    2    0    0  0.95663392028E+03  0.12363914917E+04  0.12379585708E+04  0.19961671724E+04  0.91266527850E+02 0.  0.
         11    1    3    3    0    0  0.22688021195E+03  0.25845773045E+03  0.23316064778E+03  0.41549839552E+03  0.00000000000E+00 0.  1.
        -11    1    3    3    0    0  0.72975370833E+03  0.97793376121E+03  0.10047979230E+04  0.15806687769E+04  0.00000000000E+00 0. -1.
         22    1    1    2    0    0 -0.95663392028E+03 -0.12363914917E+04  0.13416721597E+04  0.20600719799E+04  0.00000000000E+00 0. -1.
<mgrwt>
<rscale>  0 0.31302686E+04</rscale>
<asrwt>0</asrwt>
<pdfrwt beam="1">  1        2 0.51045152E+00 0.31302686E+04</pdfrwt>
<pdfrwt beam="2">  1       -2 0.11358526E+00 0.31302686E+04</pdfrwt>
<totfact> 0.55712336E-01</totfact>
</mgrwt>
</event>
<event>
 6    1  0.1014650E-006  0.1550428E+04  0.7818608E-02  0.8851595E-01
          1   -1    0    0  501    0  0.00000000000E+00  0.00000000000E+00  0.50746743780E+03  0.50746743780E+03  0.00000000000E+00 0. -1.
         -1   -1    0    0    0  501 -0.00000000000E+00 -0.00000000000E+00 -0.11842268811E+04  0.11842268811E+04  0.00000000000E+00 0.  1.
         23    2    1    2    0    0 -0.66362801665E+03  0.39296515028E+03 -0.28875021710E+03  0.82834333959E+03  0.89175369689E+02 0.  0.
         11    1    3    3    0    0 -0.27931206481E+03  0.11525478200E+03 -0.10675572110E+03  0.32046166433E+03  0.00000000000E+00 0. -1.
        -11    1    3    3    0    0 -0.38431595184E+03  0.27771036828E+03 -0.18199449600E+03  0.50788167526E+03  0.00000000000E+00 0.  1.
         22    1    1    2    0    0  0.66362801665E+03 -0.39296515028E+03 -0.38800922615E+03  0.86335097926E+03  0.00000000000E+00 0. -1.
<mgrwt>
<rscale>  0 0.15504278E+04</rscale>
<asrwt>0</asrwt>
<pdfrwt beam="1">  1        1 0.78071915E-01 0.15504278E+04</pdfrwt>
<pdfrwt beam="2">  1       -1 0.18218875E+00 0.15504278E+04</pdfrwt>
<totfact> 0.83954504E+00</totfact>
</mgrwt>
</event>
<event>
 6    1  0.1014650E-006  0.4980317E+03  0.7818608E-02  0.1014294E+00
          2   -1    0    0  501    0  0.00000000000E+00  0.00000000000E+00  0.56418444156E+03  0.56418444156E+03  0.00000000000E+00 0. -1.
         -2   -1    0    0    0  501 -0.00000000000E+00 -0.00000000000E+00 -0.10990888932E+03  0.10990888932E+03  0.00000000000E+00 0.  1.
         23    2    1    2    0    0 -0.16876439953E+03 -0.15094822464E+03  0.12500248347E+03  0.27448409314E+03  0.91919026557E+02 0.  0.
         11    1    3    3    0    0 -0.39670702044E+02 -0.18451461686E+02 -0.10721798927E+02  0.45046398427E+02  0.00000000000E+00 0.  1.
        -11    1    3    3    0    0 -0.12909369748E+03 -0.13249676296E+03  0.13572428239E+03  0.22943769471E+03  0.00000000000E+00 0. -1.
         22    1    1    2    0    0  0.16876439953E+03  0.15094822464E+03  0.32927306877E+03  0.39960923774E+03  0.00000000000E+00 0.  1.
<mgrwt>
<rscale>  0 0.49803167E+03</rscale>
<asrwt>0</asrwt>
<pdfrwt beam="1">  1        2 0.86797605E-01 0.49803167E+03</pdfrwt>
<pdfrwt beam="2">  1       -2 0.16909060E-01 0.49803167E+03</pdfrwt>
<totfact> 0.15245525E+03</totfact>
</mgrwt>
</event>
<event>
 6    1  0.1014650E-006  0.3002404E+04  0.7818608E-02  0.8243045E-01
         -2   -1    0    0    0  501 -0.00000000000E+00  0.00000000000E+00  0.33454983381E+04  0.33454983381E+04  0.00000000000E+00 0.  1.
          2   -1    0    0  501    0  0.00000000000E+00 -0.00000000000E+00 -0.67362389324E+03  0.67362389324E+03  0.00000000000E+00 0. -1.
         23    2    1    2    0    0 -0.96588622186E+03 -0.37440018226E+03  0.27890560682E+04  0.29766044987E+04  0.90713284612E+02 0.  0.
         13    1    3    3    0    0 -0.76303747101E+03 -0.29975566598E+03  0.23061881777E+04  0.24475668637E+04  0.00000000000E+00 0. -1.
        -13    1    3    3    0    0 -0.20284875085E+03 -0.74644516284E+02  0.48286789052E+03  0.52903763498E+03  0.00000000000E+00 0.  1.
         22    1    1    2    0    0  0.96588622186E+03  0.37440018226E+03 -0.11718162334E+03  0.10425177327E+04  0.00000000000E+00 0. -1.
<mgrwt>
<rscale>  0 0.30024041E+04</rscale>
<asrwt>0</asrwt>
<pdfrwt beam="1">  1        2 0.10363445E+00 0.30024041E+04</pdfrwt>
<pdfrwt beam="2">  1       -2 0.51469204E+00 0.30024041E+04</pdfrwt>
<totfact> 0.49212586E-02</totfact>
</mgrwt>
</event>
<event>
 6    1  0.1014650E-006  0.1239587E+04  0.7818608E-02  0.9078895E-01
         -1   -1    0    0    0  501 -0.00000000000E+00  0.00000000000E+00  0.26028527386E+03  0.26028527386E+03  0.00000000000E+00 0.  1.
          1   -1    0    0  501    0  0.00000000000E+00 -0.00000000000E+00 -0.14758566499E+04  0.14758566499E+04  0.00000000000E+00 0. -1.
         23    2    1    2    0    0  0.24089895519E+03 -0.38406114927E+03 -0.26489889218E+02  0.46356577464E+03  0.93038917649E+02 0.  0.
         13    1    3    3    0    0  0.98330465010E+02 -0.14308570260E+03 -0.55019441758E+02  0.18212506035E+03  0.00000000000E+00 0. -1.
        -13    1    3    3    0    0  0.14256849018E+03 -0.24097544667E+03  0.28529552540E+02  0.28144071429E+03  0.00000000000E+00 0.  1.
         22    1    1    2    0    0 -0.24089895519E+03  0.38406114927E+03 -0.11890814869E+04  0.12725761491E+04  0.00000000000E+00 0.  1.
<mgrwt>
<rscale>  0 0.12395866E+04</rscale>
<asrwt>0</asrwt>
<pdfrwt beam="1">  1        1 0.22705487E+00 0.12395866E+04</pdfrwt>
<pdfrwt beam="2">  1       -1 0.40043888E-01 0.12395866E+04</pdfrwt>
<totfact> 0.40780452E+01</totfact>
</mgrwt>
</event>
<event>
 6    1  0.1014650E-006  0.1540589E+04  0.7818608E-02  0.8857901E-01
         -1   -1    0    0    0  501 -0.00000000000E+00  0.00000000000E+00  0.28693636169E+03  0.28693636169E+03  0.00000000000E+00 0.  1.
          1   -1    0    0  501    0  0.00000000000E+00 -0.00000000000E+00 -0.20678925867E+04  0.20678925867E+04  0.00000000000E+00 0. -1.
         23    2    1    2    0    0  0.20890344966E+03  0.55326860921E+03 -0.16414354958E+04  0.17472000821E+04  0.93009864586E+02 0.  0.
         13    1    3    3    0    0  0.50571421057E+02  0.60238159100E+02 -0.27146782880E+03  0.28263206916E+03  0.00000000000E+00 0.  1.
        -13    1    3    3    0    0  0.15833202860E+03  0.49303045011E+03 -0.13699676670E+04  0.14645680129E+04  0.00000000000E+00 0. -1.
         22    1    1    2    0    0 -0.20890344966E+03 -0.55326860921E+03 -0.13952072920E+03  0.60762886625E+03  0.00000000000E+00 0.  1.
<mgrwt>
<rscale>  0 0.15405889E+04</rscale>
<asrwt>0</asrwt>
<pdfrwt beam="1">  1        1 0.31813732E+00 0.15405889E+04</pdfrwt>
<pdfrwt beam="2">  1       -1 0.44144056E-01 0.15405889E+04</pdfrwt>
<totfact> 0.13125293E+01</totfact>
</mgrwt>
</event>
<event>
 6    1  0.1014650E-006  0.2394186E+04  0.7818608E-02  0.8441683E-01
         -2   -1    0    0    0  501 -0.00000000000E+00  0.00000000000E+00  0.74935822924E+03  0.74935822924E+03  0.00000000000E+00 0.  1.
          2   -1    0    0  501    0  0.00000000000E+00 -0.00000000000E+00 -0.19123452775E+04  0.19123452775E+04  0.00000000000E+00 0. -1.
         23    2    1    2    0    0 -0.58249681606E+03  0.50171203848E+03 -0.16000805369E+04  0.17773572916E+04  0.87884624093E+02 0.  0.
         11    1    3    3    0    0 -0.80930027104E+02  0.99886036988E+02 -0.32410234122E+03  0.34866777491E+03  0.00000000000E+00 0.  1.
        -11    1    3    3    0    0 -0.50156678896E+03  0.40182600149E+03 -0.12759781957E+04  0.14286895167E+04  0.00000000000E+00 0. -1.
         22    1    1    2    0    0  0.58249681606E+03 -0.50171203848E+03  0.43709348870E+03  0.88434621509E+03  0.00000000000E+00 0.  1.
<mgrwt>
<rscale>  0 0.23941860E+04</rscale>
<asrwt>0</asrwt>
<pdfrwt beam="1">  1        2 0.29420697E+00 0.23941860E+04</pdfrwt>
<pdfrwt beam="2">  1       -2 0.11528588E+00 0.23941860E+04</pdfrwt>
<totfact> 0.39412040E+00</totfact>
</mgrwt>
</event>
<event>
 6    1  0.1014650E-006  0.1123544E+04  0.7818608E-02  0.9182544E-01
         -1   -1    0    0    0  501 -0.00000000000E+00  0.00000000000E+00  0.17966826305E+03  0.17966826305E+03  0.00000000000E+00 0.  1.
          1   -1    0    0  501    0  0.00000000000E+00 -0.00000000000E+00 -0.17565015446E+04  0.17565015446E+04  0.00000000000E+00 0. -1.
         23    2    1    2    0    0  0.86530809241E+02 -0.50153449469E+03 -0.11880726796E+04  0.12957330536E+04  0.91558855087E+02 0.  0.
         11    1    3    3    0    0  0.29143718125E+02 -0.23840635968E+03 -0.45042901268E+03  0.51046375396E+03  0.00000000000E+00 0.  1.
        -11    1    3    3    0    0  0.57387091116E+02 -0.26312813501E+03 -0.73764366687E+03  0.78526929963E+03  0.00000000000E+00 0. -1.
         22    1    1    2    0    0 -0.86530809241E+02  0.50153449469E+03 -0.38876060202E+03  0.64043675409E+03  0.00000000000E+00 0.  1.
<mgrwt>
<rscale>  0 0.11235436E+04</rscale>
<asrwt>0</asrwt>
<pdfrwt beam="1">  1        1 0.27023102E+00 0.11235436E+04</pdfrwt>
<pdfrwt beam="2">  1       -1 0.27641270E-01 0.11235436E+04</pdfrwt>
<totfact> 0.51140146E+01</totfact>
</mgrwt>
</event>
<event>
 6    1  0.1014650E-006  0.2036440E+04  0.7818608E-02  0.8589771E-01
         -1   -1    0    0    0  501 -0.00000000000E+00  0.00000000000E+00  0.46834038427E+03  0.46834038427E+03  0.00000000000E+00 0.  1.
          1   -1    0    0  501    0  0.00000000000E+00 -0.00000000000E+00 -0.22137138982E+04  0.22137138982E+04  0.00000000000E+00 0. -1.
         23    2    1    2    0    0 -0.31331390148E+03  0.18516458900E+03  0.37548577374E+03  0.53019563378E+03  0.87557512069E+02 0.  0.
         11    1    3    3    0    0 -0.29892940495E+03  0.19233756091E+03  0.34307112938E+03  0.49401450008E+03  0.00000000000E+00 0. -1.
        -11    1    3    3    0    0 -0.14384496533E+02 -0.71729719133E+01  0.32414644360E+02  0.36181133696E+02  0.00000000000E+00 0.  1.
         22    1    1    2    0    0  0.31331390148E+03 -0.18516458900E+03 -0.21208592876E+04  0.21518586487E+04  0.00000000000E+00 0. -1.
<mgrwt>
<rscale>  0 0.20364397E+04</rscale>
<asrwt>0</asrwt>
<pdfrwt beam="1">  1        1 0.34057136E+00 0.20364397E+04</pdfrwt>
<pdfrwt beam="2">  1       -1 0.72052368E-01 0.20364397E+04</pdfrwt>
<totfact> 0.38323984E+00</totfact>
</mgrwt>
</event>
<event>
 6    1  0.1014650E-006  0.2394302E+04  0.7818608E-02  0.8441640E-01
          1   -1    0    0  501    0  0.00000000000E+00  0.00000000000E+00  0.23301925945E+04  0.23301925945E+04  0.00000000000E+00 0. -1.
         -1   -1    0    0    0  501 -0.00000000000E+00 -0.00000000000E+00 -0.61504366263E+03  0.61504366263E+03  0.00000000000E+00 0.  1.
         23    2    1    2    0    0 -0.27240607877E+03 -0.44980444835E+03  0.21793824546E+04  0.22437792897E+04  0.91150995511E+02 0.  0.
         13    1    3    3    0    0 -0.21208745315E+03 -0.35430758153E+03  0.18514350763E+04  0.18969256158E+04  0.00000000000E+00 0. -1.
        -13    1    3    3    0    0 -0.60318625618E+02 -0.95496866817E+02  0.32794737828E+03  0.34685367388E+03  0.00000000000E+00 0.  1.
         22    1    1    2    0    0  0.27240607877E+03  0.44980444835E+03 -0.46423352274E+03  0.70145696742E+03  0.00000000000E+00 0.  1.
<mgrwt>
<rscale>  0 0.23943017E+04</rscale>
<asrwt>0</asrwt>
<pdfrwt beam="1">  1        1 0.35849117E+00 0.23943017E+04</pdfrwt>
<pdfrwt beam="2">  1       -1 0.94622103E-01 0.23943017E+04</pdfrwt>
<totfact> 0.17183980E+00</totfact>
</mgrwt>
</event>
<event>
 6    1  0.1014650E-006  0.1408501E+04  0.7818608E-02  0.8947688E-01
         -2   -1    0    0    0  501 -0.00000000000E+00  0.00000000000E+00  0.23935964133E+03  0.23935964133E+03  0.00000000000E+00 0.  1.
          2   -1    0    0  501    0  0.00000000000E+00 -0.00000000000E+00 -0.20720652211E+04  0.20720652211E+04  0.00000000000E+00 0. -1.
         23    2    1    2    0    0  0.35708800941E+03  0.50988336356E+03 -0.39016306059E+03  0.74030366705E+03  0.91265627182E+02 0.  0.
         11    1    3    3    0    0  0.14459486543E+03  0.14290682632E+03 -0.15293961210E+03  0.25440236057E+03  0.00000000000E+00 0.  1.
        -11    1    3    3    0    0  0.21249314398E+03  0.36697653724E+03 -0.23722344849E+03  0.48590130648E+03  0.00000000000E+00 0. -1.
         22    1    1    2    0    0 -0.35708800941E+03 -0.50988336356E+03 -0.14425425192E+04  0.15711211954E+04  0.00000000000E+00 0. -1.
<mgrwt>
<rscale>  0 0.14085010E+04</rscale>
<asrwt>0</asrwt>
<pdfrwt beam="1">  1        2 0.31877927E+00 0.14085010E+04</pdfrwt>
<pdfrwt beam="2">  1       -2 0.36824559E-01 0.14085010E+04</pdfrwt>
<totfact> 0.41196444E+01</totfact>
</mgrwt>
</event>
<event>
 6    1  0.1014650E-006  0.3908955E+04  0.7818608E-02  0.8023169E-01
         -2   -1    0    0    0  501 -0.00000000000E+00  0.00000000000E+00  0.11292986434E+04  0.11292986434E+04  0.00000000000E+00 0.  1.
          2   -1    0    0  501    0  0.00000000000E+00 -0.00000000000E+00 -0.33826151464E+04  0.33826151464E+04  0.00000000000E+00 0. -1.
         23    2    1    2    0    0  0.44956195974E+03  0.13138105997E+04 -0.27130411810E+04  0.30491933698E+04  0.93720376281E+02 0.  0.
         13    1    3    3    0    0  0.31747476073E+03  0.82230563868E+03 -0.17839424635E+04  0.19898310230E+04  0.00000000000E+00 0.  1.
        -13    1    3    3    0    0  0.13208719901E+03  0.49150496106E+03 -0.92909871757E+03  0.10593623468E+04  0.00000000000E+00 0. -1.
         22    1    1    2    0    0 -0.44956195974E+03 -0.13138105997E+04  0.45972467803E+03  0.14627204200E+04  0.00000000000E+00 0. -1.
<mgrwt>
<rscale>  0 0.39089552E+04</rscale>
<asrwt>0</asrwt>
<pdfrwt beam="1">  1        2 0.52040232E+00 0.39089552E+04</pdfrwt>
<pdfrwt beam="2">  1       -2 0.17373826E+00 0.39089552E+04</pdfrwt>
<totfact> 0.15591562E-01</totfact>
</mgrwt>
</event>
<event>
 6    1  0.1014650E-006  0.2060603E+04  0.7818608E-02  0.8578799E-01
         -1   -1    0    0    0  501 -0.00000000000E+00  0.00000000000E+00  0.48956304542E+03  0.48956304542E+03  0.00000000000E+00 0.  1.
          1   -1    0    0  501    0  0.00000000000E+00 -0.00000000000E+00 -0.21683042505E+04  0.21683042505E+04  0.00000000000E+00 0. -1.
         23    2    1    2    0    0 -0.76538848688E+03  0.53854563277E+03 -0.29150477479E+03  0.98446481953E+03  0.91351041230E+02 0.  0.
         13    1    3    3    0    0 -0.48326125330E+03  0.29393359335E+03 -0.20065569497E+03  0.60016756341E+03  0.00000000000E+00 0. -1.
        -13    1    3    3    0    0 -0.28212723358E+03  0.24461203942E+03 -0.90849079812E+02  0.38429725612E+03  0.00000000000E+00 0.  1.
         22    1    1    2    0    0  0.76538848688E+03 -0.53854563277E+03 -0.13872364303E+04  0.16734024764E+04  0.00000000000E+00 0.  1.
<mgrwt>
<rscale>  0 0.20606034E+04</rscale>
<asrwt>0</asrwt>
<pdfrwt beam="1">  1        1 0.33358526E+00 0.20606034E+04</pdfrwt>
<pdfrwt beam="2">  1       -1 0.75317394E-01 0.20606034E+04</pdfrwt>
<totfact> 0.37443830E+00</totfact>
</mgrwt>
</event>
<event>
 6    1  0.1014650E-006  0.2469463E+04  0.7818608E-02  0.8413946E-01
         -2   -1    0    0    0  501 -0.00000000000E+00  0.00000000000E+00  0.14369609209E+04  0.14369609209E+04  0.00000000000E+00 0.  1.
          2   -1    0    0  501    0  0.00000000000E+00 -0.00000000000E+00 -0.10609627180E+04  0.10609627180E+04  0.00000000000E+00 0. -1.
         23    2    1    2    0    0  0.59502022623E+03  0.49315983294E+03  0.11602261421E+04  0.13968926898E+04  0.89043783925E+02 0.  0.
         11    1    3    3    0    0  0.32398759928E+03  0.24427556623E+03  0.53566620066E+03  0.67199463932E+03  0.00000000000E+00 0. -1.
        -11    1    3    3    0    0  0.27103262695E+03  0.24888426671E+03  0.62455994144E+03  0.72489805044E+03  0.00000000000E+00 0.  1.
         22    1    1    2    0    0 -0.59502022623E+03 -0.49315983294E+03 -0.78422793916E+03  0.11010309492E+04  0.00000000000E+00 0. -1.
<mgrwt>
<rscale>  0 0.24694631E+04</rscale>
<asrwt>0</asrwt>
<pdfrwt beam="1">  1        2 0.16322503E+00 0.24694631E+04</pdfrwt>
<pdfrwt beam="2">  1       -2 0.22107091E+00 0.24694631E+04</pdfrwt>
<totfact> 0.20042120E+00</totfact>
</mgrwt>
</event>
<event>
 6    1  0.1014650E-006  0.4808347E+04  0.7818608E-02  0.7858771E-01
          2   -1    0    0  501    0  0.00000000000E+00  0.00000000000E+00  0.18925729750E+04  0.18925729750E+04  0.00000000000E+00 0. -1.
         -2   -1    0    0    0  501 -0.00000000000E+00 -0.00000000000E+00 -0.30540703787E+04  0.30540703787E+04  0.00000000000E+00 0.  1.
         23    2    1    2    0    0  0.19383463773E+04  0.42074613306E+03  0.81532710910E+03  0.21462774595E+04  0.86802370165E+02 0.  0.
         13    1    3    3    0    0  0.95971165240E+03  0.25225752562E+03  0.40068117039E+03  0.10701521926E+04  0.00000000000E+00 0. -1.
        -13    1    3    3    0    0  0.97863472493E+03  0.16848860743E+03  0.41464593872E+03  0.10761252669E+04  0.00000000000E+00 0.  1.
         22    1    1    2    0    0 -0.19383463773E+04 -0.42074613306E+03 -0.19768245128E+04  0.28003658942E+04  0.00000000000E+00 0.  1.
<mgrwt>
<rscale>  0 0.48083474E+04</rscale>
<asrwt>0</asrwt>
<pdfrwt beam="1">  1        2 0.29116508E+00 0.48083474E+04</pdfrwt>
<pdfrwt beam="2">  1       -2 0.46985698E+00 0.48083474E+04</pdfrwt>
<totfact> 0.14610174E-02</totfact>
</mgrwt>
</event>
<event>
 6    1  0.1014650E-006  0.1357988E+04  0.7818608E-02  0.8984803E-01
         -2   -1    0    0    0  501 -0.00000000000E+00  0.00000000000E+00  0.41120381449E+03  0.41120381449E+03  0.00000000000E+00 0.  1.
          2   -1    0    0  501    0  0.00000000000E+00 -0.00000000000E+00 -0.11211789665E+04  0.11211789665E+04  0.00000000000E+00 0. -1.
         23    2    1    2    0    0 -0.24616691905E+03  0.10982032827E+03 -0.10560293690E+04  0.10937346560E+04  0.91645038234E+02 0.  0.
         13    1    3    3    0    0 -0.15950344597E+03  0.11352025078E+03 -0.66616970768E+03  0.69434161337E+03  0.00000000000E+00 0.  1.
        -13    1    3    3    0    0 -0.86663473080E+02 -0.36999225127E+01 -0.38985966130E+03  0.39939304263E+03  0.00000000000E+00 0. -1.
         22    1    1    2    0    0  0.24616691905E+03 -0.10982032827E+03  0.34605421693E+03  0.43864812503E+03  0.00000000000E+00 0.  1.
<mgrwt>
<rscale>  0 0.13579883E+04</rscale>
<asrwt>0</asrwt>
<pdfrwt beam="1">  1        2 0.17248907E+00 0.13579883E+04</pdfrwt>
<pdfrwt beam="2">  1       -2 0.63262126E-01 0.13579883E+04</pdfrwt>
<totfact> 0.47760930E+01</totfact>
</mgrwt>
</event>
<event>
 6    1  0.1014650E-006  0.2339342E+04  0.7818608E-02  0.8462569E-01
         -2   -1    0    0    0  501 -0.00000000000E+00  0.00000000000E+00  0.52764782121E+03  0.52764782121E+03  0.00000000000E+00 0.  1.
          2   -1    0    0  501    0  0.00000000000E+00 -0.00000000000E+00 -0.25928862281E+04  0.25928862281E+04  0.00000000000E+00 0. -1.
         23    2    1    2    0    0  0.13961249826E+03  0.84548069443E+03  0.24167860691E+02  0.86222764730E+03  0.92321048252E+02 0.  0.
         13    1    3    3    0    0  0.10583931311E+03  0.65910629017E+03 -0.19557236764E+02  0.66783646760E+03  0.00000000000E+00 0.  1.
        -13    1    3    3    0    0  0.33773185150E+02  0.18637440426E+03  0.43725097455E+02  0.19439117970E+03  0.00000000000E+00 0. -1.
         22    1    1    2    0    0 -0.13961249826E+03 -0.84548069443E+03 -0.20894062676E+04  0.22583064020E+04  0.00000000000E+00 0. -1.
<mgrwt>
<rscale>  0 0.23393424E+04</rscale>
<asrwt>0</asrwt>
<pdfrwt beam="1">  1        2 0.39890557E+00 0.23393424E+04</pdfrwt>
<pdfrwt beam="2">  1       -2 0.81176588E-01 0.23393424E+04</pdfrwt>
<totfact> 0.37140702E+00</totfact>
</mgrwt>
</event>
<event>
 6    1  0.1014650E-006  0.2741298E+04  0.7818608E-02  0.8321728E-01
         -2   -1    0    0    0  501 -0.00000000000E+00  0.00000000000E+00  0.70005097270E+03  0.70005097270E+03  0.00000000000E+00 0.  1.
          2   -1    0    0  501    0  0.00000000000E+00 -0.00000000000E+00 -0.26836314329E+04  0.26836314329E+04  0.00000000000E+00 0. -1.
         23    2    1    2    0    0 -0.22747532629E+03 -0.13223908010E+04 -0.65669929572E+03  0.14966010403E+04  0.89990299851E+02 0.  0.
         11    1    3    3    0    0 -0.17308181876E+03 -0.94348565884E+03 -0.42513346015E+03  0.10492192161E+04  0.00000000000E+00 0. -1.
        -11    1    3    3    0    0 -0.54393507534E+02 -0.37890514219E+03 -0.23156583557E+03  0.44738182422E+03  0.00000000000E+00 0.  1.
         22    1    1    2    0    0  0.22747532629E+03  0.13223908010E+04 -0.13268811645E+04  0.18870813654E+04  0.00000000000E+00 0.  1.
<mgrwt>
<rscale>  0 0.27412981E+04</rscale>
<asrwt>0</asrwt>
<pdfrwt beam="1">  1        2 0.41286638E+00 0.27412981E+04</pdfrwt>
<pdfrwt beam="2">  1       -2 0.10770015E+00 0.27412981E+04</pdfrwt>
<totfact> 0.16414013E+00</totfact>
</mgrwt>
</event>
<event>
 6    1  0.1014650E-006  0.1178420E+04  0.7818608E-02  0.9131958E-01
         -1   -1    0    0    0  501 -0.00000000000E+00  0.00000000000E+00  0.18066428554E+04  0.18066428554E+04  0.00000000000E+00 0.  1.
          1   -1    0    0  501    0  0.00000000000E+00 -0.00000000000E+00 -0.19216233372E+03  0.19216233372E+03  0.00000000000E+00 0. -1.
         23    2    1    2    0    0 -0.49280018321E+03  0.22431517146E+03  0.11907151415E+04  0.13112396183E+04  0.91528529347E+02 0.  0.
         11    1    3    3    0    0 -0.39227406816E+03  0.20939278730E+03  0.91331305939E+03  0.10158075745E+04  0.00000000000E+00 0.  1.
        -11    1    3    3    0    0 -0.10052611505E+03  0.14922384169E+02  0.27740208211E+03  0.29543204382E+03  0.00000000000E+00 0. -1.
         22    1    1    2    0    0  0.49280018321E+03 -0.22431517146E+03  0.42376538014E+03  0.68756557078E+03  0.00000000000E+00 0.  1.
<mgrwt>
<rscale>  0 0.11784205E+04</rscale>
<asrwt>0</asrwt>
<pdfrwt beam="1">  1        1 0.29563437E-01 0.11784205E+04</pdfrwt>
<pdfrwt beam="2">  1       -1 0.27794504E+00 0.11784205E+04</pdfrwt>
<totfact> 0.71662145E+00</totfact>
</mgrwt>
</event>
<event>
 6    1  0.1014650E-006  0.4370245E+04  0.7818608E-02  0.7933755E-01
         -2   -1    0    0    0  501 -0.00000000000E+00  0.00000000000E+00  0.11931375178E+04  0.11931375178E+04  0.00000000000E+00 0.  1.
          2   -1    0    0  501    0  0.00000000000E+00 -0.00000000000E+00 -0.40018531419E+04  0.40018531419E+04  0.00000000000E+00 0. -1.
         23    2    1    2    0    0 -0.57929945991E+03  0.11027197900E+04 -0.35377254764E+04  0.37517186257E+04  0.91171821301E+02 0.  0.
         11    1    3    3    0    0 -0.28407933375E+03  0.59006033456E+03 -0.19764769675E+04  0.20821463611E+04  0.00000000000E+00 0. -1.
        -11    1    3    3    0    0 -0.29522012616E+03  0.51265945539E+03 -0.15612485089E+04  0.16695722646E+04  0.00000000000E+00 0.  1.
         22    1    1    2    0    0  0.57929945991E+03 -0.11027197900E+04  0.72900985221E+03  0.14432720340E+04  0.00000000000E+00 0.  1.
<mgrwt>
<rscale>  0 0.43702454E+04</rscale>
<asrwt>0</asrwt>
<pdfrwt beam="1">  1        2 0.61566972E+00 0.43702454E+04</pdfrwt>
<pdfrwt beam="2">  1       -2 0.18355962E+00 0.43702454E+04</pdfrwt>
<totfact> 0.44558134E-02</totfact>
</mgrwt>
</event>
<event>
 6    1  0.1014650E-006  0.3159427E+04  0.7818608E-02  0.8199615E-01
          1   -1    0    0  501    0  0.00000000000E+00  0.00000000000E+00  0.36407691176E+04  0.36407691176E+04  0.00000000000E+00 0. -1.
         -1   -1    0    0    0  501 -0.00000000000E+00 -0.00000000000E+00 -0.68543079111E+03  0.68543079111E+03  0.00000000000E+00 0.  1.
         23    2    1    2    0    0 -0.14834722490E+04  0.68976344404E+02  0.22109647098E+04  0.26650136666E+04  0.92115391074E+02 0.  0.
         11    1    3    3    0    0 -0.14263381656E+04  0.79144637764E+02  0.21450036370E+04  0.25771583264E+04  0.00000000000E+00 0. -1.
        -11    1    3    3    0    0 -0.57134083438E+02 -0.10168293360E+02  0.65961072795E+02  0.87855340216E+02  0.00000000000E+00 0.  1.
         22    1    1    2    0    0  0.14834722490E+04 -0.68976344404E+02  0.74437361665E+03  0.16611862421E+04  0.00000000000E+00 0. -1.
<mgrwt>
<rscale>  0 0.31594273E+04</rscale>
<asrwt>0</asrwt>
<pdfrwt beam="1">  1        1 0.56011832E+00 0.31594273E+04</pdfrwt>
<pdfrwt beam="2">  1       -1 0.10545089E+00 0.31594273E+04</pdfrwt>
<totfact> 0.13628324E-01</totfact>
</mgrwt>
</event>
<event>
 6    1  0.1014650E-006  0.6110936E+04  0.7818608E-02  0.7676797E-01
          2   -1    0    0  501    0  0.00000000000E+00  0.00000000000E+00  0.26544102034E+04  0.26544102034E+04  0.00000000000E+00 0. -1.
         -2   -1    0    0    0  501 -0.00000000000E+00 -0.00000000000E+00 -0.35171224530E+04  0.35171224530E+04  0.00000000000E+00 0.  1.
         23    2    1    2    0    0 -0.19805347830E+04 -0.94576638924E+03  0.17142997993E+04  0.27865683746E+04  0.95642117815E+02 0.  0.
         13    1    3    3    0    0 -0.12531770848E+04 -0.59808422306E+03  0.10256836409E+04  0.17263210811E+04  0.00000000000E+00 0. -1.
        -13    1    3    3    0    0 -0.72735769816E+03 -0.34768216618E+03  0.68861615832E+03  0.10602472934E+04  0.00000000000E+00 0.  1.
         22    1    1    2    0    0  0.19805347830E+04  0.94576638924E+03 -0.25770120489E+04  0.33849642819E+04  0.00000000000E+00 0.  1.
<mgrwt>
<rscale>  0 0.61109363E+04</rscale>
<asrwt>0</asrwt>
<pdfrwt beam="1">  1        2 0.40837080E+00 0.61109363E+04</pdfrwt>
<pdfrwt beam="2">  1       -2 0.54109576E+00 0.61109363E+04</pdfrwt>
<totfact> 0.18261319E-03</totfact>
</mgrwt>
</event>
<event>
 6    1  0.1014650E-006  0.2328894E+04  0.7818608E-02  0.8466615E-01
         -2   -1    0    0    0  501 -0.00000000000E+00  0.00000000000E+00  0.18036022979E+04  0.18036022979E+04  0.00000000000E+00 0.  1.
          2   -1    0    0  501    0  0.00000000000E+00 -0.00000000000E+00 -0.75179372663E+03  0.75179372663E+03  0.00000000000E+00 0. -1.
         23    2    1    2    0    0  0.55442532573E+03 -0.72286422706E+02  0.16452758993E+04  0.17400333824E+04  0.90391472596E+02 0.  0.
         11    1    3    3    0    0  0.45821338475E+03 -0.24824285814E+02  0.13145534389E+04  0.13923456808E+04  0.00000000000E+00 0.  1.
        -11    1    3    3    0    0  0.96211940975E+02 -0.47462136892E+02  0.33072246037E+03  0.34768770156E+03  0.00000000000E+00 0. -1.
         22    1    1    2    0    0 -0.55442532573E+03  0.72286422706E+02 -0.59346732804E+03  0.81536264212E+03  0.00000000000E+00 0. -1.
<mgrwt>
<rscale>  0 0.23288941E+04</rscale>
<asrwt>0</asrwt>
<pdfrwt beam="1">  1        2 0.11566057E+00 0.23288941E+04</pdfrwt>
<pdfrwt beam="2">  1       -2 0.27747728E+00 0.23288941E+04</pdfrwt>
<totfact> 0.14754141E+00</totfact>
</mgrwt>
</event>
<event>
 6    1  0.1014650E-006  0.1702220E+04  0.7818608E-02  0.8760099E-01
          2   -1    0    0  501    0  0.00000000000E+00  0.00000000000E+00  0.11092790128E+04  0.11092790128E+04  0.00000000000E+00 0. -1.
         -2   -1    0    0    0  501 -0.00000000000E+00 -0.00000000000E+00 -0.65302615300E+03  0.65302615300E+03  0.00000000000E+00 0.  1.
         23    2    1    2    0    0 -0.42530565488E+03  0.32157951611E+03  0.91239142962E+03  0.10606209917E+04  0.90335386369E+02 0.  0.
         11    1    3    3    0    0 -0.18133974532E+03  0.19354530491E+03  0.44038737067E+03  0.51408649519E+03  0.00000000000E+00 0. -1.
        -11    1    3    3    0    0 -0.24396590956E+03  0.12803421120E+03  0.47200405895E+03  0.54653449656E+03  0.00000000000E+00 0.  1.
         22    1    1    2    0    0  0.42530565488E+03 -0.32157951611E+03 -0.45613856981E+03  0.70168417406E+03  0.00000000000E+00 0.  1.
<mgrwt>
<rscale>  0 0.17022200E+04</rscale>
<asrwt>0</asrwt>
<pdfrwt beam="1">  1        2 0.17065831E+00 0.17022200E+04</pdfrwt>
<pdfrwt beam="2">  1       -2 0.10046556E+00 0.17022200E+04</pdfrwt>
<totfact> 0.16714044E+01</totfact>
</mgrwt>
</event>
<event>
 6    1  0.1014650E-006  0.2068642E+04  0.7818608E-02  0.8575184E-01
         -2   -1    0    0    0  501 -0.00000000000E+00  0.00000000000E+00  0.10246443101E+04  0.10246443101E+04  0.00000000000E+00 0.  1.
          2   -1    0    0  501    0  0.00000000000E+00 -0.00000000000E+00 -0.10440890676E+04  0.10440890676E+04  0.00000000000E+00 0. -1.
         23    2    1    2    0    0 -0.10108831971E+04 -0.20181550558E+03 -0.65678631718E+02  0.10368652138E+04  0.90340756983E+02 0.  0.
         13    1    3    3    0    0 -0.15178322941E+03 -0.46235507876E+02 -0.38962066522E+02  0.16338272108E+03  0.00000000000E+00 0. -1.
        -13    1    3    3    0    0 -0.85909996773E+03 -0.15557999770E+03 -0.26716565196E+02  0.87348249272E+03  0.00000000000E+00 0.  1.
         22    1    1    2    0    0  0.10108831971E+04  0.20181550558E+03  0.46233874220E+02  0.10318681639E+04  0.00000000000E+00 0.  1.
<mgrwt>
<rscale>  0 0.20686420E+04</rscale>
<asrwt>0</asrwt>
<pdfrwt beam="1">  1        2 0.16062909E+00 0.20686420E+04</pdfrwt>
<pdfrwt beam="2">  1       -2 0.15763759E+00 0.20686420E+04</pdfrwt>
<totfact> 0.57208966E+00</totfact>
</mgrwt>
</event>
<event>
 6    1  0.1014650E-006  0.2198596E+04  0.7818608E-02  0.8519013E-01
          2   -1    0    0  501    0  0.00000000000E+00  0.00000000000E+00  0.12248072931E+04  0.12248072931E+04  0.00000000000E+00 0. -1.
         -2   -1    0    0    0  501 -0.00000000000E+00 -0.00000000000E+00 -0.98665013407E+03  0.98665013407E+03  0.00000000000E+00 0.  1.
         23    2    1    2    0    0  0.25784949156E+03 -0.61463971809E+03 -0.75771796287E+03  0.10131103982E+04  0.89374629548E+02 0.  0.
         13    1    3    3    0    0  0.22345287260E+03 -0.43476166395E+03 -0.56898903416E+03  0.75013159626E+03  0.00000000000E+00 0.  1.
        -13    1    3    3    0    0  0.34396618965E+02 -0.17987805414E+03 -0.18872892871E+03  0.26297880198E+03  0.00000000000E+00 0. -1.
         22    1    1    2    0    0 -0.25784949156E+03  0.61463971809E+03  0.99587512194E+03  0.11983470290E+04  0.00000000000E+00 0. -1.
<mgrwt>
<rscale>  0 0.21985962E+04</rscale>
<asrwt>0</asrwt>
<pdfrwt beam="1">  1        2 0.18843189E+00 0.21985962E+04</pdfrwt>
<pdfrwt beam="2">  1       -2 0.15179233E+00 0.21985962E+04</pdfrwt>
<totfact> 0.48585908E+00</totfact>
</mgrwt>
</event>
<event>
 6    1  0.1014650E-006  0.2701084E+04  0.7818608E-02  0.8334653E-01
         -2   -1    0    0    0  501 -0.00000000000E+00  0.00000000000E+00  0.11087141395E+04  0.11087141395E+04  0.00000000000E+00 0.  1.
          2   -1    0    0  501    0  0.00000000000E+00 -0.00000000000E+00 -0.16451157891E+04  0.16451157891E+04  0.00000000000E+00 0. -1.
         23    2    1    2    0    0  0.11496696050E+04 -0.13447418520E+03 -0.97484615504E+03  0.15160669902E+04  0.91162413387E+02 0.  0.
         13    1    3    3    0    0  0.61780562342E+03 -0.26679461534E+02 -0.52488183465E+03  0.81110820631E+03  0.00000000000E+00 0. -1.
        -13    1    3    3    0    0  0.53186398162E+03 -0.10779472367E+03 -0.44996432039E+03  0.70495878391E+03  0.00000000000E+00 0.  1.
         22    1    1    2    0    0 -0.11496696050E+04  0.13447418520E+03  0.43844450552E+03  0.12377629384E+04  0.00000000000E+00 0.  1.
<mgrwt>
<rscale>  0 0.27010836E+04</rscale>
<asrwt>0</asrwt>
<pdfrwt beam="1">  1        2 0.25309474E+00 0.27010836E+04</pdfrwt>
<pdfrwt beam="2">  1       -2 0.17057141E+00 0.27010836E+04</pdfrwt>
<totfact> 0.19493638E+00</totfact>
</mgrwt>
</event>
<event>
 6    1  0.1014650E-006  0.3338290E+04  0.7818608E-02  0.8153220E-01
          2   -1    0    0  501    0  0.00000000000E+00  0.00000000000E+00  0.32210642368E+04  0.32210642368E+04  0.00000000000E+00 0. -1.
         -2   -1    0    0    0  501 -0.00000000000E+00 -0.00000000000E+00 -0.86494552041E+03  0.86494552041E+03  0.00000000000E+00 0.  1.
         23    2    1    2    0    0 -0.30437040173E+03 -0.66147215920E+03 -0.65810756675E+03  0.98508298529E+03  0.84238706319E+02 0.  0.
         13    1    3    3    0    0 -0.23402722070E+03 -0.53874669040E+03 -0.56968428783E+03  0.81826458083E+03  0.00000000000E+00 0. -1.
        -13    1    3    3    0    0 -0.70343181034E+02 -0.12272546880E+03 -0.88423278924E+02  0.16681840446E+03  0.00000000000E+00 0.  1.
         22    1    1    2    0    0  0.30437040173E+03  0.66147215920E+03  0.30142262831E+04  0.31009267719E+04  0.00000000000E+00 0. -1.
<mgrwt>
<rscale>  0 0.33382900E+04</rscale>
<asrwt>0</asrwt>
<pdfrwt beam="1">  1        2 0.49554834E+00 0.33382900E+04</pdfrwt>
<pdfrwt beam="2">  1       -2 0.13306854E+00 0.33382900E+04</pdfrwt>
<totfact> 0.42766279E-01</totfact>
</mgrwt>
</event>
<event>
 6    1  0.1014650E-006  0.3097679E+04  0.7818608E-02  0.8216375E-01
         -1   -1    0    0    0  501 -0.00000000000E+00  0.00000000000E+00  0.12228716962E+04  0.12228716962E+04  0.00000000000E+00 0.  1.
          1   -1    0    0  501    0  0.00000000000E+00 -0.00000000000E+00 -0.19616965875E+04  0.19616965875E+04  0.00000000000E+00 0. -1.
         23    2    1    2    0    0  0.12342872522E+04 -0.60610559988E+03 -0.10996057169E+04  0.17629523640E+04  0.89662064230E+02 0.  0.
         13    1    3    3    0    0  0.54221095832E+03 -0.29779956813E+03 -0.53849057815E+03  0.82015206447E+03  0.00000000000E+00 0. -1.
        -13    1    3    3    0    0  0.69207629384E+03 -0.30830603175E+03 -0.56111513879E+03  0.94280029948E+03  0.00000000000E+00 0.  1.
         22    1    1    2    0    0 -0.12342872522E+04  0.60610559988E+03  0.36078082569E+03  0.14216159197E+04  0.00000000000E+00 0.  1.
<mgrwt>
<rscale>  0 0.30976786E+04</rscale>
<asrwt>0</asrwt>
<pdfrwt beam="1">  1        1 0.30179947E+00 0.30976786E+04</pdfrwt>
<pdfrwt beam="2">  1       -1 0.18813411E+00 0.30976786E+04</pdfrwt>
<totfact> 0.48633370E-01</totfact>
</mgrwt>
</event>
<event>
 6    1  0.1014650E-006  0.3706836E+04  0.7818608E-02  0.8066449E-01
         -2   -1    0    0    0  501 -0.00000000000E+00  0.00000000000E+00  0.11881281155E+04  0.11881281155E+04  0.00000000000E+00 0.  1.
          2   -1    0    0  501    0  0.00000000000E+00 -0.00000000000E+00 -0.28912358116E+04  0.28912358116E+04  0.00000000000E+00 0. -1.
         23    2    1    2    0    0 -0.98425962709E+03  0.15685459043E+04 -0.90193121537E+03  0.20616952178E+04  0.89465001454E+02 0.  0.
         11    1    3    3    0    0 -0.18074299273E+03  0.34216874205E+03 -0.16384915816E+03  0.42023091758E+03  0.00000000000E+00 0. -1.
        -11    1    3    3    0    0 -0.80351663436E+03  0.12263771622E+04 -0.73808205720E+03  0.16414643002E+04  0.00000000000E+00 0.  1.
         22    1    1    2    0    0  0.98425962709E+03 -0.15685459043E+04 -0.80117648068E+03  0.20176687093E+04  0.00000000000E+00 0. -1.
<mgrwt>
<rscale>  0 0.37068361E+04</rscale>
<asrwt>0</asrwt>
<pdfrwt beam="1">  1        2 0.44480551E+00 0.37068361E+04</pdfrwt>
<pdfrwt beam="2">  1       -2 0.18278894E+00 0.37068361E+04</pdfrwt>
<totfact> 0.28498192E-01</totfact>
</mgrwt>
</event>
<event>
 6    1  0.1014650E-006  0.1068552E+04  0.7818608E-02  0.9236397E-01
         -1   -1    0    0    0  501 -0.00000000000E+00  0.00000000000E+00  0.14572299045E+04  0.14572299045E+04  0.00000000000E+00 0.  1.
          1   -1    0    0  501    0  0.00000000000E+00 -0.00000000000E+00 -0.19588604477E+03  0.19588604477E+03  0.00000000000E+00 0. -1.
         23    2    1    2    0    0  0.43578851854E+03 -0.23333048754E+03  0.93465492047E+03  0.10605955594E+04  0.83236837077E+02 0.  0.
         13    1    3    3    0    0  0.32645527920E+03 -0.16672951809E+03  0.61078753087E+03  0.71234344904E+03  0.00000000000E+00 0.  1.
        -13    1    3    3    0    0  0.10933323933E+03 -0.66600969457E+02  0.32386738960E+03  0.34825211040E+03  0.00000000000E+00 0. -1.
         22    1    1    2    0    0 -0.43578851854E+03  0.23333048754E+03  0.32668893921E+03  0.59252038979E+03  0.00000000000E+00 0. -1.
<mgrwt>
<rscale>  0 0.10685523E+04</rscale>
<asrwt>0</asrwt>
<pdfrwt beam="1">  1        1 0.30136316E-01 0.10685523E+04</pdfrwt>
<pdfrwt beam="2">  1       -1 0.22418921E+00 0.10685523E+04</pdfrwt>
<totfact> 0.15787949E+01</totfact>
</mgrwt>
</event>
<event>
 6    1  0.1014650E-006  0.2516578E+04  0.7818608E-02  0.8397103E-01
          1   -1    0    0  501    0  0.00000000000E+00  0.00000000000E+00  0.26703789187E+04  0.26703789187E+04  0.00000000000E+00 0. -1.
         -1   -1    0    0    0  501 -0.00000000000E+00 -0.00000000000E+00 -0.59290868697E+03  0.59290868697E+03  0.00000000000E+00 0.  1.
         23    2    1    2    0    0  0.43960816191E+03  0.85462623228E+03  0.20899681936E+04  0.23021437392E+04  0.90870307264E+02 0.  0.
         13    1    3    3    0    0  0.22018017227E+03  0.37380200338E+03  0.10329360107E+04  0.11203410410E+04  0.00000000000E+00 0.  1.
        -13    1    3    3    0    0  0.21942798964E+03  0.48082422890E+03  0.10570321830E+04  0.11818026982E+04  0.00000000000E+00 0. -1.
         22    1    1    2    0    0 -0.43960816191E+03 -0.85462623228E+03 -0.12497961926E+02  0.96114386643E+03  0.00000000000E+00 0.  1.
<mgrwt>
<rscale>  0 0.25165777E+04</rscale>
<asrwt>0</asrwt>
<pdfrwt beam="1">  1        1 0.41082752E+00 0.25165777E+04</pdfrwt>
<pdfrwt beam="2">  1       -1 0.91216723E-01 0.25165777E+04</pdfrwt>
<totfact> 0.10708246E+00</totfact>
</mgrwt>
</event>
<event>
 6    1  0.1014650E-006  0.2986714E+04  0.7818608E-02  0.8247535E-01
         -2   -1    0    0    0  501 -0.00000000000E+00  0.00000000000E+00  0.10851925260E+04  0.10851925260E+04  0.00000000000E+00 0.  1.
          2   -1    0    0  501    0  0.00000000000E+00 -0.00000000000E+00 -0.20550409270E+04  0.20550409270E+04  0.00000000000E+00 0. -1.
         23    2    1    2    0    0 -0.11960083661E+04  0.75745742147E+02 -0.14197787319E+04  0.18601511385E+04  0.90648668642E+02 0.  0.
         13    1    3    3    0    0 -0.48002949486E+03  0.65967730860E+02 -0.53181711523E+03  0.71945083328E+03  0.00000000000E+00 0.  1.
        -13    1    3    3    0    0 -0.71597887123E+03  0.97780112872E+01 -0.88796161671E+03  0.11407003052E+04  0.00000000000E+00 0. -1.
         22    1    1    2    0    0  0.11960083661E+04 -0.75745742147E+02  0.44993033092E+03  0.12800823145E+04  0.00000000000E+00 0.  1.
<mgrwt>
<rscale>  0 0.29867139E+04</rscale>
<asrwt>0</asrwt>
<pdfrwt beam="1">  1        2 0.31616014E+00 0.29867139E+04</pdfrwt>
<pdfrwt beam="2">  1       -2 0.16695270E+00 0.29867139E+04</pdfrwt>
<totfact> 0.11957410E+00</totfact>
</mgrwt>
</event>
<event>
 6    1  0.1014650E-006  0.4578679E+04  0.7818608E-02  0.7897005E-01
          2   -1    0    0  501    0  0.00000000000E+00  0.00000000000E+00  0.32238818409E+04  0.32238818409E+04  0.00000000000E+00 0. -1.
         -2   -1    0    0    0  501 -0.00000000000E+00 -0.00000000000E+00 -0.16257036446E+04  0.16257036446E+04  0.00000000000E+00 0.  1.
         23    2    1    2    0    0 -0.11432281025E+04 -0.91889446460E+03 -0.10610990294E+04  0.18126309427E+04  0.91445355092E+02 0.  0.
         11    1    3    3    0    0 -0.81823916290E+03 -0.68308261016E+03 -0.72607054218E+03  0.12896881841E+04  0.00000000000E+00 0. -1.
        -11    1    3    3    0    0 -0.32498893959E+03 -0.23581185444E+03 -0.33502848723E+03  0.52294275863E+03  0.00000000000E+00 0.  1.
         22    1    1    2    0    0  0.11432281025E+04  0.91889446460E+03  0.26592772257E+04  0.30369545427E+04  0.00000000000E+00 0. -1.
<mgrwt>
<rscale>  0 0.45786795E+04</rscale>
<asrwt>0</asrwt>
<pdfrwt beam="1">  1        2 0.49598182E+00 0.45786795E+04</pdfrwt>
<pdfrwt beam="2">  1       -2 0.25010825E+00 0.45786795E+04</pdfrwt>
<totfact> 0.60367228E-02</totfact>
</mgrwt>
</event>
<event>
 6    1  0.1014650E-006  0.2790783E+04  0.7818608E-02  0.8306136E-01
         -2   -1    0    0    0  501 -0.00000000000E+00  0.00000000000E+00  0.76294020591E+03  0.76294020591E+03  0.00000000000E+00 0.  1.
          2   -1    0    0  501    0  0.00000000000E+00 -0.00000000000E+00 -0.25521236359E+04  0.25521236359E+04  0.00000000000E+00 0. -1.
         23    2    1    2    0    0  0.11871300627E+04 -0.68094759644E+03 -0.58104919020E+03  0.14895349441E+04  0.90159710350E+02 0.  0.
         11    1    3    3    0    0  0.50844758109E+03 -0.31513280562E+03 -0.21074560295E+03  0.63422498930E+03  0.00000000000E+00 0. -1.
        -11    1    3    3    0    0  0.67868248163E+03 -0.36581479082E+03 -0.37030358725E+03  0.85530995481E+03  0.00000000000E+00 0.  1.
         22    1    1    2    0    0 -0.11871300627E+04  0.68094759644E+03 -0.12081342398E+04  0.18255288977E+04  0.00000000000E+00 0. -1.
<mgrwt>
<rscale>  0 0.27907832E+04</rscale>
<asrwt>0</asrwt>
<pdfrwt beam="1">  1        2 0.39263441E+00 0.27907832E+04</pdfrwt>
<pdfrwt beam="2">  1       -2 0.11737542E+00 0.27907832E+04</pdfrwt>
<totfact> 0.15850545E+00</totfact>
</mgrwt>
</event>
<event>
 6    1  0.1014650E-006  0.2938640E+04  0.7818608E-02  0.8261473E-01
         -2   -1    0    0    0  501 -0.00000000000E+00  0.00000000000E+00  0.11619051422E+04  0.11619051422E+04  0.00000000000E+00 0.  1.
          2   -1    0    0  501    0  0.00000000000E+00 -0.00000000000E+00 -0.18580704514E+04  0.18580704514E+04  0.00000000000E+00 0. -1.
         23    2    1    2    0    0  0.28080998398E+03 -0.84710320230E+03 -0.15461577397E+04  0.17875287532E+04  0.90648801796E+02 0.  0.
         11    1    3    3    0    0  0.26367754141E+03 -0.68483796073E+03 -0.12686581195E+04  0.14656132855E+04  0.00000000000E+00 0.  1.
        -11    1    3    3    0    0  0.17132442565E+02 -0.16226524157E+03 -0.27749962013E+03  0.32191546776E+03  0.00000000000E+00 0. -1.
         22    1    1    2    0    0 -0.28080998398E+03  0.84710320230E+03  0.84999243044E+03  0.12324468403E+04  0.00000000000E+00 0.  1.
<mgrwt>
<rscale>  0 0.29386402E+04</rscale>
<asrwt>0</asrwt>
<pdfrwt beam="1">  1        2 0.28585699E+00 0.29386402E+04</pdfrwt>
<pdfrwt beam="2">  1       -2 0.17875464E+00 0.29386402E+04</pdfrwt>
<totfact> 0.12750559E+00</totfact>
</mgrwt>
</event>
<event>
 6    1  0.1014650E-006  0.2938768E+04  0.7818608E-02  0.8261436E-01
          1   -1    0    0  501    0  0.00000000000E+00  0.00000000000E+00  0.13651772550E+04  0.13651772550E+04  0.00000000000E+00 0. -1.
         -1   -1    0    0    0  501 -0.00000000000E+00 -0.00000000000E+00 -0.15815445870E+04  0.15815445870E+04  0.00000000000E+00 0.  1.
         23    2    1    2    0    0  0.10358134897E+03 -0.72605943226E+03  0.11667190798E+04  0.13812125263E+04  0.92861384056E+02 0.  0.
         11    1    3    3    0    0 -0.10711399877E+02 -0.10641958339E+03  0.20954745736E+03  0.23526580436E+03  0.00000000000E+00 0.  1.
        -11    1    3    3    0    0  0.11429274885E+03 -0.61963984887E+03  0.95717162246E+03  0.11459467220E+04  0.00000000000E+00 0. -1.
         22    1    1    2    0    0 -0.10358134897E+03  0.72605943226E+03 -0.13830864118E+04  0.15655093157E+04  0.00000000000E+00 0.  1.
<mgrwt>
<rscale>  0 0.29387676E+04</rscale>
<asrwt>0</asrwt>
<pdfrwt beam="1">  1        1 0.21002727E+00 0.29387676E+04</pdfrwt>
<pdfrwt beam="2">  1       -1 0.24331455E+00 0.29387676E+04</pdfrwt>
<totfact> 0.53631791E-01</totfact>
</mgrwt>
</event>
<event>
 6    1  0.1014650E-006  0.1869810E+04  0.7818608E-02  0.8670032E-01
          2   -1    0    0  501    0  0.00000000000E+00  0.00000000000E+00  0.62510173737E+03  0.62510173737E+03  0.00000000000E+00 0. -1.
         -2   -1    0    0    0  501 -0.00000000000E+00 -0.00000000000E+00 -0.13982477530E+04  0.13982477530E+04  0.00000000000E+00 0.  1.
         23    2    1    2    0    0 -0.36572497163E+03  0.82346056441E+03 -0.64818551230E+03  0.11137027548E+04  0.91363623894E+02 0.  0.
         11    1    3    3    0    0 -0.24926099506E+03  0.54968711942E+03 -0.38050568338E+03  0.71349250031E+03  0.00000000000E+00 0. -1.
        -11    1    3    3    0    0 -0.11646397657E+03  0.27377344499E+03 -0.26767982892E+03  0.40021025453E+03  0.00000000000E+00 0.  1.
         22    1    1    2    0    0  0.36572497163E+03 -0.82346056441E+03 -0.12496050329E+03  0.90964673549E+03  0.00000000000E+00 0. -1.
<mgrwt>
<rscale>  0 0.18698097E+04</rscale>
<asrwt>0</asrwt>
<pdfrwt beam="1">  1        2 0.96169498E-01 0.18698097E+04</pdfrwt>
<pdfrwt beam="2">  1       -2 0.21511504E+00 0.18698097E+04</pdfrwt>
<totfact> 0.46994757E+00</totfact>
</mgrwt>
</event>
<event>
 6    1  0.1014650E-006  0.1839973E+04  0.7818608E-02  0.8685326E-01
         -2   -1    0    0    0  501 -0.00000000000E+00  0.00000000000E+00  0.37718718260E+03  0.37718718260E+03  0.00000000000E+00 0.  1.
          2   -1    0    0  501    0  0.00000000000E+00 -0.00000000000E+00 -0.22439129438E+04  0.22439129438E+04  0.00000000000E+00 0. -1.
         23    2    1    2    0    0 -0.20044821079E+03  0.89637181358E+03 -0.93029581764E+03  0.13093978155E+04  0.73555539522E+02 0.  0.
         13    1    3    3    0    0 -0.11888719981E+03  0.67403782473E+03 -0.67952857660E+03  0.96447925943E+03  0.00000000000E+00 0.  1.
        -13    1    3    3    0    0 -0.81561010986E+02  0.22233398885E+03 -0.25076724104E+03  0.34491855602E+03  0.00000000000E+00 0. -1.
         22    1    1    2    0    0  0.20044821079E+03 -0.89637181358E+03 -0.93642994358E+03  0.13117023110E+04  0.00000000000E+00 0.  1.
<mgrwt>
<rscale>  0 0.18399730E+04</rscale>
<asrwt>0</asrwt>
<pdfrwt beam="1">  1        2 0.34521738E+00 0.18399730E+04</pdfrwt>
<pdfrwt beam="2">  1       -2 0.58028797E-01 0.18399730E+04</pdfrwt>
<totfact> 0.12760102E+01</totfact>
</mgrwt>
</event>
<event>
 6    1  0.1014650E-006  0.2602785E+04  0.7818608E-02  0.8367256E-01
          2   -1    0    0  501    0  0.00000000000E+00  0.00000000000E+00  0.21584121157E+04  0.21584121157E+04  0.00000000000E+00 0. -1.
         -2   -1    0    0    0  501 -0.00000000000E+00 -0.00000000000E+00 -0.78466107635E+03  0.78466107635E+03  0.00000000000E+00 0.  1.
         23    2    1    2    0    0  0.89828881453E+02  0.11844444492E+04  0.91360553016E+02  0.11950734093E+04  0.94211579991E+02 0.  0.
         13    1    3    3    0    0 -0.38318409893E+01  0.15305100236E+03 -0.15773660079E+02  0.15390939114E+03  0.00000000000E+00 0. -1.
        -13    1    3    3    0    0  0.93660722443E+02  0.10313934468E+04  0.10713421309E+03  0.10411640181E+04  0.00000000000E+00 0.  1.
         22    1    1    2    0    0 -0.89828881453E+02 -0.11844444492E+04  0.12823904863E+04  0.17479997827E+04  0.00000000000E+00 0. -1.
<mgrwt>
<rscale>  0 0.26027846E+04</rscale>
<asrwt>0</asrwt>
<pdfrwt beam="1">  1        2 0.33206340E+00 0.26027846E+04</pdfrwt>
<pdfrwt beam="2">  1       -2 0.12071709E+00 0.26027846E+04</pdfrwt>
<totfact> 0.25211590E+00</totfact>
</mgrwt>
</event>
<event>
 6    1  0.1014650E-006  0.2311257E+04  0.7818608E-02  0.8473496E-01
         -2   -1    0    0    0  501 -0.00000000000E+00  0.00000000000E+00  0.83491747878E+03  0.83491747878E+03  0.00000000000E+00 0.  1.
          2   -1    0    0  501    0  0.00000000000E+00 -0.00000000000E+00 -0.15995319706E+04  0.15995319706E+04  0.00000000000E+00 0. -1.
         23    2    1    2    0    0  0.52267093887E+03 -0.16076752518E+03 -0.14530481786E+04  0.15552611597E+04  0.91962806775E+02 0.  0.
         13    1    3    3    0    0  0.32359016884E+03 -0.58075353315E+02 -0.80272596902E+03  0.86744009902E+03  0.00000000000E+00 0. -1.
        -13    1    3    3    0    0  0.19908077003E+03 -0.10269217186E+03 -0.65032220962E+03  0.68782106066E+03  0.00000000000E+00 0.  1.
         22    1    1    2    0    0 -0.52267093887E+03  0.16076752518E+03  0.68843368686E+03  0.87918828967E+03  0.00000000000E+00 0.  1.
<mgrwt>
<rscale>  0 0.23112570E+04</rscale>
<asrwt>0</asrwt>
<pdfrwt beam="1">  1        2 0.24608184E+00 0.23112570E+04</pdfrwt>
<pdfrwt beam="2">  1       -2 0.12844884E+00 0.23112570E+04</pdfrwt>
<totfact> 0.45257348E+00</totfact>
</mgrwt>
</event>
<event>
 6    1  0.1014650E-006  0.1127686E+04  0.7818608E-02  0.9178619E-01
         -1   -1    0    0    0  501 -0.00000000000E+00  0.00000000000E+00  0.99997835685E+02  0.99997835685E+02  0.00000000000E+00 0.  1.
          1   -1    0    0  501    0  0.00000000000E+00 -0.00000000000E+00 -0.31792594675E+04  0.31792594675E+04  0.00000000000E+00 0. -1.
         23    2    1    2    0    0  0.56064435576E+02  0.48206112781E+03 -0.73521200851E+03  0.88549566334E+03  0.89664488229E+02 0.  0.
         11    1    3    3    0    0  0.85832630304E+01  0.15973997642E+03 -0.31965650526E+03  0.35745043548E+03  0.00000000000E+00 0.  1.
        -11    1    3    3    0    0  0.47481172546E+02  0.32232115139E+03 -0.41555550325E+03  0.52804522785E+03  0.00000000000E+00 0. -1.
         22    1    1    2    0    0 -0.56064435576E+02 -0.48206112781E+03 -0.23440496233E+04  0.23937616399E+04  0.00000000000E+00 0. -1.
<mgrwt>
<rscale>  0 0.11276862E+04</rscale>
<asrwt>0</asrwt>
<pdfrwt beam="1">  1        1 0.48911681E+00 0.11276862E+04</pdfrwt>
<pdfrwt beam="2">  1       -1 0.15384283E-01 0.11276862E+04</pdfrwt>
<totfact> 0.14108807E+01</totfact>
</mgrwt>
</event>
<event>
 6    1  0.1014650E-006  0.1052996E+04  0.7818608E-02  0.9252256E-01
         -2   -1    0    0    0  501 -0.00000000000E+00  0.00000000000E+00  0.24643742244E+03  0.24643742244E+03  0.00000000000E+00 0.  1.
          2   -1    0    0  501    0  0.00000000000E+00 -0.00000000000E+00 -0.11248299786E+04  0.11248299786E+04  0.00000000000E+00 0. -1.
         23    2    1    2    0    0  0.24125371852E+03 -0.70480744905E+02  0.15402179803E+03  0.30869961927E+03  0.91661598124E+02 0.  0.
         11    1    3    3    0    0  0.11220443378E+03 -0.48870905899E+02  0.24944325037E+02  0.12490164032E+03  0.00000000000E+00 0. -1.
        -11    1    3    3    0    0  0.12904928474E+03 -0.21609839006E+02  0.12907747299E+03  0.18379797895E+03  0.00000000000E+00 0.  1.
         22    1    1    2    0    0 -0.24125371852E+03  0.70480744905E+02 -0.10324143541E+04  0.10625677817E+04  0.00000000000E+00 0. -1.
<mgrwt>
<rscale>  0 0.10529961E+04</rscale>
<asrwt>0</asrwt>
<pdfrwt beam="1">  1        2 0.17305076E+00 0.10529961E+04</pdfrwt>
<pdfrwt beam="2">  1       -2 0.37913450E-01 0.10529961E+04</pdfrwt>
<totfact> 0.13735201E+02</totfact>
</mgrwt>
</event>
<event>
 6    1  0.1014650E-006  0.1291978E+04  0.7818608E-02  0.9035951E-01
         -1   -1    0    0    0  501 -0.00000000000E+00  0.00000000000E+00  0.17375230918E+04  0.17375230918E+04  0.00000000000E+00 0.  1.
          1   -1    0    0  501    0  0.00000000000E+00 -0.00000000000E+00 -0.24017033526E+03  0.24017033526E+03  0.00000000000E+00 0. -1.
         23    2    1    2    0    0 -0.19433605008E+03  0.29690393169E+03  0.15727851174E+04  0.16149145880E+04  0.91529536549E+02 0.  0.
         13    1    3    3    0    0 -0.12319696408E+03  0.25480902789E+03  0.12594069302E+04  0.12908179378E+04  0.00000000000E+00 0.  1.
        -13    1    3    3    0    0 -0.71139086000E+02  0.42094903793E+02  0.31337818714E+03  0.32409665018E+03  0.00000000000E+00 0. -1.
         22    1    1    2    0    0  0.19433605008E+03 -0.29690393169E+03 -0.75432360837E+02  0.36277883906E+03  0.00000000000E+00 0. -1.
<mgrwt>
<rscale>  0 0.12919776E+04</rscale>
<asrwt>0</asrwt>
<pdfrwt beam="1">  1        1 0.36949283E-01 0.12919776E+04</pdfrwt>
<pdfrwt beam="2">  1       -1 0.26731124E+00 0.12919776E+04</pdfrwt>
<totfact> 0.62122654E+00</totfact>
</mgrwt>
</event>
<event>
 6    1  0.1014650E-006  0.2432834E+04  0.7818608E-02  0.8427312E-01
          2   -1    0    0  501    0  0.00000000000E+00  0.00000000000E+00  0.45490065813E+03  0.45490065813E+03  0.00000000000E+00 0. -1.
         -2   -1    0    0    0  501 -0.00000000000E+00 -0.00000000000E+00 -0.32527319683E+04  0.32527319683E+04  0.00000000000E+00 0.  1.
         23    2    1    2    0    0 -0.61638452058E+03 -0.39855682695E+03 -0.28758766415E+04  0.29694805450E+04  0.91492230808E+02 0.  0.
         11    1    3    3    0    0 -0.46255839617E+03 -0.25576255907E+03 -0.19785701574E+04  0.20479537652E+04  0.00000000000E+00 0.  1.
        -11    1    3    3    0    0 -0.15382612441E+03 -0.14279426788E+03 -0.89730648410E+03  0.92152677980E+03  0.00000000000E+00 0. -1.
         22    1    1    2    0    0  0.61638452058E+03  0.39855682695E+03  0.78045331406E+02  0.73815208140E+03  0.00000000000E+00 0. -1.
<mgrwt>
<rscale>  0 0.24328337E+04</rscale>
<asrwt>0</asrwt>
<pdfrwt beam="1">  1        2 0.69984715E-01 0.24328337E+04</pdfrwt>
<pdfrwt beam="2">  1       -2 0.50042031E+00 0.24328337E+04</pdfrwt>
<totfact> 0.10058527E-01</totfact>
</mgrwt>
</event>
<event>
 6    1  0.1014650E-006  0.2346470E+04  0.7818608E-02  0.8459821E-01
          2   -1    0    0  501    0  0.00000000000E+00  0.00000000000E+00  0.28219903255E+04  0.28219903255E+04  0.00000000000E+00 0. -1.
         -2   -1    0    0    0  501 -0.00000000000E+00 -0.00000000000E+00 -0.48776925589E+03  0.48776925589E+03  0.00000000000E+00 0.  1.
         23    2    1    2    0    0 -0.93414544527E+03 -0.49993665307E+03  0.18737454196E+04  0.21545097407E+04  0.91793004210E+02 0.  0.
         11    1    3    3    0    0 -0.30610022274E+03 -0.20332182306E+03  0.59577145307E+03  0.69998623871E+03  0.00000000000E+00 0. -1.
        -11    1    3    3    0    0 -0.62804522254E+03 -0.29661483001E+03  0.12779739665E+04  0.14545235020E+04  0.00000000000E+00 0.  1.
         22    1    1    2    0    0  0.93414544527E+03  0.49993665307E+03  0.46047565004E+03  0.11552498406E+04  0.00000000000E+00 0. -1.
<mgrwt>
<rscale>  0 0.23464698E+04</rscale>
<asrwt>0</asrwt>
<pdfrwt beam="1">  1        2 0.43415235E+00 0.23464698E+04</pdfrwt>
<pdfrwt beam="2">  1       -2 0.75041425E-01 0.23464698E+04</pdfrwt>
<totfact> 0.32310529E+00</totfact>
</mgrwt>
</event>
<event>
 6    1  0.1014650E-006  0.2101718E+04  0.7818608E-02  0.8560487E-01
         -1   -1    0    0    0  501 -0.00000000000E+00  0.00000000000E+00  0.50413075783E+03  0.50413075783E+03  0.00000000000E+00 0.  1.
          1   -1    0    0  501    0  0.00000000000E+00 -0.00000000000E+00 -0.21905117273E+04  0.21905117273E+04  0.00000000000E+00 0. -1.
         23    2    1    2    0    0  0.60020237011E+03 -0.16385821705E+03  0.23773337488E+03  0.67243863524E+03  0.92542748225E+02 0.  0.
         11    1    3    3    0    0  0.45574098985E+03 -0.89702502166E+02  0.15143037213E+03  0.48854636047E+03  0.00000000000E+00 0.  1.
        -11    1    3    3    0    0  0.14446138027E+03 -0.74155714884E+02  0.86303002746E+02  0.18389227477E+03  0.00000000000E+00 0. -1.
         22    1    1    2    0    0 -0.60020237011E+03  0.16385821705E+03 -0.19241143443E+04  0.20222038499E+04  0.00000000000E+00 0. -1.
<mgrwt>
<rscale>  0 0.21017177E+04</rscale>
<asrwt>0</asrwt>
<pdfrwt beam="1">  1        1 0.33700181E+00 0.21017177E+04</pdfrwt>
<pdfrwt beam="2">  1       -1 0.77558578E-01 0.21017177E+04</pdfrwt>
<totfact> 0.33873800E+00</totfact>
</mgrwt>
</event>
<event>
 6    1  0.1014650E-006  0.3005510E+04  0.7818608E-02  0.8242159E-01
         -2   -1    0    0    0  501 -0.00000000000E+00  0.00000000000E+00  0.23279382718E+04  0.23279382718E+04  0.00000000000E+00 0.  1.
          2   -1    0    0  501    0  0.00000000000E+00 -0.00000000000E+00 -0.97007433791E+03  0.97007433791E+03  0.00000000000E+00 0. -1.
         23    2    1    2    0    0  0.13833581654E+04 -0.43534617072E+03  0.25219064189E+03  0.14743570691E+04  0.83201833448E+02 0.  0.
         13    1    3    3    0    0  0.92080643780E+03 -0.32329660657E+03  0.19223656332E+03  0.99466581724E+03  0.00000000000E+00 0. -1.
        -13    1    3    3    0    0  0.46255172763E+03 -0.11204956415E+03  0.59954078569E+02  0.47969125184E+03  0.00000000000E+00 0.  1.
         22    1    1    2    0    0 -0.13833581654E+04  0.43534617072E+03  0.11056732920E+04  0.18236555406E+04  0.00000000000E+00 0. -1.
<mgrwt>
<rscale>  0 0.30055104E+04</rscale>
<asrwt>0</asrwt>
<pdfrwt beam="1">  1        2 0.14924221E+00 0.30055104E+04</pdfrwt>
<pdfrwt beam="2">  1       -2 0.35814435E+00 0.30055104E+04</pdfrwt>
<totfact> 0.31129946E-01</totfact>
</mgrwt>
</event>
<event>
 6    1  0.1014650E-006  0.1932313E+04  0.7818608E-02  0.8638937E-01
         -2   -1    0    0    0  501 -0.00000000000E+00  0.00000000000E+00  0.10134348326E+04  0.10134348326E+04  0.00000000000E+00 0.  1.
          2   -1    0    0  501    0  0.00000000000E+00 -0.00000000000E+00 -0.92108390685E+03  0.92108390685E+03  0.00000000000E+00 0. -1.
         23    2    1    2    0    0  0.83141297305E+03  0.18062734650E+03 -0.40706779589E+03  0.94796269465E+03  0.95159392247E+02 0.  0.
         13    1    3    3    0    0  0.63360209850E+03  0.10579068502E+03 -0.27605677738E+03  0.69917854129E+03  0.00000000000E+00 0.  1.
        -13    1    3    3    0    0  0.19781087455E+03  0.74836661479E+02 -0.13101101851E+03  0.24878415336E+03  0.00000000000E+00 0. -1.
         22    1    1    2    0    0 -0.83141297305E+03 -0.18062734650E+03  0.49941872169E+03  0.98655604485E+03  0.00000000000E+00 0.  1.
<mgrwt>
<rscale>  0 0.19323131E+04</rscale>
<asrwt>0</asrwt>
<pdfrwt beam="1">  1        2 0.14170522E+00 0.19323131E+04</pdfrwt>
<pdfrwt beam="2">  1       -2 0.15591305E+00 0.19323131E+04</pdfrwt>
<totfact> 0.71613454E+00</totfact>
</mgrwt>
</event>
<event>
 6    1  0.1014650E-006  0.3769320E+04  0.7818608E-02  0.8052771E-01
          1   -1    0    0  501    0  0.00000000000E+00  0.00000000000E+00  0.15662963294E+04  0.15662963294E+04  0.00000000000E+00 0. -1.
         -1   -1    0    0    0  501 -0.00000000000E+00 -0.00000000000E+00 -0.22677338440E+04  0.22677338440E+04  0.00000000000E+00 0.  1.
         23    2    1    2    0    0  0.48591653187E+03 -0.27806990352E+03 -0.21801997012E+04  0.22528358932E+04  0.92526090371E+02 0.  0.
         13    1    3    3    0    0  0.23664555016E+03 -0.14201653687E+03 -0.12571843295E+04  0.12871216926E+04  0.00000000000E+00 0. -1.
        -13    1    3    3    0    0  0.24927098171E+03 -0.13605336664E+03 -0.92301537168E+03  0.96571420061E+03  0.00000000000E+00 0.  1.
         22    1    1    2    0    0 -0.48591653187E+03  0.27806990352E+03  0.14787621866E+04  0.15811942802E+04  0.00000000000E+00 0. -1.
<mgrwt>
<rscale>  0 0.37693199E+04</rscale>
<asrwt>0</asrwt>
<pdfrwt beam="1">  1        1 0.24096867E+00 0.37693199E+04</pdfrwt>
<pdfrwt beam="2">  1       -1 0.34888213E+00 0.37693199E+04</pdfrwt>
<totfact> 0.74182068E-02</totfact>
</mgrwt>
</event>
<event>
 6    1  0.1014650E-006  0.2207856E+04  0.7818608E-02  0.8515165E-01
          2   -1    0    0  501    0  0.00000000000E+00  0.00000000000E+00  0.39107975803E+04  0.39107975803E+04  0.00000000000E+00 0. -1.
         -2   -1    0    0    0  501 -0.00000000000E+00 -0.00000000000E+00 -0.31161354002E+03  0.31161354002E+03  0.00000000000E+00 0.  1.
         23    2    1    2    0    0 -0.55411808866E+03  0.56260633428E+03  0.32727928936E+04  0.33679499309E+04  0.91327264602E+02 0.  0.
         13    1    3    3    0    0 -0.27633133289E+03  0.21620090162E+03  0.14275025158E+04  0.14699881863E+04  0.00000000000E+00 0.  1.
        -13    1    3    3    0    0 -0.27778675576E+03  0.34640543266E+03  0.18452903778E+04  0.18979617446E+04  0.00000000000E+00 0. -1.
         22    1    1    2    0    0  0.55411808866E+03 -0.56260633428E+03  0.32639114668E+03  0.85446118939E+03  0.00000000000E+00 0.  1.
<mgrwt>
<rscale>  0 0.22078564E+04</rscale>
<asrwt>0</asrwt>
<pdfrwt beam="1">  1        2 0.60166113E+00 0.22078564E+04</pdfrwt>
<pdfrwt beam="2">  1       -2 0.47940547E-01 0.22078564E+04</pdfrwt>
<totfact> 0.15275961E+00</totfact>
</mgrwt>
</event>
<event>
 6    1  0.1014650E-006  0.1108564E+04  0.7818608E-02  0.9196885E-01
         -2   -1    0    0    0  501 -0.00000000000E+00  0.00000000000E+00  0.26207652830E+03  0.26207652830E+03  0.00000000000E+00 0.  1.
          2   -1    0    0  501    0  0.00000000000E+00 -0.00000000000E+00 -0.11722860013E+04  0.11722860013E+04  0.00000000000E+00 0. -1.
         23    2    1    2    0    0  0.41651355065E+03 -0.34909036204E+03 -0.57234028043E+03  0.79443815121E+03  0.90614351748E+02 0.  0.
         11    1    3    3    0    0  0.85785113381E+02 -0.34321028493E+02 -0.72386017096E+02  0.11737441862E+03  0.00000000000E+00 0.  1.
        -11    1    3    3    0    0  0.33072843727E+03 -0.31476933355E+03 -0.49995426334E+03  0.67706373259E+03  0.00000000000E+00 0. -1.
         22    1    1    2    0    0 -0.41651355065E+03  0.34909036204E+03 -0.33786919253E+03  0.63992437835E+03  0.00000000000E+00 0.  1.
<mgrwt>
<rscale>  0 0.11085642E+04</rscale>
<asrwt>0</asrwt>
<pdfrwt beam="1">  1        2 0.18035169E+00 0.11085642E+04</pdfrwt>
<pdfrwt beam="2">  1       -2 0.40319466E-01 0.11085642E+04</pdfrwt>
<totfact> 0.11363574E+02</totfact>
</mgrwt>
</event>
<event>
 6    1  0.1014650E-006  0.1354744E+04  0.7818608E-02  0.8987245E-01
          1   -1    0    0  501    0  0.00000000000E+00  0.00000000000E+00  0.11651306727E+04  0.11651306727E+04  0.00000000000E+00 0. -1.
         -1   -1    0    0    0  501 -0.00000000000E+00 -0.00000000000E+00 -0.39380387737E+03  0.39380387737E+03  0.00000000000E+00 0.  1.
         23    2    1    2    0    0 -0.62064982815E+03 -0.14753117564E+03  0.63900519628E+03  0.90741274493E+03  0.89992176447E+02 0.  0.
         13    1    3    3    0    0 -0.28743038098E+03 -0.57118366080E+02  0.23257403748E+03  0.37412486493E+03  0.00000000000E+00 0.  1.
        -13    1    3    3    0    0 -0.33321944717E+03 -0.90412809559E+02  0.40643115881E+03  0.53328788000E+03  0.00000000000E+00 0. -1.
         22    1    1    2    0    0  0.62064982815E+03  0.14753117564E+03  0.13232159903E+03  0.65152180511E+03  0.00000000000E+00 0. -1.
<mgrwt>
<rscale>  0 0.13547442E+04</rscale>
<asrwt>0</asrwt>
<pdfrwt beam="1">  1        1 0.17925087E+00 0.13547442E+04</pdfrwt>
<pdfrwt beam="2">  1       -1 0.60585212E-01 0.13547442E+04</pdfrwt>
<totfact> 0.30643671E+01</totfact>
</mgrwt>
</event>
<event>
 6    1  0.1014650E-006  0.2286759E+04  0.7818608E-02  0.8483160E-01
          2   -1    0    0  501    0  0.00000000000E+00  0.00000000000E+00  0.14868910998E+04  0.14868910998E+04  0.00000000000E+00 0. -1.
         -2   -1    0    0    0  501 -0.00000000000E+00 -0.00000000000E+00 -0.87922813496E+03  0.87922813496E+03  0.00000000000E+00 0.  1.
         23    2    1    2    0    0 -0.67393699320E+03 -0.79771930350E+03 -0.17327450971E+03  0.10621213448E+04  0.86778668588E+02 0.  0.
         13    1    3    3    0    0 -0.18163090801E+03 -0.21139400142E+03 -0.85391495361E+02  0.29149428478E+03  0.00000000000E+00 0.  1.
        -13    1    3    3    0    0 -0.49230608519E+03 -0.58632530208E+03 -0.87883014344E+02  0.77062705999E+03  0.00000000000E+00 0. -1.
         22    1    1    2    0    0  0.67393699320E+03  0.79771930350E+03  0.78093747456E+03  0.13039978900E+04  0.00000000000E+00 0.  1.
<mgrwt>
<rscale>  0 0.22867588E+04</rscale>
<asrwt>0</asrwt>
<pdfrwt beam="1">  1        2 0.22875248E+00 0.22867588E+04</pdfrwt>
<pdfrwt beam="2">  1       -2 0.13526587E+00 0.22867588E+04</pdfrwt>
<totfact> 0.46010057E+00</totfact>
</mgrwt>
</event>
<event>
 6    1  0.1014650E-006  0.1594626E+04  0.7818608E-02  0.8823857E-01
          2   -1    0    0  501    0  0.00000000000E+00  0.00000000000E+00  0.31582437305E+04  0.31582437305E+04  0.00000000000E+00 0. -1.
         -2   -1    0    0    0  501 -0.00000000000E+00 -0.00000000000E+00 -0.20128517416E+03  0.20128517416E+03  0.00000000000E+00 0.  1.
         23    2    1    2    0    0 -0.31227570820E+03 -0.14782810786E+03  0.29908443535E+04  0.30123725787E+04  0.99344545103E+02 0.  0.
         13    1    3    3    0    0 -0.45378706487E+02  0.97341450273E+01  0.54419150121E+03  0.54616698048E+03  0.00000000000E+00 0. -1.
        -13    1    3    3    0    0 -0.26689700171E+03 -0.15756225288E+03  0.24466528523E+04  0.24662055982E+04  0.00000000000E+00 0.  1.
         22    1    1    2    0    0  0.31227570820E+03  0.14782810786E+03 -0.33885797165E+02  0.34715632596E+03  0.00000000000E+00 0.  1.
<mgrwt>
<rscale>  0 0.15946255E+04</rscale>
<asrwt>0</asrwt>
<pdfrwt beam="1">  1        2 0.48588361E+00 0.15946255E+04</pdfrwt>
<pdfrwt beam="2">  1       -2 0.30966952E-01 0.15946255E+04</pdfrwt>
<totfact> 0.12895127E+01</totfact>
</mgrwt>
</event>
<event>
 6    1  0.1014650E-006  0.2407511E+04  0.7818608E-02  0.8436697E-01
         -1   -1    0    0    0  501 -0.00000000000E+00  0.00000000000E+00  0.62119706144E+03  0.62119706144E+03  0.00000000000E+00 0.  1.
          1   -1    0    0  501    0  0.00000000000E+00 -0.00000000000E+00 -0.23326376466E+04  0.23326376466E+04  0.00000000000E+00 0. -1.
         23    2    1    2    0    0  0.47109483115E+02  0.11047838305E+04 -0.14351881245E+04  0.18140619072E+04  0.91044136380E+02 0.  0.
         13    1    3    3    0    0  0.57402375264E+02  0.91639418277E+03 -0.12356499748E+04  0.15394493143E+04  0.00000000000E+00 0.  1.
        -13    1    3    3    0    0 -0.10292892149E+02  0.18838964776E+03 -0.19953814968E+03  0.27461259293E+03  0.00000000000E+00 0. -1.
         22    1    1    2    0    0 -0.47109483115E+02 -0.11047838305E+04 -0.27625246070E+03  0.11397728009E+04  0.00000000000E+00 0.  1.
<mgrwt>
<rscale>  0 0.24075113E+04</rscale>
<asrwt>0</asrwt>
<pdfrwt beam="1">  1        1 0.35886733E+00 0.24075113E+04</pdfrwt>
<pdfrwt beam="2">  1       -1 0.95568780E-01 0.24075113E+04</pdfrwt>
<totfact> 0.16719299E+00</totfact>
</mgrwt>
</event>
<event>
 6    1  0.1014650E-006  0.3511774E+04  0.7818608E-02  0.8111005E-01
         -2   -1    0    0    0  501 -0.00000000000E+00  0.00000000000E+00  0.18203924673E+04  0.18203924673E+04  0.00000000000E+00 0.  1.
          2   -1    0    0  501    0  0.00000000000E+00 -0.00000000000E+00 -0.16936670931E+04  0.16936670931E+04  0.00000000000E+00 0. -1.
         23    2    1    2    0    0  0.10129320721E+04 -0.33186360045E+02  0.14967324041E+04  0.18099316371E+04  0.92260091235E+02 0.  0.
         13    1    3    3    0    0  0.59676256633E+03 -0.63894894910E+02  0.86553179143E+03  0.10532584679E+04  0.00000000000E+00 0. -1.
        -13    1    3    3    0    0  0.41616950576E+03  0.30708534866E+02  0.63120061263E+03  0.75667316922E+03  0.00000000000E+00 0.  1.
         22    1    1    2    0    0 -0.10129320721E+04  0.33186360045E+02 -0.13700070298E+04  0.17041279233E+04  0.00000000000E+00 0. -1.
<mgrwt>
<rscale>  0 0.35117738E+04</rscale>
<asrwt>0</asrwt>
<pdfrwt beam="1">  1        2 0.26056417E+00 0.35117738E+04</pdfrwt>
<pdfrwt beam="2">  1       -2 0.28006038E+00 0.35117738E+04</pdfrwt>
<totfact> 0.34150573E-01</totfact>
</mgrwt>
</event>
<event>
 6    1  0.1014650E-006  0.3919295E+04  0.7818608E-02  0.8021028E-01
          1   -1    0    0  501    0  0.00000000000E+00  0.00000000000E+00  0.32657475641E+04  0.32657475641E+04  0.00000000000E+00 0. -1.
         -1   -1    0    0    0  501 -0.00000000000E+00 -0.00000000000E+00 -0.11759078944E+04  0.11759078944E+04  0.00000000000E+00 0.  1.
         23    2    1    2    0    0  0.66079363974E+03 -0.17135672036E+04  0.27428067284E+03  0.18591730739E+04  0.91289843280E+02 0.  0.
         11    1    3    3    0    0  0.35947024707E+03 -0.92706569128E+03  0.10251368085E+03  0.99958927027E+03  0.00000000000E+00 0.  1.
        -11    1    3    3    0    0  0.30132339266E+03 -0.78650151235E+03  0.17176699199E+03  0.85958380361E+03  0.00000000000E+00 0. -1.
         22    1    1    2    0    0 -0.66079363974E+03  0.17135672036E+04  0.18155589969E+04  0.25824823846E+04  0.00000000000E+00 0. -1.
<mgrwt>
<rscale>  0 0.39192950E+04</rscale>
<asrwt>0</asrwt>
<pdfrwt beam="1">  1        1 0.50242270E+00 0.39192950E+04</pdfrwt>
<pdfrwt beam="2">  1       -1 0.18090891E+00 0.39192950E+04</pdfrwt>
<totfact> 0.61178557E-02</totfact>
</mgrwt>
</event>
<event>
 6    1  0.1014650E-006  0.3763837E+04  0.7818608E-02  0.8053960E-01
         -2   -1    0    0    0  501 -0.00000000000E+00  0.00000000000E+00  0.93526658789E+03  0.93526658789E+03  0.00000000000E+00 0.  1.
          2   -1    0    0  501    0  0.00000000000E+00 -0.00000000000E+00 -0.37867465966E+04  0.37867465966E+04  0.00000000000E+00 0. -1.
         23    2    1    2    0    0 -0.65983805650E+03 -0.17508706843E+04 -0.16668792752E+04  0.25074673368E+04  0.89283330216E+02 0.  0.
         11    1    3    3    0    0 -0.17865926471E+03 -0.39679909472E+03 -0.35303126130E+03  0.56035678447E+03  0.00000000000E+00 0. -1.
        -11    1    3    3    0    0 -0.48117879179E+03 -0.13540715895E+04 -0.13138480139E+04  0.19471105523E+04  0.00000000000E+00 0.  1.
         22    1    1    2    0    0  0.65983805650E+03  0.17508706843E+04 -0.11846007335E+04  0.22145458477E+04  0.00000000000E+00 0.  1.
<mgrwt>
<rscale>  0 0.37638372E+04</rscale>
<asrwt>0</asrwt>
<pdfrwt beam="1">  1        2 0.58257640E+00 0.37638372E+04</pdfrwt>
<pdfrwt beam="2">  1       -2 0.14388717E+00 0.37638372E+04</pdfrwt>
<totfact> 0.13481062E-01</totfact>
</mgrwt>
</event>
<event>
 6    1  0.1014650E-006  0.2038894E+04  0.7818608E-02  0.8588649E-01
          1   -1    0    0  501    0  0.00000000000E+00  0.00000000000E+00  0.20022541738E+04  0.20022541738E+04  0.00000000000E+00 0. -1.
         -1   -1    0    0    0  501 -0.00000000000E+00 -0.00000000000E+00 -0.51905126405E+03  0.51905126405E+03  0.00000000000E+00 0.  1.
         23    2    1    2    0    0 -0.29809115080E+03 -0.90212715491E+03  0.29315290754E+03  0.99850842394E+03  0.91589888552E+02 0.  0.
         11    1    3    3    0    0 -0.18058676501E+03 -0.41200964845E+03  0.11986493255E+03  0.46554391003E+03  0.00000000000E+00 0. -1.
        -11    1    3    3    0    0 -0.11750438579E+03 -0.49011750645E+03  0.17328797499E+03  0.53296451391E+03  0.00000000000E+00 0.  1.
         22    1    1    2    0    0  0.29809115080E+03  0.90212715491E+03  0.11900500022E+04  0.15227970139E+04  0.00000000000E+00 0. -1.
<mgrwt>
<rscale>  0 0.20388944E+04</rscale>
<asrwt>0</asrwt>
<pdfrwt beam="1">  1        1 0.30803910E+00 0.20388944E+04</pdfrwt>
<pdfrwt beam="2">  1       -1 0.79854042E-01 0.20388944E+04</pdfrwt>
<totfact> 0.42989472E+00</totfact>
</mgrwt>
</event>
<event>
 6    1  0.1014650E-006  0.3248886E+04  0.7818608E-02  0.8176024E-01
         -3   -1    0    0    0  501 -0.00000000000E+00  0.00000000000E+00  0.19816550841E+04  0.19816550841E+04  0.00000000000E+00 0.  1.
          3   -1    0    0  501    0  0.00000000000E+00 -0.00000000000E+00 -0.13316220757E+04  0.13316220757E+04  0.00000000000E+00 0. -1.
         23    2    1    2    0    0  0.35983316977E+03  0.29718098496E+03 -0.12602691357E+04  0.13467953446E+04  0.88221075613E+02 0.  0.
         11    1    3    3    0    0  0.32159417464E+03  0.25316386899E+03 -0.10090181775E+04  0.10888675035E+04  0.00000000000E+00 0.  1.
        -11    1    3    3    0    0  0.38238995137E+02  0.44017115966E+02 -0.25125095816E+03  0.25792784111E+03  0.00000000000E+00 0. -1.
         22    1    1    2    0    0 -0.35983316977E+03 -0.29718098496E+03  0.19103021440E+04  0.19664818152E+04  0.00000000000E+00 0.  1.
<mgrwt>
<rscale>  0 0.32488864E+04</rscale>
<asrwt>0</asrwt>
<pdfrwt beam="1">  1        3 0.20486494E+00 0.32488864E+04</pdfrwt>
<pdfrwt beam="2">  1       -3 0.30487001E+00 0.32488864E+04</pdfrwt>
<totfact> 0.10636503E-02</totfact>
</mgrwt>
</event>
<event>
 6    1  0.1014650E-006  0.1571170E+04  0.7818608E-02  0.8838458E-01
         -1   -1    0    0    0  501 -0.00000000000E+00  0.00000000000E+00  0.10205552603E+04  0.10205552603E+04  0.00000000000E+00 0.  1.
          1   -1    0    0  501    0  0.00000000000E+00 -0.00000000000E+00 -0.60471349301E+03  0.60471349301E+03  0.00000000000E+00 0. -1.
         23    2    1    2    0    0  0.14879606694E+03  0.60478178783E+03  0.69930196499E+03  0.94098009771E+03  0.92298567779E+02 0.  0.
         11    1    3    3    0    0  0.12784031330E+00  0.19503499856E+02  0.52974092312E+02  0.56450485437E+02  0.00000000000E+00 0. -1.
        -11    1    3    3    0    0  0.14866822663E+03  0.58527828798E+03  0.64632787268E+03  0.88452961228E+03  0.00000000000E+00 0.  1.
         22    1    1    2    0    0 -0.14879606694E+03 -0.60478178783E+03 -0.28346019774E+03  0.68428865557E+03  0.00000000000E+00 0. -1.
<mgrwt>
<rscale>  0 0.15711697E+04</rscale>
<asrwt>0</asrwt>
<pdfrwt beam="1">  1        1 0.93032845E-01 0.15711697E+04</pdfrwt>
<pdfrwt beam="2">  1       -1 0.15700850E+00 0.15711697E+04</pdfrwt>
<totfact> 0.10030814E+01</totfact>
</mgrwt>
</event>
<event>
 6    1  0.1014650E-006  0.1641521E+04  0.7818608E-02  0.8795438E-01
         -1   -1    0    0    0  501 -0.00000000000E+00  0.00000000000E+00  0.45385230109E+03  0.45385230109E+03  0.00000000000E+00 0.  1.
          1   -1    0    0  501    0  0.00000000000E+00 -0.00000000000E+00 -0.14842888946E+04  0.14842888946E+04  0.00000000000E+00 0. -1.
         23    2    1    2    0    0  0.44476884787E+03 -0.22261825542E+03  0.25069944269E+03  0.56384582754E+03  0.87713687554E+02 0.  0.
         13    1    3    3    0    0  0.15431125057E+03 -0.11476402080E+03  0.12569715094E+03  0.22974445864E+03  0.00000000000E+00 0. -1.
        -13    1    3    3    0    0  0.29045759730E+03 -0.10785423462E+03  0.12500229175E+03  0.33410136889E+03  0.00000000000E+00 0.  1.
         22    1    1    2    0    0 -0.44476884787E+03  0.22261825542E+03 -0.12811360362E+04  0.13742953682E+04  0.00000000000E+00 0. -1.
<mgrwt>
<rscale>  0 0.16415212E+04</rscale>
<asrwt>0</asrwt>
<pdfrwt beam="1">  1        1 0.22835214E+00 0.16415212E+04</pdfrwt>
<pdfrwt beam="2">  1       -1 0.69823430E-01 0.16415212E+04</pdfrwt>
<totfact> 0.13303366E+01</totfact>
</mgrwt>
</event>
<event>
 6    1  0.1014650E-006  0.1991906E+04  0.7818608E-02  0.8610414E-01
         -1   -1    0    0    0  501 -0.00000000000E+00  0.00000000000E+00  0.31432018320E+03  0.31432018320E+03  0.00000000000E+00 0.  1.
          1   -1    0    0  501    0  0.00000000000E+00 -0.00000000000E+00 -0.31557701836E+04  0.31557701836E+04  0.00000000000E+00 0. -1.
         23    2    1    2    0    0 -0.31395527483E+03 -0.94168820747E+03 -0.15081366077E+04  0.18078421309E+04  0.92046444743E+02 0.  0.
         13    1    3    3    0    0 -0.17347871457E+03 -0.55423130294E+03 -0.80116474667E+03  0.98951106758E+03  0.00000000000E+00 0. -1.
        -13    1    3    3    0    0 -0.14047656026E+03 -0.38745690453E+03 -0.70697186106E+03  0.81833106331E+03  0.00000000000E+00 0.  1.
         22    1    1    2    0    0  0.31395527483E+03  0.94168820747E+03 -0.13333133926E+04  0.16622482359E+04  0.00000000000E+00 0.  1.
<mgrwt>
<rscale>  0 0.19919059E+04</rscale>
<asrwt>0</asrwt>
<pdfrwt beam="1">  1        1 0.48550309E+00 0.19919059E+04</pdfrwt>
<pdfrwt beam="2">  1       -1 0.48356953E-01 0.19919059E+04</pdfrwt>
<totfact> 0.18261318E+00</totfact>
</mgrwt>
</event>
<event>
 6    1  0.1014650E-006  0.2891954E+04  0.7818608E-02  0.8275275E-01
         -2   -1    0    0    0  501 -0.00000000000E+00  0.00000000000E+00  0.64075440950E+03  0.64075440950E+03  0.00000000000E+00 0.  1.
          2   -1    0    0  501    0  0.00000000000E+00 -0.00000000000E+00 -0.32631065149E+04  0.32631065149E+04  0.00000000000E+00 0. -1.
         23    2    1    2    0    0  0.11974685541E+04 -0.78181265994E+03 -0.10380548701E+04  0.17695789133E+04  0.93218259063E+02 0.  0.
         13    1    3    3    0    0  0.81035097023E+03 -0.50265077496E+03 -0.64435482648E+03  0.11508777689E+04  0.00000000000E+00 0.  1.
        -13    1    3    3    0    0  0.38711758382E+03 -0.27916188498E+03 -0.39370004361E+03  0.61870114439E+03  0.00000000000E+00 0. -1.
         22    1    1    2    0    0 -0.11974685541E+04  0.78181265994E+03 -0.15842972353E+04  0.21342820111E+04  0.00000000000E+00 0.  1.
<mgrwt>
<rscale>  0 0.28919543E+04</rscale>
<asrwt>0</asrwt>
<pdfrwt beam="1">  1        2 0.50201639E+00 0.28919543E+04</pdfrwt>
<pdfrwt beam="2">  1       -2 0.98577602E-01 0.28919543E+04</pdfrwt>
<totfact> 0.86926350E-01</totfact>
</mgrwt>
</event>
<event>
 6    1  0.1014650E-006  0.2089555E+04  0.7818608E-02  0.8565858E-01
         -1   -1    0    0    0  501 -0.00000000000E+00  0.00000000000E+00  0.17985719700E+04  0.17985719700E+04  0.00000000000E+00 0.  1.
          1   -1    0    0  501    0  0.00000000000E+00 -0.00000000000E+00 -0.60690395364E+03  0.60690395364E+03  0.00000000000E+00 0. -1.
         23    2    1    2    0    0 -0.47003150718E+03  0.90950889218E+03  0.82560280213E+03  0.13182134053E+04  0.89053648940E+02 0.  0.
         11    1    3    3    0    0 -0.34330997796E+02  0.13060288267E+03  0.10159525307E+03  0.16898912929E+03  0.00000000000E+00 0.  1.
        -11    1    3    3    0    0 -0.43570050939E+03  0.77890600951E+03  0.72400754906E+03  0.11492242760E+04  0.00000000000E+00 0. -1.
         22    1    1    2    0    0  0.47003150718E+03 -0.90950889218E+03  0.36606521424E+03  0.10872625183E+04  0.00000000000E+00 0. -1.
<mgrwt>
<rscale>  0 0.20895554E+04</rscale>
<asrwt>0</asrwt>
<pdfrwt beam="1">  1        1 0.93369839E-01 0.20895554E+04</pdfrwt>
<pdfrwt beam="2">  1       -1 0.27670338E+00 0.20895554E+04</pdfrwt>
<totfact> 0.14498763E+00</totfact>
</mgrwt>
</event>
<event>
 6    1  0.1014650E-006  0.3181305E+04  0.7818608E-02  0.8193772E-01
          1   -1    0    0  501    0  0.00000000000E+00  0.00000000000E+00  0.14175471427E+04  0.14175471427E+04  0.00000000000E+00 0. -1.
         -1   -1    0    0    0  501 -0.00000000000E+00 -0.00000000000E+00 -0.17848964058E+04  0.17848964058E+04  0.00000000000E+00 0.  1.
         23    2    1    2    0    0 -0.97979672511E+03 -0.40658960962E+03  0.10075485281E+04  0.14658777797E+04  0.91251823575E+02 0.  0.
         11    1    3    3    0    0 -0.41357539264E+03 -0.21875244443E+03  0.46010396634E+03  0.65619577657E+03  0.00000000000E+00 0.  1.
        -11    1    3    3    0    0 -0.56622133247E+03 -0.18783716519E+03  0.54744456173E+03  0.80968200309E+03  0.00000000000E+00 0. -1.
         22    1    1    2    0    0  0.97979672511E+03  0.40658960962E+03 -0.13748977911E+04  0.17365657688E+04  0.00000000000E+00 0.  1.
<mgrwt>
<rscale>  0 0.31813046E+04</rscale>
<asrwt>0</asrwt>
<pdfrwt beam="1">  1        1 0.21808418E+00 0.31813046E+04</pdfrwt>
<pdfrwt beam="2">  1       -1 0.27459945E+00 0.31813046E+04</pdfrwt>
<totfact> 0.30186790E-01</totfact>
</mgrwt>
</event>
<event>
 6    1  0.1014650E-006  0.2126470E+04  0.7818608E-02  0.8549672E-01
         -2   -1    0    0    0  501 -0.00000000000E+00  0.00000000000E+00  0.10447867573E+04  0.10447867573E+04  0.00000000000E+00 0.  1.
          2   -1    0    0  501    0  0.00000000000E+00 -0.00000000000E+00 -0.10820091580E+04  0.10820091580E+04  0.00000000000E+00 0. -1.
         23    2    1    2    0    0 -0.96833273242E+03  0.27948774915E+03 -0.35120382621E+03  0.10711605530E+04  0.90879701933E+02 0.  0.
         11    1    3    3    0    0 -0.21965637379E+03  0.10254948021E+03 -0.74385727795E+02  0.25357159726E+03  0.00000000000E+00 0.  1.
        -11    1    3    3    0    0 -0.74867635863E+03  0.17693826894E+03 -0.27681809842E+03  0.81758895578E+03  0.00000000000E+00 0. -1.
         22    1    1    2    0    0  0.96833273242E+03 -0.27948774915E+03  0.31398142552E+03  0.10556353623E+04  0.00000000000E+00 0.  1.
<mgrwt>
<rscale>  0 0.21264702E+04</rscale>
<asrwt>0</asrwt>
<pdfrwt beam="1">  1        2 0.16646295E+00 0.21264702E+04</pdfrwt>
<pdfrwt beam="2">  1       -2 0.16073642E+00 0.21264702E+04</pdfrwt>
<totfact> 0.51128765E+00</totfact>
</mgrwt>
</event>
<event>
 6    1  0.1014650E-006  0.5818008E+04  0.7818608E-02  0.7713385E-01
         -2   -1    0    0    0  501 -0.00000000000E+00  0.00000000000E+00  0.25763297766E+04  0.25763297766E+04  0.00000000000E+00 0.  1.
          2   -1    0    0  501    0  0.00000000000E+00 -0.00000000000E+00 -0.32846356505E+04  0.32846356505E+04  0.00000000000E+00 0. -1.
         23    2    1    2    0    0 -0.15687348751E+04 -0.20100368783E+04  0.10549496997E+04  0.27609254953E+04  0.92808194119E+02 0.  0.
         13    1    3    3    0    0 -0.71676102364E+03 -0.96641162699E+03  0.53633098690E+03  0.13173263549E+04  0.00000000000E+00 0.  1.
        -13    1    3    3    0    0 -0.85197385149E+03 -0.10436252513E+04  0.51861871282E+03  0.14435991404E+04  0.00000000000E+00 0. -1.
         22    1    1    2    0    0  0.15687348751E+04  0.20100368783E+04 -0.17632555737E+04  0.31000399318E+04  0.00000000000E+00 0. -1.
<mgrwt>
<rscale>  0 0.58180081E+04</rscale>
<asrwt>0</asrwt>
<pdfrwt beam="1">  1        2 0.50532856E+00 0.58180081E+04</pdfrwt>
<pdfrwt beam="2">  1       -2 0.39635843E+00 0.58180081E+04</pdfrwt>
<totfact> 0.61027465E-03</totfact>
</mgrwt>
</event>
<event>
 6    1  0.1014650E-006  0.1445525E+04  0.7818608E-02  0.8921509E-01
         -1   -1    0    0    0  501 -0.00000000000E+00  0.00000000000E+00  0.17247403041E+03  0.17247403041E+03  0.00000000000E+00 0.  1.
          1   -1    0    0  501    0  0.00000000000E+00 -0.00000000000E+00 -0.30287789774E+04  0.30287789774E+04  0.00000000000E+00 0. -1.
         23    2    1    2    0    0  0.17346669737E+03  0.41001539957E+03 -0.18120001548E+03  0.48935520046E+03  0.91824526241E+02 0.  0.
         11    1    3    3    0    0  0.12741599695E+03  0.23896715135E+03 -0.14970663653E+03  0.30943854435E+03  0.00000000000E+00 0.  1.
        -11    1    3    3    0    0  0.46050700416E+02  0.17104824822E+03 -0.31493378950E+02  0.17991665611E+03  0.00000000000E+00 0. -1.
         22    1    1    2    0    0 -0.17346669737E+03 -0.41001539957E+03 -0.26751049315E+04  0.27118978074E+04  0.00000000000E+00 0. -1.
<mgrwt>
<rscale>  0 0.14455251E+04</rscale>
<asrwt>0</asrwt>
<pdfrwt beam="1">  1        1 0.46596594E+00 0.14455251E+04</pdfrwt>
<pdfrwt beam="2">  1       -1 0.26534469E-01 0.14455251E+04</pdfrwt>
<totfact> 0.70452497E+00</totfact>
</mgrwt>
</event>
<event>
 6    1  0.1014650E-006  0.2278002E+04  0.7818608E-02  0.8486645E-01
          2   -1    0    0  501    0  0.00000000000E+00  0.00000000000E+00  0.20366074361E+04  0.20366074361E+04  0.00000000000E+00 0. -1.
         -2   -1    0    0    0  501 -0.00000000000E+00 -0.00000000000E+00 -0.63700224674E+03  0.63700224674E+03  0.00000000000E+00 0.  1.
         23    2    1    2    0    0  0.40852483318E+03 -0.41807907302E+03  0.18458042859E+04  0.19382347552E+04  0.89876879969E+02 0.  0.
         11    1    3    3    0    0  0.56447290749E+02 -0.86152070450E+02  0.42471858784E+03  0.43702900903E+03  0.00000000000E+00 0. -1.
        -11    1    3    3    0    0  0.35207754243E+03 -0.33192700256E+03  0.14210856981E+04  0.15012057461E+04  0.00000000000E+00 0.  1.
         22    1    1    2    0    0 -0.40852483318E+03  0.41807907302E+03 -0.44619909651E+03  0.73537492774E+03  0.00000000000E+00 0.  1.
<mgrwt>
<rscale>  0 0.22780022E+04</rscale>
<asrwt>0</asrwt>
<pdfrwt beam="1">  1        2 0.31332422E+00 0.22780022E+04</pdfrwt>
<pdfrwt beam="2">  1       -2 0.98000347E-01 0.22780022E+04</pdfrwt>
<totfact> 0.50158352E+00</totfact>
</mgrwt>
</event>
<event>
 6    1  0.1014650E-006  0.2359171E+04  0.7818608E-02  0.8454949E-01
         -2   -1    0    0    0  501 -0.00000000000E+00  0.00000000000E+00  0.81705103064E+03  0.81705103064E+03  0.00000000000E+00 0.  1.
          2   -1    0    0  501    0  0.00000000000E+00 -0.00000000000E+00 -0.17029804981E+04  0.17029804981E+04  0.00000000000E+00 0. -1.
         23    2    1    2    0    0  0.26107660614E+03 -0.10724102536E+03  0.77827285217E+03  0.83206500288E+03  0.83438029733E+02 0.  0.
         11    1    3    3    0    0  0.25055112414E+03 -0.78704474264E+02  0.67098884313E+03  0.72055276537E+03  0.00000000000E+00 0. -1.
        -11    1    3    3    0    0  0.10525481999E+02 -0.28536551092E+02  0.10728400904E+03  0.11151223752E+03  0.00000000000E+00 0.  1.
         22    1    1    2    0    0 -0.26107660614E+03  0.10724102536E+03 -0.16642023196E+04  0.16879665259E+04  0.00000000000E+00 0. -1.
<mgrwt>
<rscale>  0 0.23591710E+04</rscale>
<asrwt>0</asrwt>
<pdfrwt beam="1">  1        2 0.26199700E+00 0.23591710E+04</pdfrwt>
<pdfrwt beam="2">  1       -2 0.12570016E+00 0.23591710E+04</pdfrwt>
<totfact> 0.41679702E+00</totfact>
</mgrwt>
</event>
<event>
 6    1  0.1014650E-006  0.3752090E+04  0.7818608E-02  0.8056515E-01
          2   -1    0    0  501    0  0.00000000000E+00  0.00000000000E+00  0.25374556995E+04  0.25374556995E+04  0.00000000000E+00 0. -1.
         -2   -1    0    0    0  501 -0.00000000000E+00 -0.00000000000E+00 -0.13870367521E+04  0.13870367521E+04  0.00000000000E+00 0.  1.
         23    2    1    2    0    0 -0.99876084366E+03  0.10852442022E+04  0.17863605964E+04  0.23183480053E+04  0.91515530479E+02 0.  0.
         11    1    3    3    0    0 -0.53354435353E+03  0.56106898791E+03  0.10063703329E+04  0.12697437668E+04  0.00000000000E+00 0. -1.
        -11    1    3    3    0    0 -0.46521649013E+03  0.52417521430E+03  0.77999026349E+03  0.10486042386E+04  0.00000000000E+00 0.  1.
         22    1    1    2    0    0  0.99876084366E+03 -0.10852442022E+04 -0.63594164895E+03  0.16061444462E+04  0.00000000000E+00 0.  1.
<mgrwt>
<rscale>  0 0.37520897E+04</rscale>
<asrwt>0</asrwt>
<pdfrwt beam="1">  1        2 0.39037780E+00 0.37520897E+04</pdfrwt>
<pdfrwt beam="2">  1       -2 0.21339027E+00 0.37520897E+04</pdfrwt>
<totfact> 0.29022054E-01</totfact>
</mgrwt>
</event>
<event>
 6    1  0.1014650E-006  0.2481375E+04  0.7818608E-02  0.8409651E-01
         -1   -1    0    0    0  501 -0.00000000000E+00  0.00000000000E+00  0.10649503162E+04  0.10649503162E+04  0.00000000000E+00 0.  1.
          1   -1    0    0  501    0  0.00000000000E+00 -0.00000000000E+00 -0.14454241053E+04  0.14454241053E+04  0.00000000000E+00 0. -1.
         23    2    1    2    0    0 -0.24100421565E+03 -0.11024956390E+04 -0.70787406660E+03  0.13353124624E+04  0.91618842573E+02 0.  0.
         11    1    3    3    0    0 -0.18310993246E+03 -0.72774623783E+03 -0.51258924198E+03  0.90878576410E+03  0.00000000000E+00 0. -1.
        -11    1    3    3    0    0 -0.57894283191E+02 -0.37474940113E+03 -0.19528482461E+03  0.42652669834E+03  0.00000000000E+00 0.  1.
         22    1    1    2    0    0  0.24100421565E+03  0.11024956390E+04  0.32740027755E+03  0.11750619591E+04  0.00000000000E+00 0.  1.
<mgrwt>
<rscale>  0 0.24813745E+04</rscale>
<asrwt>0</asrwt>
<pdfrwt beam="1">  1        1 0.22237294E+00 0.24813745E+04</pdfrwt>
<pdfrwt beam="2">  1       -1 0.16383851E+00 0.24813745E+04</pdfrwt>
<totfact> 0.17370925E+00</totfact>
</mgrwt>
</event>
<event>
 6    1  0.1014650E-006  0.1656164E+04  0.7818608E-02  0.8786768E-01
         -1   -1    0    0    0  501 -0.00000000000E+00  0.00000000000E+00  0.69749712190E+03  0.69749712190E+03  0.00000000000E+00 0.  1.
          1   -1    0    0  501    0  0.00000000000E+00 -0.00000000000E+00 -0.98311508975E+03  0.98311508975E+03  0.00000000000E+00 0. -1.
         23    2    1    2    0    0  0.26929332105E+03  0.14813750487E+03 -0.92085493566E+03  0.97492841674E+03  0.89710602069E+02 0.  0.
         11    1    3    3    0    0  0.22579405058E+03  0.11614979492E+03 -0.63254656402E+03  0.68160757316E+03  0.00000000000E+00 0. -1.
        -11    1    3    3    0    0  0.43499270474E+02  0.31987709943E+02 -0.28830837165E+03  0.29332084358E+03  0.00000000000E+00 0.  1.
         22    1    1    2    0    0 -0.26929332105E+03 -0.14813750487E+03  0.63523696782E+03  0.70568379490E+03  0.00000000000E+00 0.  1.
<mgrwt>
<rscale>  0 0.16561642E+04</rscale>
<asrwt>0</asrwt>
<pdfrwt beam="1">  1        1 0.15124848E+00 0.16561642E+04</pdfrwt>
<pdfrwt beam="2">  1       -1 0.10730725E+00 0.16561642E+04</pdfrwt>
<totfact> 0.12058557E+01</totfact>
</mgrwt>
</event>
<event>
 6    1  0.1014650E-006  0.1220873E+04  0.7818608E-02  0.9094780E-01
          2   -1    0    0  501    0  0.00000000000E+00  0.00000000000E+00  0.12979551678E+04  0.12979551678E+04  0.00000000000E+00 0. -1.
         -2   -1    0    0    0  501 -0.00000000000E+00 -0.00000000000E+00 -0.28709217703E+03  0.28709217703E+03  0.00000000000E+00 0.  1.
         23    2    1    2    0    0 -0.14127145806E+03 -0.58995875136E+03  0.52655356716E+03  0.80879701731E+03  0.94260293532E+02 0.  0.
         13    1    3    3    0    0 -0.10981199348E+03 -0.45687264546E+03  0.45659718142E+03  0.65518873171E+03  0.00000000000E+00 0. -1.
        -13    1    3    3    0    0 -0.31459464585E+02 -0.13308610591E+03  0.69956385742E+02  0.15360828560E+03  0.00000000000E+00 0.  1.
         22    1    1    2    0    0  0.14127145806E+03  0.58995875136E+03  0.48430942358E+03  0.77625032750E+03  0.00000000000E+00 0.  1.
<mgrwt>
<rscale>  0 0.12208731E+04</rscale>
<asrwt>0</asrwt>
<pdfrwt beam="1">  1        2 0.19968541E+00 0.12208731E+04</pdfrwt>
<pdfrwt beam="2">  1       -2 0.44168028E-01 0.12208731E+04</pdfrwt>
<totfact> 0.79369357E+01</totfact>
</mgrwt>
</event>
<event>
 6    1  0.1014650E-006  0.2575021E+04  0.7818608E-02  0.8376736E-01
          1   -1    0    0  501    0  0.00000000000E+00  0.00000000000E+00  0.33052555495E+04  0.33052555495E+04  0.00000000000E+00 0. -1.
         -1   -1    0    0    0  501 -0.00000000000E+00 -0.00000000000E+00 -0.50152946025E+03  0.50152946025E+03  0.00000000000E+00 0.  1.
         23    2    1    2    0    0 -0.11703909624E+04  0.29691206474E+03  0.20572122373E+04  0.23871883382E+04  0.92596940361E+02 0.  0.
         13    1    3    3    0    0 -0.25934528434E+03  0.92942591403E+02  0.52682943294E+03  0.59451455257E+03  0.00000000000E+00 0. -1.
        -13    1    3    3    0    0 -0.91104567802E+03  0.20396947334E+03  0.15303828044E+04  0.17926737856E+04  0.00000000000E+00 0.  1.
         22    1    1    2    0    0  0.11703909624E+04 -0.29691206474E+03  0.74651385195E+03  0.14195966716E+04  0.00000000000E+00 0.  1.
<mgrwt>
<rscale>  0 0.25750208E+04</rscale>
<asrwt>0</asrwt>
<pdfrwt beam="1">  1        1 0.50850084E+00 0.25750208E+04</pdfrwt>
<pdfrwt beam="2">  1       -1 0.77158381E-01 0.25750208E+04</pdfrwt>
<totfact> 0.52614785E-01</totfact>
</mgrwt>
</event>
<event>
 6    1  0.1014650E-006  0.2280075E+04  0.7818608E-02  0.8485819E-01
          2   -1    0    0  501    0  0.00000000000E+00  0.00000000000E+00  0.16638036414E+04  0.16638036414E+04  0.00000000000E+00 0. -1.
         -2   -1    0    0    0  501 -0.00000000000E+00 -0.00000000000E+00 -0.78115284858E+03  0.78115284858E+03  0.00000000000E+00 0.  1.
         23    2    1    2    0    0 -0.51013490659E+03  0.48325301327E+03  0.14021917780E+04  0.15710606534E+04  0.91206889362E+02 0.  0.
         13    1    3    3    0    0 -0.36924546999E+03  0.29095143047E+03  0.94229561385E+03  0.10530507945E+04  0.00000000000E+00 0.  1.
        -13    1    3    3    0    0 -0.14088943660E+03  0.19230158280E+03  0.45989616417E+03  0.51800985889E+03  0.00000000000E+00 0. -1.
         22    1    1    2    0    0  0.51013490659E+03 -0.48325301327E+03 -0.51954098522E+03  0.87389583652E+03  0.00000000000E+00 0.  1.
<mgrwt>
<rscale>  0 0.22800745E+04</rscale>
<asrwt>0</asrwt>
<pdfrwt beam="1">  1        2 0.25596979E+00 0.22800745E+04</pdfrwt>
<pdfrwt beam="2">  1       -2 0.12017736E+00 0.22800745E+04</pdfrwt>
<totfact> 0.49360832E+00</totfact>
</mgrwt>
</event>
<event>
 6    1  0.1014650E-006  0.2833953E+04  0.7818608E-02  0.8292804E-01
         -2   -1    0    0    0  501 -0.00000000000E+00  0.00000000000E+00  0.80810077222E+03  0.80810077222E+03  0.00000000000E+00 0.  1.
          2   -1    0    0  501    0  0.00000000000E+00 -0.00000000000E+00 -0.24846188861E+04  0.24846188861E+04  0.00000000000E+00 0. -1.
         23    2    1    2    0    0 -0.13499621562E+04  0.33431504279E+03 -0.53284706204E+03  0.14921231333E+04  0.91329527765E+02 0.  0.
         13    1    3    3    0    0 -0.90791894825E+03  0.24272093361E+03 -0.40145981925E+03  0.10219590279E+04  0.00000000000E+00 0. -1.
        -13    1    3    3    0    0 -0.44204320791E+03  0.91594109180E+02 -0.13138724279E+03  0.47016410546E+03  0.00000000000E+00 0.  1.
         22    1    1    2    0    0  0.13499621562E+04 -0.33431504279E+03 -0.11436710518E+04  0.18005965249E+04  0.00000000000E+00 0. -1.
<mgrwt>
<rscale>  0 0.28339530E+04</rscale>
<asrwt>0</asrwt>
<pdfrwt beam="1">  1        2 0.38224905E+00 0.28339530E+04</pdfrwt>
<pdfrwt beam="2">  1       -2 0.12432320E+00 0.28339530E+04</pdfrwt>
<totfact> 0.14983753E+00</totfact>
</mgrwt>
</event>
<event>
 6    1  0.1014650E-006  0.5339480E+04  0.7818608E-02  0.7778171E-01
          1   -1    0    0  501    0  0.00000000000E+00  0.00000000000E+00  0.24939257108E+04  0.24939257108E+04  0.00000000000E+00 0. -1.
         -1   -1    0    0    0  501 -0.00000000000E+00 -0.00000000000E+00 -0.28579482173E+04  0.28579482173E+04  0.00000000000E+00 0.  1.
         23    2    1    2    0    0 -0.52900618934E+03 -0.13833380370E+03 -0.28004724085E+04  0.28548212826E+04  0.91515328996E+02 0.  0.
         13    1    3    3    0    0 -0.28855901204E+03 -0.28432431874E+02 -0.14421834996E+04  0.14710431513E+04  0.00000000000E+00 0.  1.
        -13    1    3    3    0    0 -0.24044717730E+03 -0.10990137182E+03 -0.13582889089E+04  0.13837781313E+04  0.00000000000E+00 0. -1.
         22    1    1    2    0    0  0.52900618934E+03  0.13833380370E+03  0.24364499020E+04  0.24970526455E+04  0.00000000000E+00 0. -1.
<mgrwt>
<rscale>  0 0.53394796E+04</rscale>
<asrwt>0</asrwt>
<pdfrwt beam="1">  1        1 0.38368088E+00 0.53394796E+04</pdfrwt>
<pdfrwt beam="2">  1       -1 0.43968434E+00 0.53394796E+04</pdfrwt>
<totfact> 0.36745640E-03</totfact>
</mgrwt>
</event>
<event>
 6    1  0.1014650E-006  0.1455077E+04  0.7818608E-02  0.8914888E-01
         -1   -1    0    0    0  501 -0.00000000000E+00  0.00000000000E+00  0.62180153717E+03  0.62180153717E+03  0.00000000000E+00 0.  1.
          1   -1    0    0  501    0  0.00000000000E+00 -0.00000000000E+00 -0.85125613187E+03  0.85125613187E+03  0.00000000000E+00 0. -1.
         23    2    1    2    0    0 -0.51217688243E+03 -0.13200708117E+03 -0.61592616590E+03  0.81799179165E+03  0.99972501192E+02 0.  0.
         11    1    3    3    0    0 -0.42000192003E+03 -0.10439075304E+03 -0.55620044694E+03  0.70473965358E+03  0.00000000000E+00 0. -1.
        -11    1    3    3    0    0 -0.92174962405E+02 -0.27616328127E+02 -0.59725718960E+02  0.11325213808E+03  0.00000000000E+00 0.  1.
         22    1    1    2    0    0  0.51217688243E+03  0.13200708117E+03  0.38647157120E+03  0.65506587739E+03  0.00000000000E+00 0.  1.
<mgrwt>
<rscale>  0 0.14550771E+04</rscale>
<asrwt>0</asrwt>
<pdfrwt beam="1">  1        1 0.13096248E+00 0.14550771E+04</pdfrwt>
<pdfrwt beam="2">  1       -1 0.95661775E-01 0.14550771E+04</pdfrwt>
<totfact> 0.20454109E+01</totfact>
</mgrwt>
</event>
<event>
 6    1  0.1014650E-006  0.1787616E+04  0.7818608E-02  0.8712913E-01
         -2   -1    0    0    0  501 -0.00000000000E+00  0.00000000000E+00  0.44580563586E+03  0.44580563586E+03  0.00000000000E+00 0.  1.
          2   -1    0    0  501    0  0.00000000000E+00 -0.00000000000E+00 -0.17920205200E+04  0.17920205200E+04  0.00000000000E+00 0. -1.
         23    2    1    2    0    0 -0.21148275931E+01  0.74026492564E+03 -0.52900069107E+02  0.74763830078E+03  0.90376871231E+02 0.  0.
         11    1    3    3    0    0 -0.91630765574E+01  0.21370449618E+03 -0.55657928877E+02  0.22102347999E+03  0.00000000000E+00 0. -1.
        -11    1    3    3    0    0  0.70482489644E+01  0.52656042947E+03  0.27578597695E+01  0.52661482080E+03  0.00000000000E+00 0.  1.
         22    1    1    2    0    0  0.21148275931E+01 -0.74026492564E+03 -0.12933148151E+04  0.14901878551E+04  0.00000000000E+00 0. -1.
<mgrwt>
<rscale>  0 0.17876161E+04</rscale>
<asrwt>0</asrwt>
<pdfrwt beam="1">  1        2 0.27569547E+00 0.17876161E+04</pdfrwt>
<pdfrwt beam="2">  1       -2 0.68585481E-01 0.17876161E+04</pdfrwt>
<totfact> 0.16009254E+01</totfact>
</mgrwt>
</event>
<event>
 6    1  0.1014650E-006  0.9961554E+03  0.7818608E-02  0.9312772E-01
          2   -1    0    0  501    0  0.00000000000E+00  0.00000000000E+00  0.15845418112E+04  0.15845418112E+04  0.00000000000E+00 0. -1.
         -2   -1    0    0    0  501 -0.00000000000E+00 -0.00000000000E+00 -0.15656349167E+03  0.15656349167E+03  0.00000000000E+00 0.  1.
         23    2    1    2    0    0  0.37247220930E+03  0.29231601190E+03  0.96560248697E+03  0.10793080469E+04  0.91288004086E+02 0.  0.
         13    1    3    3    0    0  0.11831127528E+02  0.19517734505E+00  0.65898954174E+02  0.66952862777E+02  0.00000000000E+00 0. -1.
        -13    1    3    3    0    0  0.36064108177E+03  0.29212083456E+03  0.89970353280E+03  0.10123551841E+04  0.00000000000E+00 0.  1.
         22    1    1    2    0    0 -0.37247220930E+03 -0.29231601190E+03  0.46237583256E+03  0.66179725600E+03  0.00000000000E+00 0. -1.
<mgrwt>
<rscale>  0 0.99615541E+03</rscale>
<asrwt>0</asrwt>
<pdfrwt beam="1">  1        2 0.24377565E+00 0.99615541E+03</pdfrwt>
<pdfrwt beam="2">  1       -2 0.24086692E-01 0.99615541E+03</pdfrwt>
<totfact> 0.17427511E+02</totfact>
</mgrwt>
</event>
<event>
 6    1  0.1014650E-006  0.1795073E+04  0.7818608E-02  0.8708924E-01
          2   -1    0    0  501    0  0.00000000000E+00  0.00000000000E+00  0.17245935089E+04  0.17245935089E+04  0.00000000000E+00 0. -1.
         -2   -1    0    0    0  501 -0.00000000000E+00 -0.00000000000E+00 -0.46710821039E+03  0.46710821039E+03  0.00000000000E+00 0.  1.
         23    2    1    2    0    0  0.36987000954E+03  0.59420649524E+03 -0.54350626666E+02  0.70482624450E+03  0.62776280415E+02 0.  0.
         13    1    3    3    0    0  0.21010664681E+03  0.39032334136E+03 -0.22469242582E+02  0.44384905171E+03  0.00000000000E+00 0. -1.
        -13    1    3    3    0    0  0.15976336273E+03  0.20388315387E+03 -0.31881384085E+02  0.26097719279E+03  0.00000000000E+00 0.  1.
         22    1    1    2    0    0 -0.36987000954E+03 -0.59420649524E+03  0.13118359251E+04  0.14868754748E+04  0.00000000000E+00 0. -1.
<mgrwt>
<rscale>  0 0.17950730E+04</rscale>
<asrwt>0</asrwt>
<pdfrwt beam="1">  1        2 0.26532208E+00 0.17950730E+04</pdfrwt>
<pdfrwt beam="2">  1       -2 0.71862802E-01 0.17950730E+04</pdfrwt>
<totfact> 0.15748011E+01</totfact>
</mgrwt>
</event>
<event>
 6    1  0.1014650E-006  0.3030000E+04  0.7818608E-02  0.8235216E-01
         -2   -1    0    0    0  501 -0.00000000000E+00  0.00000000000E+00  0.14423411211E+04  0.14423411211E+04  0.00000000000E+00 0.  1.
          2   -1    0    0  501    0  0.00000000000E+00 -0.00000000000E+00 -0.15913186851E+04  0.15913186851E+04  0.00000000000E+00 0. -1.
         23    2    1    2    0    0  0.65424696566E+03 -0.11339750056E+04  0.68607727446E+03  0.14808381845E+04  0.90781588395E+02 0.  0.
         13    1    3    3    0    0  0.41485397026E+03 -0.63394018490E+03  0.38012023594E+03  0.84762926356E+03  0.00000000000E+00 0.  1.
        -13    1    3    3    0    0  0.23939299539E+03 -0.50003482070E+03  0.30595703852E+03  0.63320892096E+03  0.00000000000E+00 0. -1.
         22    1    1    2    0    0 -0.65424696566E+03  0.11339750056E+04 -0.83505483852E+03  0.15528216217E+04  0.00000000000E+00 0. -1.
<mgrwt>
<rscale>  0 0.30299996E+04</rscale>
<asrwt>0</asrwt>
<pdfrwt beam="1">  1        2 0.24481826E+00 0.30299996E+04</pdfrwt>
<pdfrwt beam="2">  1       -2 0.22189863E+00 0.30299996E+04</pdfrwt>
<totfact> 0.92587332E-01</totfact>
</mgrwt>
</event>
<event>
 6    1  0.1014650E-006  0.3755066E+04  0.7818608E-02  0.8055867E-01
          2   -1    0    0  501    0  0.00000000000E+00  0.00000000000E+00  0.19976196793E+04  0.19976196793E+04  0.00000000000E+00 0. -1.
         -2   -1    0    0    0  501 -0.00000000000E+00 -0.00000000000E+00 -0.17646649398E+04  0.17646649398E+04  0.00000000000E+00 0.  1.
         23    2    1    2    0    0 -0.75408912217E+03 -0.14913210984E+04  0.97127743231E+03  0.19353173447E+04  0.96872861909E+02 0.  0.
         11    1    3    3    0    0 -0.51811087722E+03 -0.96971692925E+03  0.59356959113E+03  0.12494457425E+04  0.00000000000E+00 0.  1.
        -11    1    3    3    0    0 -0.23597824496E+03 -0.52160416918E+03  0.37770784118E+03  0.68587160219E+03  0.00000000000E+00 0. -1.
         22    1    1    2    0    0  0.75408912217E+03  0.14913210984E+04 -0.73832269279E+03  0.18269672743E+04  0.00000000000E+00 0.  1.
<mgrwt>
<rscale>  0 0.37550656E+04</rscale>
<asrwt>0</asrwt>
<pdfrwt beam="1">  1        2 0.30732611E+00 0.37550656E+04</pdfrwt>
<pdfrwt beam="2">  1       -2 0.27148691E+00 0.37550656E+04</pdfrwt>
<totfact> 0.25600017E-01</totfact>
</mgrwt>
</event>
<event>
 6    1  0.1014650E-006  0.4012601E+04  0.7818608E-02  0.8002009E-01
         -2   -1    0    0    0  501 -0.00000000000E+00  0.00000000000E+00  0.15398804169E+04  0.15398804169E+04  0.00000000000E+00 0.  1.
          2   -1    0    0  501    0  0.00000000000E+00 -0.00000000000E+00 -0.26139962034E+04  0.26139962034E+04  0.00000000000E+00 0. -1.
         23    2    1    2    0    0 -0.91272545111E+02  0.11272015580E+04  0.11769252838E+04  0.16347299533E+04  0.90966294314E+02 0.  0.
         13    1    3    3    0    0 -0.77762763815E+02  0.56540947045E+03  0.54626205444E+03  0.79002351158E+03  0.00000000000E+00 0. -1.
        -13    1    3    3    0    0 -0.13509781296E+02  0.56179208752E+03  0.63066322936E+03  0.84470644171E+03  0.00000000000E+00 0.  1.
         22    1    1    2    0    0  0.91272545111E+02 -0.11272015580E+04 -0.22510410703E+04  0.25191466670E+04  0.00000000000E+00 0. -1.
<mgrwt>
<rscale>  0 0.40126009E+04</rscale>
<asrwt>0</asrwt>
<pdfrwt beam="1">  1        2 0.40215326E+00 0.40126009E+04</pdfrwt>
<pdfrwt beam="2">  1       -2 0.23690468E+00 0.40126009E+04</pdfrwt>
<totfact> 0.18218862E-01</totfact>
</mgrwt>
</event>
<event>
 6    1  0.1014650E-006  0.3214641E+04  0.7818608E-02  0.8184961E-01
         -2   -1    0    0    0  501 -0.00000000000E+00  0.00000000000E+00  0.11744872198E+04  0.11744872198E+04  0.00000000000E+00 0.  1.
          2   -1    0    0  501    0  0.00000000000E+00 -0.00000000000E+00 -0.21996661556E+04  0.21996661556E+04  0.00000000000E+00 0. -1.
         23    2    1    2    0    0 -0.99735478916E+03 -0.95330619749E+03 -0.13758842131E+04  0.19506002597E+04  0.90965507353E+02 0.  0.
         13    1    3    3    0    0 -0.34687023939E+03 -0.32357731343E+03 -0.53437790626E+03  0.71454949964E+03  0.00000000000E+00 0. -1.
        -13    1    3    3    0    0 -0.65048454977E+03 -0.62972888406E+03 -0.84150630685E+03  0.12360507600E+04  0.00000000000E+00 0.  1.
         22    1    1    2    0    0  0.99735478916E+03  0.95330619749E+03  0.35070527727E+03  0.14235531157E+04  0.00000000000E+00 0.  1.
<mgrwt>
<rscale>  0 0.32146414E+04</rscale>
<asrwt>0</asrwt>
<pdfrwt beam="1">  1        2 0.33841017E+00 0.32146414E+04</pdfrwt>
<pdfrwt beam="2">  1       -2 0.18069034E+00 0.32146414E+04</pdfrwt>
<totfact> 0.77924740E-01</totfact>
</mgrwt>
</event>
<event>
 6    1  0.1014650E-006  0.2410159E+04  0.7818608E-02  0.8435710E-01
         -2   -1    0    0    0  501 -0.00000000000E+00  0.00000000000E+00  0.12559891112E+04  0.12559891112E+04  0.00000000000E+00 0.  1.
          2   -1    0    0  501    0  0.00000000000E+00 -0.00000000000E+00 -0.11562331050E+04  0.11562331050E+04  0.00000000000E+00 0. -1.
         23    2    1    2    0    0  0.85037027972E+03  0.51007752109E+02  0.90067246469E+03  0.12429495461E+04  0.89338022092E+02 0.  0.
         13    1    3    3    0    0  0.55595017287E+03  0.58068519056E+00  0.62486824185E+03  0.83638582699E+03  0.00000000000E+00 0. -1.
        -13    1    3    3    0    0  0.29442010686E+03  0.50427066919E+02  0.27580422284E+03  0.40656371916E+03  0.00000000000E+00 0.  1.
         22    1    1    2    0    0 -0.85037027972E+03 -0.51007752109E+02 -0.80091645852E+03  0.11692726701E+04  0.00000000000E+00 0. -1.
<mgrwt>
<rscale>  0 0.24101587E+04</rscale>
<asrwt>0</asrwt>
<pdfrwt beam="1">  1        2 0.17788202E+00 0.24101587E+04</pdfrwt>
<pdfrwt beam="2">  1       -2 0.19322909E+00 0.24101587E+04</pdfrwt>
<totfact> 0.26666043E+00</totfact>
</mgrwt>
</event>
<event>
 6    1  0.1014650E-006  0.2687587E+04  0.7818608E-02  0.8339044E-01
         -2   -1    0    0    0  501 -0.00000000000E+00  0.00000000000E+00  0.12276354911E+04  0.12276354911E+04  0.00000000000E+00 0.  1.
          2   -1    0    0  501    0  0.00000000000E+00 -0.00000000000E+00 -0.14709426647E+04  0.14709426647E+04  0.00000000000E+00 0. -1.
         23    2    1    2    0    0 -0.10371496102E+04 -0.23624513209E+01 -0.97731647485E+03  0.14279662759E+04  0.90858670610E+02 0.  0.
         13    1    3    3    0    0 -0.70900027659E+03  0.15220687649E+02 -0.71989247334E+03  0.10105237428E+04  0.00000000000E+00 0. -1.
        -13    1    3    3    0    0 -0.32814933358E+03 -0.17583138970E+02 -0.25742400152E+03  0.41744253313E+03  0.00000000000E+00 0.  1.
         22    1    1    2    0    0  0.10371496102E+04  0.23624513209E+01  0.73400930128E+03  0.12706118799E+04  0.00000000000E+00 0.  1.
<mgrwt>
<rscale>  0 0.26875873E+04</rscale>
<asrwt>0</asrwt>
<pdfrwt beam="1">  1        2 0.22629887E+00 0.26875873E+04</pdfrwt>
<pdfrwt beam="2">  1       -2 0.18886700E+00 0.26875873E+04</pdfrwt>
<totfact> 0.18265933E+00</totfact>
</mgrwt>
</event>
<event>
 6    1  0.1014650E-006  0.4585429E+04  0.7818608E-02  0.7895849E-01
          2   -1    0    0  501    0  0.00000000000E+00  0.00000000000E+00  0.29919519703E+04  0.29919519703E+04  0.00000000000E+00 0. -1.
         -2   -1    0    0    0  501 -0.00000000000E+00 -0.00000000000E+00 -0.17568933560E+04  0.17568933560E+04  0.00000000000E+00 0.  1.
         23    2    1    2    0    0  0.19406011802E+04 -0.11582395252E+04  0.10118629121E+04  0.24778834024E+04  0.92670732091E+02 0.  0.
         13    1    3    3    0    0  0.43558331660E+03 -0.30233605846E+03  0.22113342645E+03  0.57449100101E+03  0.00000000000E+00 0.  1.
        -13    1    3    3    0    0  0.15050178636E+04 -0.85590346675E+03  0.79072948565E+03  0.19033924014E+04  0.00000000000E+00 0. -1.
         22    1    1    2    0    0 -0.19406011802E+04  0.11582395252E+04  0.22319570222E+03  0.22709619239E+04  0.00000000000E+00 0.  1.
<mgrwt>
<rscale>  0 0.45854293E+04</rscale>
<asrwt>0</asrwt>
<pdfrwt beam="1">  1        2 0.46030030E+00 0.45854293E+04</pdfrwt>
<pdfrwt beam="2">  1       -2 0.27029129E+00 0.45854293E+04</pdfrwt>
<totfact> 0.63948948E-02</totfact>
</mgrwt>
</event>
<event>
 6    1  0.1014650E-006  0.2278878E+04  0.7818608E-02  0.8486296E-01
         -1   -1    0    0    0  501 -0.00000000000E+00  0.00000000000E+00  0.73565775520E+03  0.73565775520E+03  0.00000000000E+00 0.  1.
          1   -1    0    0  501    0  0.00000000000E+00 -0.00000000000E+00 -0.17648443215E+04  0.17648443215E+04  0.00000000000E+00 0. -1.
         23    2    1    2    0    0 -0.86160734223E+03 -0.25461072980E+03 -0.12813276627E+04  0.15673520521E+04  0.87166737533E+02 0.  0.
         13    1    3    3    0    0 -0.73801294792E+03 -0.19477104844E+03 -0.10458227729E+04  0.12947370949E+04  0.00000000000E+00 0. -1.
        -13    1    3    3    0    0 -0.12359439431E+03 -0.59839681364E+02 -0.23550488981E+03  0.27261495721E+03  0.00000000000E+00 0.  1.
         22    1    1    2    0    0  0.86160734223E+03  0.25461072980E+03  0.25214109639E+03  0.93315002460E+03  0.00000000000E+00 0.  1.
<mgrwt>
<rscale>  0 0.22788782E+04</rscale>
<asrwt>0</asrwt>
<pdfrwt beam="1">  1        1 0.27151451E+00 0.22788782E+04</pdfrwt>
<pdfrwt beam="2">  1       -1 0.11317812E+00 0.22788782E+04</pdfrwt>
<totfact> 0.27797207E+00</totfact>
</mgrwt>
</event>
<event>
 6    1  0.1014650E-006  0.1015324E+04  0.7818608E-02  0.9291895E-01
          1   -1    0    0  501    0  0.00000000000E+00  0.00000000000E+00  0.65340755978E+03  0.65340755978E+03  0.00000000000E+00 0. -1.
         -1   -1    0    0    0  501 -0.00000000000E+00 -0.00000000000E+00 -0.39442586847E+03  0.39442586847E+03  0.00000000000E+00 0.  1.
         23    2    1    2    0    0  0.80498451239E+02 -0.11041604356E+03  0.63083600989E+03  0.65166763268E+03  0.89693527015E+02 0.  0.
         13    1    3    3    0    0  0.36536096870E+01 -0.81030007174E+02  0.30378532308E+03  0.31442762832E+03  0.00000000000E+00 0.  1.
        -13    1    3    3    0    0  0.76844841552E+02 -0.29386036387E+02  0.32705068680E+03  0.33724000437E+03  0.00000000000E+00 0. -1.
         22    1    1    2    0    0 -0.80498451239E+02  0.11041604356E+03 -0.37185431858E+03  0.39616579557E+03  0.00000000000E+00 0.  1.
<mgrwt>
<rscale>  0 0.10153243E+04</rscale>
<asrwt>0</asrwt>
<pdfrwt beam="1">  1        1 0.10052424E+00 0.10153243E+04</pdfrwt>
<pdfrwt beam="2">  1       -1 0.60680903E-01 0.10153243E+04</pdfrwt>
<totfact> 0.83389755E+01</totfact>
</mgrwt>
</event>
<event>
 6    1  0.1014650E-006  0.2500072E+04  0.7818608E-02  0.8402960E-01
          1   -1    0    0  501    0  0.00000000000E+00  0.00000000000E+00  0.11879075867E+04  0.11879075867E+04  0.00000000000E+00 0. -1.
         -1   -1    0    0    0  501 -0.00000000000E+00 -0.00000000000E+00 -0.13154136255E+04  0.13154136255E+04  0.00000000000E+00 0.  1.
         23    2    1    2    0    0 -0.11277218552E+04 -0.46895030720E+03 -0.32338967508E+03  0.12663728008E+04  0.86303043944E+02 0.  0.
         11    1    3    3    0    0 -0.47052579295E+03 -0.23136753179E+03 -0.11059132769E+03  0.53586929223E+03  0.00000000000E+00 0.  1.
        -11    1    3    3    0    0 -0.65719606228E+03 -0.23758277541E+03 -0.21279834739E+03  0.73050350861E+03  0.00000000000E+00 0. -1.
         22    1    1    2    0    0  0.11277218552E+04  0.46895030720E+03  0.19588363637E+03  0.12369484114E+04  0.00000000000E+00 0.  1.
<mgrwt>
<rscale>  0 0.25000719E+04</rscale>
<asrwt>0</asrwt>
<pdfrwt beam="1">  1        1 0.18275501E+00 0.25000719E+04</pdfrwt>
<pdfrwt beam="2">  1       -1 0.20237133E+00 0.25000719E+04</pdfrwt>
<totfact> 0.14044207E+00</totfact>
</mgrwt>
</event>
<event>
 6    1  0.1014650E-006  0.2018751E+04  0.7818608E-02  0.8597904E-01
         -1   -1    0    0    0  501 -0.00000000000E+00  0.00000000000E+00  0.84314665415E+03  0.84314665415E+03  0.00000000000E+00 0.  1.
          1   -1    0    0  501    0  0.00000000000E+00 -0.00000000000E+00 -0.12083767901E+04  0.12083767901E+04  0.00000000000E+00 0. -1.
         23    2    1    2    0    0 -0.97014327066E+03  0.58183828557E+02 -0.45244691251E+03  0.10757314123E+04  0.89031113654E+02 0.  0.
         11    1    3    3    0    0 -0.66370967706E+03  0.77688369843E+02 -0.29149904739E+03  0.72905261323E+03  0.00000000000E+00 0.  1.
        -11    1    3    3    0    0 -0.30643359360E+03 -0.19504541287E+02 -0.16094786512E+03  0.34667879904E+03  0.00000000000E+00 0. -1.
         22    1    1    2    0    0  0.97014327066E+03 -0.58183828557E+02  0.87216776578E+02  0.97579203196E+03  0.00000000000E+00 0.  1.
<mgrwt>
<rscale>  0 0.20187509E+04</rscale>
<asrwt>0</asrwt>
<pdfrwt beam="1">  1        1 0.18590412E+00 0.20187509E+04</pdfrwt>
<pdfrwt beam="2">  1       -1 0.12971487E+00 0.20187509E+04</pdfrwt>
<totfact> 0.49766692E+00</totfact>
</mgrwt>
</event>
<event>
 6    1  0.1014650E-006  0.2111372E+04  0.7818608E-02  0.8556250E-01
          2   -1    0    0  501    0  0.00000000000E+00  0.00000000000E+00  0.46873066658E+04  0.46873066658E+04  0.00000000000E+00 0. -1.
         -2   -1    0    0    0  501 -0.00000000000E+00 -0.00000000000E+00 -0.23776409231E+03  0.23776409231E+03  0.00000000000E+00 0.  1.
         23    2    1    2    0    0 -0.39069783360E+03 -0.81945176498E+03  0.98040379176E+03  0.13391162298E+04  0.88852066307E+02 0.  0.
         13    1    3    3    0    0 -0.36745526673E+03 -0.78672504834E+03  0.90815400382E+03  0.12564646312E+04  0.00000000000E+00 0.  1.
        -13    1    3    3    0    0 -0.23242566867E+02 -0.32726716635E+02  0.72249787944E+02  0.82651598619E+02  0.00000000000E+00 0. -1.
         22    1    1    2    0    0  0.39069783360E+03  0.81945176498E+03  0.34691387817E+04  0.35859545283E+04  0.00000000000E+00 0. -1.
<mgrwt>
<rscale>  0 0.21113723E+04</rscale>
<asrwt>0</asrwt>
<pdfrwt beam="1">  1        2 0.72112404E+00 0.21113723E+04</pdfrwt>
<pdfrwt beam="2">  1       -2 0.36579095E-01 0.21113723E+04</pdfrwt>
<totfact> 0.52144358E-01</totfact>
</mgrwt>
</event>
<event>
 6    1  0.1014650E-006  0.5651934E+03  0.7818608E-02  0.9980372E-01
         -1   -1    0    0    0  501 -0.00000000000E+00  0.00000000000E+00  0.26961531585E+03  0.26961531585E+03  0.00000000000E+00 0.  1.
          1   -1    0    0  501    0  0.00000000000E+00 -0.00000000000E+00 -0.29620308030E+03  0.29620308030E+03  0.00000000000E+00 0. -1.
         23    2    1    2    0    0 -0.16095665353E+02  0.14927861417E+03  0.21764230982E+03  0.27912778892E+03  0.89448155010E+02 0.  0.
         11    1    3    3    0    0 -0.47902160295E+02  0.12400625666E+03  0.15199529169E+03  0.20192755470E+03  0.00000000000E+00 0. -1.
        -11    1    3    3    0    0  0.31806494942E+02  0.25272357505E+02  0.65647018132E+02  0.77200234223E+02  0.00000000000E+00 0.  1.
         22    1    1    2    0    0  0.16095665353E+02 -0.14927861417E+03 -0.24423007427E+03  0.28669060722E+03  0.00000000000E+00 0. -1.
<mgrwt>
<rscale>  0 0.56519337E+03</rscale>
<asrwt>0</asrwt>
<pdfrwt beam="1">  1        1 0.45569705E-01 0.56519337E+03</pdfrwt>
<pdfrwt beam="2">  1       -1 0.41479279E-01 0.56519337E+03</pdfrwt>
<totfact> 0.51345360E+02</totfact>
</mgrwt>
</event>
<event>
 6    1  0.1014650E-006  0.3167921E+04  0.7818608E-02  0.8197341E-01
         -1   -1    0    0    0  501 -0.00000000000E+00  0.00000000000E+00  0.15535647691E+04  0.15535647691E+04  0.00000000000E+00 0.  1.
          1   -1    0    0  501    0  0.00000000000E+00 -0.00000000000E+00 -0.16149504836E+04  0.16149504836E+04  0.00000000000E+00 0. -1.
         23    2    1    2    0    0  0.51193176303E+03 -0.39928946218E+02 -0.15280740465E+04  0.16145387039E+04  0.89757918194E+02 0.  0.
         13    1    3    3    0    0  0.52040819204E+02 -0.86311438207E+01 -0.25963925161E+03  0.26494392705E+03  0.00000000000E+00 0. -1.
        -13    1    3    3    0    0  0.45989094382E+03 -0.31297802398E+02 -0.12684347949E+04  0.13495947768E+04  0.00000000000E+00 0.  1.
         22    1    1    2    0    0 -0.51193176303E+03  0.39928946218E+02  0.14666883321E+04  0.15539765488E+04  0.00000000000E+00 0.  1.
<mgrwt>
<rscale>  0 0.31679206E+04</rscale>
<asrwt>0</asrwt>
<pdfrwt beam="1">  1        1 0.24845392E+00 0.31679206E+04</pdfrwt>
<pdfrwt beam="2">  1       -1 0.23900997E+00 0.31679206E+04</pdfrwt>
<totfact> 0.37628379E-01</totfact>
</mgrwt>
</event>
<event>
 6    1  0.1014650E-006  0.1128722E+04  0.7818608E-02  0.9177641E-01
          1   -1    0    0  501    0  0.00000000000E+00  0.00000000000E+00  0.16968252253E+03  0.16968252253E+03  0.00000000000E+00 0. -1.
         -1   -1    0    0    0  501 -0.00000000000E+00 -0.00000000000E+00 -0.18770554935E+04  0.18770554935E+04  0.00000000000E+00 0.  1.
         23    2    1    2    0    0 -0.27665149079E+03  0.43470769038E+03 -0.12604750270E+04  0.13646642695E+04  0.89467598872E+02 0.  0.
         11    1    3    3    0    0 -0.13626151075E+03  0.13882750274E+03 -0.51025746601E+03  0.54607962464E+03  0.00000000000E+00 0.  1.
        -11    1    3    3    0    0 -0.14038998004E+03  0.29588018764E+03 -0.75021756098E+03  0.81858464482E+03  0.00000000000E+00 0. -1.
         22    1    1    2    0    0  0.27665149079E+03 -0.43470769038E+03 -0.44689794401E+03  0.68207374659E+03  0.00000000000E+00 0. -1.
<mgrwt>
<rscale>  0 0.11287223E+04</rscale>
<asrwt>0</asrwt>
<pdfrwt beam="1">  1        1 0.26105005E-01 0.11287223E+04</pdfrwt>
<pdfrwt beam="2">  1       -1 0.28877775E+00 0.11287223E+04</pdfrwt>
<totfact> 0.72167327E+00</totfact>
</mgrwt>
</event>
<event>
 6    1  0.1014650E-006  0.1984959E+04  0.7818608E-02  0.8613685E-01
         -2   -1    0    0    0  501 -0.00000000000E+00  0.00000000000E+00  0.10080575216E+04  0.10080575216E+04  0.00000000000E+00 0.  1.
          2   -1    0    0  501    0  0.00000000000E+00 -0.00000000000E+00 -0.97714215716E+03  0.97714215716E+03  0.00000000000E+00 0. -1.
         23    2    1    2    0    0  0.22111869112E+03 -0.93628076377E+03  0.25058121270E+03  0.99840272447E+03  0.92205812695E+02 0.  0.
         11    1    3    3    0    0  0.84359046249E+02 -0.49406404223E+03  0.95481713373E+02  0.51022787468E+03  0.00000000000E+00 0. -1.
        -11    1    3    3    0    0  0.13675964487E+03 -0.44221672154E+03  0.15509949933E+03  0.48817484979E+03  0.00000000000E+00 0.  1.
         22    1    1    2    0    0 -0.22111869112E+03  0.93628076377E+03 -0.21966584823E+03  0.98679695432E+03  0.00000000000E+00 0. -1.
<mgrwt>
<rscale>  0 0.19849589E+04</rscale>
<asrwt>0</asrwt>
<pdfrwt beam="1">  1        2 0.15032956E+00 0.19849589E+04</pdfrwt>
<pdfrwt beam="2">  1       -2 0.15508577E+00 0.19849589E+04</pdfrwt>
<totfact> 0.66440056E+00</totfact>
</mgrwt>
</event>
<event>
 6    1  0.1014650E-006  0.1173569E+04  0.7818608E-02  0.9136312E-01
          1   -1    0    0  501    0  0.00000000000E+00  0.00000000000E+00  0.33428951304E+03  0.33428951304E+03  0.00000000000E+00 0. -1.
         -1   -1    0    0    0  501 -0.00000000000E+00 -0.00000000000E+00 -0.10299928776E+04  0.10299928776E+04  0.00000000000E+00 0.  1.
         23    2    1    2    0    0  0.15423000243E+03  0.27058125551E+03 -0.92317719488E+03  0.97860706991E+03  0.91730881608E+02 0.  0.
         11    1    3    3    0    0  0.94728608831E+02  0.10420732085E+03 -0.31018887475E+03  0.34066084757E+03  0.00000000000E+00 0.  1.
        -11    1    3    3    0    0  0.59501393601E+02  0.16637393466E+03 -0.61298832013E+03  0.63794622234E+03  0.00000000000E+00 0. -1.
         22    1    1    2    0    0 -0.15423000243E+03 -0.27058125551E+03  0.22747383036E+03  0.38567532069E+03  0.00000000000E+00 0. -1.
<mgrwt>
<rscale>  0 0.11735686E+04</rscale>
<asrwt>0</asrwt>
<pdfrwt beam="1">  1        1 0.51429156E-01 0.11735686E+04</pdfrwt>
<pdfrwt beam="2">  1       -1 0.15846044E+00 0.11735686E+04</pdfrwt>
<totfact> 0.22649663E+01</totfact>
</mgrwt>
</event>
<event>
 6    1  0.1014650E-006  0.2420721E+04  0.7818608E-02  0.8431787E-01
          3   -1    0    0  501    0  0.00000000000E+00  0.00000000000E+00  0.12007216461E+04  0.12007216461E+04  0.00000000000E+00 0. -1.
         -3   -1    0    0    0  501 -0.00000000000E+00 -0.00000000000E+00 -0.12200762939E+04  0.12200762939E+04  0.00000000000E+00 0.  1.
         23    2    1    2    0    0 -0.11880049423E+04 -0.37164468426E+02  0.20980951426E+03  0.12103215240E+04  0.90117802930E+02 0.  0.
         11    1    3    3    0    0 -0.60189197738E+03 -0.63033418680E+02  0.97582663356E+02  0.61300044086E+03  0.00000000000E+00 0.  1.
        -11    1    3    3    0    0 -0.58611296494E+03  0.25868950253E+02  0.11222685091E+03  0.59732108310E+03  0.00000000000E+00 0. -1.
         22    1    1    2    0    0  0.11880049423E+04  0.37164468426E+02 -0.22916416212E+03  0.12104764161E+04  0.00000000000E+00 0.  1.
<mgrwt>
<rscale>  0 0.24207206E+04</rscale>
<asrwt>0</asrwt>
<pdfrwt beam="1">  1        3 0.18472641E+00 0.24207206E+04</pdfrwt>
<pdfrwt beam="2">  1       -3 0.18770405E+00 0.24207206E+04</pdfrwt>
<totfact> 0.75937385E-02</totfact>
</mgrwt>
</event>
<event>
 6    1  0.1014650E-006  0.3377627E+04  0.7818608E-02  0.8143419E-01
         -1   -1    0    0    0  501 -0.00000000000E+00  0.00000000000E+00  0.18571269630E+04  0.18571269630E+04  0.00000000000E+00 0.  1.
          1   -1    0    0  501    0  0.00000000000E+00 -0.00000000000E+00 -0.15357544403E+04  0.15357544403E+04  0.00000000000E+00 0. -1.
         23    2    1    2    0    0  0.98005722988E+03  0.12740101057E+04 -0.35539929521E+03  0.16488533024E+04  0.93779690356E+02 0.  0.
         11    1    3    3    0    0  0.13593011318E+03  0.19026786976E+03 -0.84932696774E+02  0.24878187416E+03  0.00000000000E+00 0. -1.
        -11    1    3    3    0    0  0.84412711670E+03  0.10837422360E+04 -0.27046659843E+03  0.14000714282E+04  0.00000000000E+00 0.  1.
         22    1    1    2    0    0 -0.98005722988E+03 -0.12740101057E+04  0.67677181785E+03  0.17440281009E+04  0.00000000000E+00 0.  1.
<mgrwt>
<rscale>  0 0.33776270E+04</rscale>
<asrwt>0</asrwt>
<pdfrwt beam="1">  1        1 0.23626991E+00 0.33776270E+04</pdfrwt>
<pdfrwt beam="2">  1       -1 0.28571184E+00 0.33776270E+04</pdfrwt>
<totfact> 0.20815359E-01</totfact>
</mgrwt>
</event>
<event>
 6    1  0.1014650E-006  0.2950735E+04  0.7818608E-02  0.8257940E-01
         -1   -1    0    0    0  501 -0.00000000000E+00  0.00000000000E+00  0.12052339284E+04  0.12052339284E+04  0.00000000000E+00 0.  1.
          1   -1    0    0  501    0  0.00000000000E+00 -0.00000000000E+00 -0.18060469852E+04  0.18060469852E+04  0.00000000000E+00 0. -1.
         23    2    1    2    0    0  0.11956830179E+03  0.53992963100E+03  0.10935576621E+04  0.12289474098E+04  0.92858981987E+02 0.  0.
         13    1    3    3    0    0  0.12018863780E+03  0.49558534160E+03  0.10473549878E+04  0.11649045497E+04  0.00000000000E+00 0. -1.
        -13    1    3    3    0    0 -0.62033601614E+00  0.44344289399E+02  0.46202674340E+02  0.64042860143E+02  0.00000000000E+00 0.  1.
         22    1    1    2    0    0 -0.11956830179E+03 -0.53992963100E+03 -0.16943707189E+04  0.17823335037E+04  0.00000000000E+00 0. -1.
<mgrwt>
<rscale>  0 0.29507349E+04</rscale>
<asrwt>0</asrwt>
<pdfrwt beam="1">  1        1 0.27785338E+00 0.29507349E+04</pdfrwt>
<pdfrwt beam="2">  1       -1 0.18542061E+00 0.29507349E+04</pdfrwt>
<totfact> 0.65657879E-01</totfact>
</mgrwt>
</event>
<event>
 6    1  0.1014650E-006  0.4979859E+04  0.7818608E-02  0.7831622E-01
          2   -1    0    0  501    0  0.00000000000E+00  0.00000000000E+00  0.30796822620E+04  0.30796822620E+04  0.00000000000E+00 0. -1.
         -2   -1    0    0    0  501 -0.00000000000E+00 -0.00000000000E+00 -0.20131134538E+04  0.20131134538E+04  0.00000000000E+00 0.  1.
         23    2    1    2    0    0  0.24393487830E+04 -0.44200194966E+03  0.75507915100E+03  0.25942333261E+04  0.11880158921E+03 0.  0.
         13    1    3    3    0    0  0.11932647699E+04 -0.17086905323E+03  0.40787483800E+03  0.12725717771E+04  0.00000000000E+00 0. -1.
        -13    1    3    3    0    0  0.12460840131E+04 -0.27113289643E+03  0.34720431300E+03  0.13216615490E+04  0.00000000000E+00 0.  1.
         22    1    1    2    0    0 -0.24393487830E+04  0.44200194966E+03  0.31148965721E+03  0.24985623897E+04  0.00000000000E+00 0.  1.
<mgrwt>
<rscale>  0 0.49798594E+04</rscale>
<asrwt>0</asrwt>
<pdfrwt beam="1">  1        2 0.47379727E+00 0.49798594E+04</pdfrwt>
<pdfrwt beam="2">  1       -2 0.30970976E+00 0.49798594E+04</pdfrwt>
<totfact> 0.31306577E-02</totfact>
</mgrwt>
</event>
<event>
 6    1  0.1014650E-006  0.4440890E+04  0.7818608E-02  0.7921068E-01
          1   -1    0    0  501    0  0.00000000000E+00  0.00000000000E+00  0.22772003429E+04  0.22772003429E+04  0.00000000000E+00 0. -1.
         -1   -1    0    0    0  501 -0.00000000000E+00 -0.00000000000E+00 -0.21651044998E+04  0.21651044998E+04  0.00000000000E+00 0.  1.
         23    2    1    2    0    0  0.63669535032E+03 -0.88588565394E+03 -0.18773617083E+04  0.21733588959E+04  0.93955018710E+02 0.  0.
         13    1    3    3    0    0  0.28225437960E+03 -0.47237354615E+03 -0.95697866023E+03  0.11039078123E+04  0.00000000000E+00 0. -1.
        -13    1    3    3    0    0  0.35444097072E+03 -0.41351210779E+03 -0.92038304808E+03  0.10694510836E+04  0.00000000000E+00 0.  1.
         22    1    1    2    0    0 -0.63669535032E+03  0.88588565394E+03  0.19894575514E+04  0.22689459468E+04  0.00000000000E+00 0. -1.
<mgrwt>
<rscale>  0 0.44408903E+04</rscale>
<asrwt>0</asrwt>
<pdfrwt beam="1">  1        1 0.35033851E+00 0.44408903E+04</pdfrwt>
<pdfrwt beam="2">  1       -1 0.33309300E+00 0.44408903E+04</pdfrwt>
<totfact> 0.29264900E-02</totfact>
</mgrwt>
</event>
<event>
 6    1  0.1014650E-006  0.2254177E+04  0.7818608E-02  0.8496211E-01
          2   -1    0    0  501    0  0.00000000000E+00  0.00000000000E+00  0.13181695951E+04  0.13181695951E+04  0.00000000000E+00 0. -1.
         -2   -1    0    0    0  501 -0.00000000000E+00 -0.00000000000E+00 -0.96370634048E+03  0.96370634048E+03  0.00000000000E+00 0.  1.
         23    2    1    2    0    0 -0.91019234122E+03 -0.58492101037E+03 -0.13528610942E+03  0.10942576779E+04  0.92275933107E+02 0.  0.
         11    1    3    3    0    0 -0.69422773057E+03 -0.47668156466E+03 -0.76209640873E+02  0.84556807257E+03  0.00000000000E+00 0. -1.
        -11    1    3    3    0    0 -0.21596461065E+03 -0.10823944571E+03 -0.59076468543E+02  0.24868960532E+03  0.00000000000E+00 0.  1.
         22    1    1    2    0    0  0.91019234122E+03  0.58492101037E+03  0.48974936399E+03  0.11876182577E+04  0.00000000000E+00 0. -1.
<mgrwt>
<rscale>  0 0.22541769E+04</rscale>
<asrwt>0</asrwt>
<pdfrwt beam="1">  1        2 0.20279532E+00 0.22541769E+04</pdfrwt>
<pdfrwt beam="2">  1       -2 0.14826251E+00 0.22541769E+04</pdfrwt>
<totfact> 0.45373285E+00</totfact>
</mgrwt>
</event>
<event>
 6    1  0.1014650E-006  0.2219957E+04  0.7818608E-02  0.8510167E-01
          1   -1    0    0  501    0  0.00000000000E+00  0.00000000000E+00  0.24664669938E+04  0.24664669938E+04  0.00000000000E+00 0. -1.
         -1   -1    0    0    0  501 -0.00000000000E+00 -0.00000000000E+00 -0.49952106968E+03  0.49952106968E+03  0.00000000000E+00 0.  1.
         23    2    1    2    0    0 -0.10538364794E+03 -0.62224973693E+03  0.22024457591E+04  0.22923705009E+04  0.76777232132E+02 0.  0.
         13    1    3    3    0    0 -0.24235364468E+02 -0.18766802393E+03  0.79041025186E+03  0.81274535147E+03  0.00000000000E+00 0. -1.
        -13    1    3    3    0    0 -0.81148283473E+02 -0.43458171300E+03  0.14120355072E+04  0.14796251495E+04  0.00000000000E+00 0.  1.
         22    1    1    2    0    0  0.10538364794E+03  0.62224973693E+03 -0.23549983495E+03  0.67361756258E+03  0.00000000000E+00 0.  1.
<mgrwt>
<rscale>  0 0.22199570E+04</rscale>
<asrwt>0</asrwt>
<pdfrwt beam="1">  1        1 0.37945645E+00 0.22199570E+04</pdfrwt>
<pdfrwt beam="2">  1       -1 0.76849397E-01 0.22199570E+04</pdfrwt>
<totfact> 0.22095686E+00</totfact>
</mgrwt>
</event>
<event>
 6    1  0.1014650E-006  0.2029228E+04  0.7818608E-02  0.8593076E-01
         -2   -1    0    0    0  501 -0.00000000000E+00  0.00000000000E+00  0.40644193117E+03  0.40644193117E+03  0.00000000000E+00 0.  1.
          2   -1    0    0  501    0  0.00000000000E+00 -0.00000000000E+00 -0.25328129691E+04  0.25328129691E+04  0.00000000000E+00 0. -1.
         23    2    1    2    0    0  0.44848871611E+03  0.22708852138E+03 -0.23384915027E+04  0.23936301055E+04  0.90615942288E+02 0.  0.
         13    1    3    3    0    0  0.34759157000E+03  0.13187038838E+03 -0.17392962266E+04  0.17785840049E+04  0.00000000000E+00 0.  1.
        -13    1    3    3    0    0  0.10089714610E+03  0.95218132997E+02 -0.59919527611E+03  0.61504610060E+03  0.00000000000E+00 0. -1.
         22    1    1    2    0    0 -0.44848871611E+03 -0.22708852138E+03  0.21212046479E+03  0.54562479471E+03  0.00000000000E+00 0.  1.
<mgrwt>
<rscale>  0 0.20292278E+04</rscale>
<asrwt>0</asrwt>
<pdfrwt beam="1">  1        2 0.38966353E+00 0.20292278E+04</pdfrwt>
<pdfrwt beam="2">  1       -2 0.62529528E-01 0.20292278E+04</pdfrwt>
<totfact> 0.73292757E+00</totfact>
</mgrwt>
</event>
<event>
 6    1  0.1014650E-006  0.8937941E+03  0.7818608E-02  0.9433372E-01
         -1   -1    0    0    0  501 -0.00000000000E+00  0.00000000000E+00  0.24864696079E+03  0.24864696079E+03  0.00000000000E+00 0.  1.
          1   -1    0    0  501    0  0.00000000000E+00 -0.00000000000E+00 -0.80321504420E+03  0.80321504420E+03  0.00000000000E+00 0. -1.
         23    2    1    2    0    0 -0.32699379325E+03 -0.19951520708E+03 -0.22159682438E+02  0.39597332229E+03  0.97839469321E+02 0.  0.
         11    1    3    3    0    0 -0.17474160178E+03 -0.15260095548E+03  0.14659832838E+02  0.23245771595E+03  0.00000000000E+00 0.  1.
        -11    1    3    3    0    0 -0.15225219147E+03 -0.46914251604E+02 -0.36819515276E+02  0.16351560634E+03  0.00000000000E+00 0. -1.
         22    1    1    2    0    0  0.32699379325E+03  0.19951520708E+03 -0.53240840096E+03  0.65588868270E+03  0.00000000000E+00 0. -1.
<mgrwt>
<rscale>  0 0.89379411E+03</rscale>
<asrwt>0</asrwt>
<pdfrwt beam="1">  1        1 0.12357155E+00 0.89379411E+03</pdfrwt>
<pdfrwt beam="2">  1       -1 0.38253378E-01 0.89379411E+03</pdfrwt>
<totfact> 0.14616544E+02</totfact>
</mgrwt>
</event>
<event>
 6    1  0.1014650E-006  0.1116283E+04  0.7818608E-02  0.9189465E-01
          2   -1    0    0  501    0  0.00000000000E+00  0.00000000000E+00  0.24831953284E+04  0.24831953284E+04  0.00000000000E+00 0. -1.
         -2   -1    0    0    0  501 -0.00000000000E+00 -0.00000000000E+00 -0.12545209966E+03  0.12545209966E+03  0.00000000000E+00 0.  1.
         23    2    1    2    0    0  0.39916137127E+03  0.16340043740E+03  0.20008521560E+04  0.20488253661E+04  0.90810391998E+02 0.  0.
         13    1    3    3    0    0  0.41434211930E+02  0.51051987243E+02  0.28639607375E+03  0.29384657626E+03  0.00000000000E+00 0. -1.
        -13    1    3    3    0    0  0.35772715934E+03  0.11234845016E+03  0.17144560822E+04  0.17549787898E+04  0.00000000000E+00 0.  1.
         22    1    1    2    0    0 -0.39916137127E+03 -0.16340043740E+03  0.35689107274E+03  0.55982206196E+03  0.00000000000E+00 0.  1.
<mgrwt>
<rscale>  0 0.11162832E+04</rscale>
<asrwt>0</asrwt>
<pdfrwt beam="1">  1        2 0.38203001E+00 0.11162832E+04</pdfrwt>
<pdfrwt beam="2">  1       -2 0.19300325E-01 0.11162832E+04</pdfrwt>
<totfact> 0.80999306E+01</totfact>
</mgrwt>
</event>
<event>
 6    1  0.1014650E-006  0.6679179E+03  0.7818608E-02  0.9773726E-01
         -1   -1    0    0    0  501 -0.00000000000E+00  0.00000000000E+00  0.49870456561E+03  0.49870456561E+03  0.00000000000E+00 0.  1.
          1   -1    0    0  501    0  0.00000000000E+00 -0.00000000000E+00 -0.22363660352E+03  0.22363660352E+03  0.00000000000E+00 0. -1.
         23    2    1    2    0    0 -0.27548335034E+03  0.93507682989E+02 -0.22584837966E+02  0.30612974152E+03  0.92577430518E+02 0.  0.
         11    1    3    3    0    0  0.65826880002E+01  0.26199639197E+01  0.47413691411E+01  0.85250556350E+01  0.00000000000E+00 0.  1.
        -11    1    3    3    0    0 -0.28206603834E+03  0.90887719069E+02 -0.27326207107E+02  0.29760468588E+03  0.00000000000E+00 0. -1.
         22    1    1    2    0    0  0.27548335034E+03 -0.93507682989E+02  0.29765280006E+03  0.41621142762E+03  0.00000000000E+00 0. -1.
<mgrwt>
<rscale>  0 0.66791794E+03</rscale>
<asrwt>0</asrwt>
<pdfrwt beam="1">  1        1 0.34405631E-01 0.66791794E+03</pdfrwt>
<pdfrwt beam="2">  1       -1 0.76723779E-01 0.66791794E+03</pdfrwt>
<totfact> 0.22252045E+02</totfact>
</mgrwt>
</event>
<event>
 6    1  0.1014650E-006  0.2279546E+04  0.7818608E-02  0.8486030E-01
         -2   -1    0    0    0  501 -0.00000000000E+00  0.00000000000E+00  0.13378192348E+04  0.13378192348E+04  0.00000000000E+00 0.  1.
          2   -1    0    0  501    0  0.00000000000E+00 -0.00000000000E+00 -0.97104477188E+03  0.97104477188E+03  0.00000000000E+00 0. -1.
         23    2    1    2    0    0  0.20739425629E+03 -0.35722489418E+03 -0.89029307373E+03  0.98567059895E+03  0.91119536517E+02 0.  0.
         11    1    3    3    0    0  0.11378636544E+03 -0.16174991688E+03 -0.52378494069E+03  0.55987591185E+03  0.00000000000E+00 0. -1.
        -11    1    3    3    0    0  0.93607890851E+02 -0.19547497731E+03 -0.36650813304E+03  0.42579468711E+03  0.00000000000E+00 0.  1.
         22    1    1    2    0    0 -0.20739425629E+03  0.35722489418E+03  0.12570675367E+04  0.13231934078E+04  0.00000000000E+00 0.  1.
<mgrwt>
<rscale>  0 0.22795459E+04</rscale>
<asrwt>0</asrwt>
<pdfrwt beam="1">  1        2 0.14939150E+00 0.22795459E+04</pdfrwt>
<pdfrwt beam="2">  1       -2 0.20581834E+00 0.22795459E+04</pdfrwt>
<totfact> 0.29097715E+00</totfact>
</mgrwt>
</event>
<event>
 6    1  0.1014650E-006  0.1311983E+04  0.7818608E-02  0.9020116E-01
         -2   -1    0    0    0  501 -0.00000000000E+00  0.00000000000E+00  0.33359249839E+03  0.33359249839E+03  0.00000000000E+00 0.  1.
          2   -1    0    0  501    0  0.00000000000E+00 -0.00000000000E+00 -0.12899707914E+04  0.12899707914E+04  0.00000000000E+00 0. -1.
         23    2    1    2    0    0  0.32834018812E+02 -0.48972238813E+03  0.54384601415E+02  0.49993180262E+03  0.77897574885E+02 0.  0.
         13    1    3    3    0    0  0.33884697178E+02 -0.13533072799E+03 -0.94800926931E+01  0.13983007830E+03  0.00000000000E+00 0.  1.
        -13    1    3    3    0    0 -0.10506783657E+01 -0.35439166014E+03  0.63864694108E+02  0.36010172432E+03  0.00000000000E+00 0. -1.
         22    1    1    2    0    0 -0.32834018812E+02  0.48972238813E+03 -0.10107628945E+04  0.11236314872E+04  0.00000000000E+00 0. -1.
<mgrwt>
<rscale>  0 0.13119826E+04</rscale>
<asrwt>0</asrwt>
<pdfrwt beam="1">  1        2 0.19845704E+00 0.13119826E+04</pdfrwt>
<pdfrwt beam="2">  1       -2 0.51321924E-01 0.13119826E+04</pdfrwt>
<totfact> 0.58855156E+01</totfact>
</mgrwt>
</event>
<event>
 6    1  0.1014650E-006  0.9501855E+03  0.7818608E-02  0.9364934E-01
         -1   -1    0    0    0  501 -0.00000000000E+00  0.00000000000E+00  0.15038960146E+03  0.15038960146E+03  0.00000000000E+00 0.  1.
          1   -1    0    0  501    0  0.00000000000E+00 -0.00000000000E+00 -0.15008559047E+04  0.15008559047E+04  0.00000000000E+00 0. -1.
         23    2    1    2    0    0 -0.30942968437E+03  0.31243730668E+02 -0.12955887026E+04  0.13354378886E+04  0.90118631842E+02 0.  0.
         13    1    3    3    0    0 -0.43404220940E+02 -0.69452913496E+01 -0.33814743524E+03  0.34099245069E+03  0.00000000000E+00 0.  1.
        -13    1    3    3    0    0 -0.26602546343E+03  0.38189022017E+02 -0.95744126734E+03  0.99444543792E+03  0.00000000000E+00 0. -1.
         22    1    1    2    0    0  0.30942968437E+03 -0.31243730668E+02 -0.54877600696E+02  0.31580761760E+03  0.00000000000E+00 0.  1.
<mgrwt>
<rscale>  0 0.95018550E+03</rscale>
<asrwt>0</asrwt>
<pdfrwt beam="1">  1        1 0.23090090E+00 0.95018550E+03</pdfrwt>
<pdfrwt beam="2">  1       -1 0.23136862E-01 0.95018550E+03</pdfrwt>
<totfact> 0.10506237E+02</totfact>
</mgrwt>
</event>
<event>
 6    1  0.1014650E-006  0.2796464E+04  0.7818608E-02  0.8304367E-01
         -1   -1    0    0    0  501 -0.00000000000E+00  0.00000000000E+00  0.26770683144E+04  0.26770683144E+04  0.00000000000E+00 0.  1.
          1   -1    0    0  501    0  0.00000000000E+00 -0.00000000000E+00 -0.73029591131E+03  0.73029591131E+03  0.00000000000E+00 0. -1.
         23    2    1    2    0    0 -0.10328543380E+04  0.94038747201E+03  0.98849680663E+03  0.17134312873E+04  0.87201825896E+02 0.  0.
         11    1    3    3    0    0 -0.36770387314E+03  0.32828759439E+03  0.29869555175E+03  0.57636612981E+03  0.00000000000E+00 0.  1.
        -11    1    3    3    0    0 -0.66515046490E+03  0.61209987762E+03  0.68980125488E+03  0.11370651575E+04  0.00000000000E+00 0. -1.
         22    1    1    2    0    0  0.10328543380E+04 -0.94038747201E+03  0.95827559649E+03  0.16939329384E+04  0.00000000000E+00 0. -1.
<mgrwt>
<rscale>  0 0.27964635E+04</rscale>
<asrwt>0</asrwt>
<pdfrwt beam="1">  1        1 0.11235322E+00 0.27964635E+04</pdfrwt>
<pdfrwt beam="2">  1       -1 0.41185666E+00 0.27964635E+04</pdfrwt>
<totfact> 0.13107194E-01</totfact>
</mgrwt>
</event>
<event>
 6    1  0.1014650E-006  0.3297002E+04  0.7818608E-02  0.8163659E-01
         -1   -1    0    0    0  501 -0.00000000000E+00  0.00000000000E+00  0.16053677483E+04  0.16053677483E+04  0.00000000000E+00 0.  1.
          1   -1    0    0  501    0  0.00000000000E+00 -0.00000000000E+00 -0.16927932605E+04  0.16927932605E+04  0.00000000000E+00 0. -1.
         23    2    1    2    0    0  0.99453874413E+03  0.52403054523E+03 -0.12482253654E+04  0.16822489985E+04  0.90442271413E+02 0.  0.
         13    1    3    3    0    0  0.76688849369E+03  0.38333180467E+03 -0.10002001061E+04  0.13173691535E+04  0.00000000000E+00 0.  1.
        -13    1    3    3    0    0  0.22765025044E+03  0.14069874056E+03 -0.24802525925E+03  0.36487984508E+03  0.00000000000E+00 0. -1.
         22    1    1    2    0    0 -0.99453874413E+03 -0.52403054523E+03  0.11607998531E+04  0.16159120103E+04  0.00000000000E+00 0.  1.
<mgrwt>
<rscale>  0 0.32970021E+04</rscale>
<asrwt>0</asrwt>
<pdfrwt beam="1">  1        1 0.26042973E+00 0.32970021E+04</pdfrwt>
<pdfrwt beam="2">  1       -1 0.24697965E+00 0.32970021E+04</pdfrwt>
<totfact> 0.29187210E-01</totfact>
</mgrwt>
</event>
<event>
 6    1  0.1014650E-006  0.1290149E+04  0.7818608E-02  0.9037413E-01
          1   -1    0    0  501    0  0.00000000000E+00  0.00000000000E+00  0.20634833418E+04  0.20634833418E+04  0.00000000000E+00 0. -1.
         -1   -1    0    0    0  501 -0.00000000000E+00 -0.00000000000E+00 -0.20165965066E+03  0.20165965066E+03  0.00000000000E+00 0.  1.
         23    2    1    2    0    0 -0.10298829068E+03  0.46000830643E+03  0.17084170758E+03  0.50968456268E+03  0.91527233000E+02 0.  0.
         11    1    3    3    0    0 -0.98779852106E+02  0.43197291370E+03  0.18223383435E+03  0.47913174360E+03  0.00000000000E+00 0.  1.
        -11    1    3    3    0    0 -0.42084385741E+01  0.28035392734E+02 -0.11392126767E+02  0.30552819072E+02  0.00000000000E+00 0. -1.
         22    1    1    2    0    0  0.10298829068E+03 -0.46000830643E+03  0.16909819836E+04  0.17554584298E+04  0.00000000000E+00 0. -1.
<mgrwt>
<rscale>  0 0.12901493E+04</rscale>
<asrwt>0</asrwt>
<pdfrwt beam="1">  1        1 0.31745896E+00 0.12901493E+04</pdfrwt>
<pdfrwt beam="2">  1       -1 0.31024563E-01 0.12901493E+04</pdfrwt>
<totfact> 0.25559567E+01</totfact>
</mgrwt>
</event>
<event>
 6    1  0.1014650E-006  0.9597687E+03  0.7818608E-02  0.9353805E-01
         -2   -1    0    0    0  501 -0.00000000000E+00  0.00000000000E+00  0.32753226981E+03  0.32753226981E+03  0.00000000000E+00 0.  1.
          2   -1    0    0  501    0  0.00000000000E+00 -0.00000000000E+00 -0.70310325052E+03  0.70310325052E+03  0.00000000000E+00 0. -1.
         23    2    1    2    0    0  0.39472313925E+03  0.26280136920E+03 -0.15230327249E+03  0.50649871964E+03  0.92052973191E+02 0.  0.
         13    1    3    3    0    0  0.17993671678E+03  0.12266631215E+03 -0.22124357511E+02  0.21889205873E+03  0.00000000000E+00 0.  1.
        -13    1    3    3    0    0  0.21478642246E+03  0.14013505705E+03 -0.13017891498E+03  0.28760666090E+03  0.00000000000E+00 0. -1.
         22    1    1    2    0    0 -0.39472313925E+03 -0.26280136920E+03 -0.22326770822E+03  0.52413680069E+03  0.00000000000E+00 0. -1.
<mgrwt>
<rscale>  0 0.95976873E+03</rscale>
<asrwt>0</asrwt>
<pdfrwt beam="1">  1        2 0.10816973E+00 0.95976873E+03</pdfrwt>
<pdfrwt beam="2">  1       -2 0.50389580E-01 0.95976873E+03</pdfrwt>
<totfact> 0.15183633E+02</totfact>
</mgrwt>
</event>
<event>
 6    1  0.1014650E-006  0.1633917E+04  0.7818608E-02  0.8799978E-01
         -1   -1    0    0    0  501 -0.00000000000E+00  0.00000000000E+00  0.33195863941E+03  0.33195863941E+03  0.00000000000E+00 0.  1.
          1   -1    0    0  501    0  0.00000000000E+00 -0.00000000000E+00 -0.20105557117E+04  0.20105557117E+04  0.00000000000E+00 0. -1.
         23    2    1    2    0    0  0.42902282172E+03 -0.46514160307E+03 -0.15766682251E+04  0.17015722458E+04  0.95121623549E+02 0.  0.
         11    1    3    3    0    0  0.24722184461E+03 -0.19843622622E+03 -0.76545922889E+03  0.82850673348E+03  0.00000000000E+00 0. -1.
        -11    1    3    3    0    0  0.18180097712E+03 -0.26670537685E+03 -0.81120899616E+03  0.87306551231E+03  0.00000000000E+00 0.  1.
         22    1    1    2    0    0 -0.42902282172E+03  0.46514160307E+03 -0.10192884722E+03  0.64094210531E+03  0.00000000000E+00 0.  1.
<mgrwt>
<rscale>  0 0.16339172E+04</rscale>
<asrwt>0</asrwt>
<pdfrwt beam="1">  1        1 0.30931626E+00 0.16339172E+04</pdfrwt>
<pdfrwt beam="2">  1       -1 0.51070561E-01 0.16339172E+04</pdfrwt>
<totfact> 0.10815615E+01</totfact>
</mgrwt>
</event>
<event>
 6    1  0.1014650E-006  0.4450750E+04  0.7818608E-02  0.7919316E-01
         -2   -1    0    0    0  501 -0.00000000000E+00  0.00000000000E+00  0.15138157782E+04  0.15138157782E+04  0.00000000000E+00 0.  1.
          2   -1    0    0  501    0  0.00000000000E+00 -0.00000000000E+00 -0.32713980204E+04  0.32713980204E+04  0.00000000000E+00 0. -1.
         23    2    1    2    0    0 -0.90907369041E+03  0.65534962195E+03 -0.29450741322E+04  0.31524140282E+04  0.91402731709E+02 0.  0.
         13    1    3    3    0    0 -0.29972565602E+03  0.16749619096E+03 -0.85873868702E+03  0.92483651282E+03  0.00000000000E+00 0. -1.
        -13    1    3    3    0    0 -0.60934803439E+03  0.48785343098E+03 -0.20863354452E+04  0.22275775154E+04  0.00000000000E+00 0.  1.
         22    1    1    2    0    0  0.90907369041E+03 -0.65534962195E+03  0.11874918900E+04  0.16327997705E+04  0.00000000000E+00 0.  1.
<mgrwt>
<rscale>  0 0.44507500E+04</rscale>
<asrwt>0</asrwt>
<pdfrwt beam="1">  1        2 0.50329200E+00 0.44507500E+04</pdfrwt>
<pdfrwt beam="2">  1       -2 0.23289474E+00 0.44507500E+04</pdfrwt>
<totfact> 0.72517435E-02</totfact>
</mgrwt>
</event>
<event>
 6    1  0.1014650E-006  0.4247114E+04  0.7818608E-02  0.7956470E-01
         -2   -1    0    0    0  501 -0.00000000000E+00  0.00000000000E+00  0.14871291916E+04  0.14871291916E+04  0.00000000000E+00 0.  1.
          2   -1    0    0  501    0  0.00000000000E+00 -0.00000000000E+00 -0.30323491873E+04  0.30323491873E+04  0.00000000000E+00 0. -1.
         23    2    1    2    0    0  0.17267887623E+04  0.13042519097E+03 -0.20792264298E+04  0.27073048134E+04  0.86640904074E+02 0.  0.
         13    1    3    3    0    0  0.59602828036E+03  0.86382565212E+02 -0.72220211846E+03  0.94036565147E+03  0.00000000000E+00 0.  1.
        -13    1    3    3    0    0  0.11307604819E+04  0.44042625762E+02 -0.13570243113E+04  0.17669391619E+04  0.00000000000E+00 0. -1.
         22    1    1    2    0    0 -0.17267887623E+04 -0.13042519097E+03  0.53400643403E+03  0.18121735655E+04  0.00000000000E+00 0.  1.
<mgrwt>
<rscale>  0 0.42471143E+04</rscale>
<asrwt>0</asrwt>
<pdfrwt beam="1">  1        2 0.46651525E+00 0.42471143E+04</pdfrwt>
<pdfrwt beam="2">  1       -2 0.22878911E+00 0.42471143E+04</pdfrwt>
<totfact> 0.11171737E-01</totfact>
</mgrwt>
</event>
<event>
 6    1  0.1014650E-006  0.1348817E+04  0.7818608E-02  0.8991724E-01
          2   -1    0    0  501    0  0.00000000000E+00  0.00000000000E+00  0.20245499560E+04  0.20245499560E+04  0.00000000000E+00 0. -1.
         -2   -1    0    0    0  501 -0.00000000000E+00 -0.00000000000E+00 -0.22465578056E+03  0.22465578056E+03  0.00000000000E+00 0.  1.
         23    2    1    2    0    0 -0.22581741912E+03 -0.39634204557E+03  0.17254974362E+04  0.17870202774E+04  0.89551916535E+02 0.  0.
         11    1    3    3    0    0 -0.21282257323E+03 -0.30948034471E+03  0.13399238994E+04  0.13915701878E+04  0.00000000000E+00 0. -1.
        -11    1    3    3    0    0 -0.12994845892E+02 -0.86861700858E+02  0.38557353678E+03  0.39545008959E+03  0.00000000000E+00 0.  1.
         22    1    1    2    0    0  0.22581741912E+03  0.39634204557E+03  0.74396739286E+02  0.46218545918E+03  0.00000000000E+00 0.  1.
<mgrwt>
<rscale>  0 0.13488170E+04</rscale>
<asrwt>0</asrwt>
<pdfrwt beam="1">  1        2 0.31146921E+00 0.13488170E+04</pdfrwt>
<pdfrwt beam="2">  1       -2 0.34562429E-01 0.13488170E+04</pdfrwt>
<totfact> 0.49672673E+01</totfact>
</mgrwt>
</event>
<event>
 6    1  0.1014650E-006  0.8452838E+03  0.7818608E-02  0.9496689E-01
          2   -1    0    0  501    0  0.00000000000E+00  0.00000000000E+00  0.62868369188E+03  0.62868369188E+03  0.00000000000E+00 0. -1.
         -2   -1    0    0    0  501 -0.00000000000E+00 -0.00000000000E+00 -0.28412729023E+03  0.28412729023E+03  0.00000000000E+00 0.  1.
         23    2    1    2    0    0 -0.29190086725E+03 -0.28629196253E+03  0.82280182064E+02  0.42705587975E+03  0.91855821619E+02 0.  0.
         11    1    3    3    0    0 -0.16563592839E+03 -0.98342475346E+02  0.37787179784E+02  0.19630174270E+03  0.00000000000E+00 0. -1.
        -11    1    3    3    0    0 -0.12626493886E+03 -0.18794948718E+03  0.44493002279E+02  0.23075413705E+03  0.00000000000E+00 0.  1.
         22    1    1    2    0    0  0.29190086725E+03  0.28629196253E+03  0.26227621958E+03  0.48575510235E+03  0.00000000000E+00 0.  1.
<mgrwt>
<rscale>  0 0.84528384E+03</rscale>
<asrwt>0</asrwt>
<pdfrwt beam="1">  1        2 0.96720568E-01 0.84528384E+03</pdfrwt>
<pdfrwt beam="2">  1       -2 0.43711891E-01 0.84528384E+03</pdfrwt>
<totfact> 0.23365674E+02</totfact>
</mgrwt>
</event>
<event>
 6    1  0.1014650E-006  0.2007715E+04  0.7818608E-02  0.8603022E-01
         -2   -1    0    0    0  501 -0.00000000000E+00  0.00000000000E+00  0.86105752406E+03  0.86105752406E+03  0.00000000000E+00 0.  1.
          2   -1    0    0  501    0  0.00000000000E+00 -0.00000000000E+00 -0.11703396879E+04  0.11703396879E+04  0.00000000000E+00 0. -1.
         23    2    1    2    0    0  0.25318658765E+03  0.13479309141E+03 -0.11260135296E+04  0.11657629072E+04  0.93936474416E+02 0.  0.
         13    1    3    3    0    0  0.76333993720E+02  0.59695186175E+02 -0.55214061647E+03  0.56057974830E+03  0.00000000000E+00 0.  1.
        -13    1    3    3    0    0  0.17685259393E+03  0.75097905235E+02 -0.57387291314E+03  0.60518315888E+03  0.00000000000E+00 0. -1.
         22    1    1    2    0    0 -0.25318658765E+03 -0.13479309141E+03  0.81673136581E+03  0.86563430474E+03  0.00000000000E+00 0.  1.
<mgrwt>
<rscale>  0 0.20077149E+04</rscale>
<asrwt>0</asrwt>
<pdfrwt beam="1">  1        2 0.18005226E+00 0.20077149E+04</pdfrwt>
<pdfrwt beam="2">  1       -2 0.13247039E+00 0.20077149E+04</pdfrwt>
<totfact> 0.75871203E+00</totfact>
</mgrwt>
</event>
<event>
 6    1  0.1014650E-006  0.5815912E+04  0.7818608E-02  0.7713655E-01
         -1   -1    0    0    0  501 -0.00000000000E+00  0.00000000000E+00  0.23057974577E+04  0.23057974577E+04  0.00000000000E+00 0.  1.
          1   -1    0    0  501    0  0.00000000000E+00 -0.00000000000E+00 -0.36673685246E+04  0.36673685246E+04  0.00000000000E+00 0. -1.
         23    2    1    2    0    0  0.93797944298E+03 -0.18318707959E+04  0.14281958752E+04  0.25064159712E+04  0.82592458514E+02 0.  0.
         11    1    3    3    0    0  0.76815640207E+03 -0.15653468894E+04  0.12112881296E+04  0.21231095297E+04  0.00000000000E+00 0.  1.
        -11    1    3    3    0    0  0.16982304091E+03 -0.26652390649E+03  0.21690774561E+03  0.38330644146E+03  0.00000000000E+00 0. -1.
         22    1    1    2    0    0 -0.93797944298E+03  0.18318707959E+04 -0.27897669421E+04  0.34667500111E+04  0.00000000000E+00 0. -1.
<mgrwt>
<rscale>  0 0.58159123E+04</rscale>
<asrwt>0</asrwt>
<pdfrwt beam="1">  1        1 0.56421054E+00 0.58159123E+04</pdfrwt>
<pdfrwt beam="2">  1       -1 0.35473807E+00 0.58159123E+04</pdfrwt>
<totfact> 0.17931815E-03</totfact>
</mgrwt>
</event>
<event>
 6    1  0.1014650E-006  0.2841273E+04  0.7818608E-02  0.8290568E-01
          2   -1    0    0  501    0  0.00000000000E+00  0.00000000000E+00  0.79823271020E+03  0.79823271020E+03  0.00000000000E+00 0. -1.
         -2   -1    0    0    0  501 -0.00000000000E+00 -0.00000000000E+00 -0.25283460773E+04  0.25283460773E+04  0.00000000000E+00 0.  1.
         23    2    1    2    0    0 -0.92709558906E+03 -0.48760817986E+03  0.25507361409E+03  0.10819774156E+04  0.91348842381E+02 0.  0.
         11    1    3    3    0    0 -0.49400150146E+03 -0.29200829220E+03  0.17594444756E+03  0.60021893905E+03  0.00000000000E+00 0. -1.
        -11    1    3    3    0    0 -0.43309408760E+03 -0.19559988766E+03  0.79129166527E+02  0.48175847659E+03  0.00000000000E+00 0.  1.
         22    1    1    2    0    0  0.92709558906E+03  0.48760817986E+03 -0.19851869812E+04  0.22446013719E+04  0.00000000000E+00 0.  1.
<mgrwt>
<rscale>  0 0.28412733E+04</rscale>
<asrwt>0</asrwt>
<pdfrwt beam="1">  1        2 0.12280503E+00 0.28412733E+04</pdfrwt>
<pdfrwt beam="2">  1       -2 0.38897631E+00 0.28412733E+04</pdfrwt>
<totfact> 0.26230112E-01</totfact>
</mgrwt>
</event>
<event>
 6    1  0.1014650E-006  0.3960191E+04  0.7818608E-02  0.8012626E-01
         -2   -1    0    0    0  501 -0.00000000000E+00  0.00000000000E+00  0.14001604286E+04  0.14001604286E+04  0.00000000000E+00 0.  1.
          2   -1    0    0  501    0  0.00000000000E+00 -0.00000000000E+00 -0.28002347557E+04  0.28002347557E+04  0.00000000000E+00 0. -1.
         23    2    1    2    0    0 -0.63737613275E+03  0.18581693642E+04 -0.95497002428E+03  0.21861559827E+04  0.90931362349E+02 0.  0.
         13    1    3    3    0    0 -0.49320276961E+03  0.13606242804E+04 -0.66820885357E+03  0.15940672747E+04  0.00000000000E+00 0. -1.
        -13    1    3    3    0    0 -0.14417336314E+03  0.49754508385E+03 -0.28676117071E+03  0.59208870799E+03  0.00000000000E+00 0.  1.
         22    1    1    2    0    0  0.63737613275E+03 -0.18581693642E+04 -0.44510430278E+03  0.20142392016E+04  0.00000000000E+00 0. -1.
<mgrwt>
<rscale>  0 0.39601909E+04</rscale>
<asrwt>0</asrwt>
<pdfrwt beam="1">  1        2 0.43080534E+00 0.39601909E+04</pdfrwt>
<pdfrwt beam="2">  1       -2 0.21540930E+00 0.39601909E+04</pdfrwt>
<totfact> 0.19334271E-01</totfact>
</mgrwt>
</event>
<event>
 6    1  0.1014650E-006  0.4250137E+04  0.7818608E-02  0.7955903E-01
          1   -1    0    0  501    0  0.00000000000E+00  0.00000000000E+00  0.26551893373E+04  0.26551893373E+04  0.00000000000E+00 0. -1.
         -1   -1    0    0    0  501 -0.00000000000E+00 -0.00000000000E+00 -0.17007884254E+04  0.17007884254E+04  0.00000000000E+00 0.  1.
         23    2    1    2    0    0 -0.30138353531E+03  0.50617058114E+03 -0.16141417797E+04  0.17207448980E+04  0.92025139977E+02 0.  0.
         13    1    3    3    0    0 -0.15370968541E+03  0.17089907025E+03 -0.61282378591E+03  0.65451214823E+03  0.00000000000E+00 0. -1.
        -13    1    3    3    0    0 -0.14767384990E+03  0.33527151089E+03 -0.10013179938E+04  0.10662327497E+04  0.00000000000E+00 0.  1.
         22    1    1    2    0    0  0.30138353531E+03 -0.50617058114E+03  0.25685426916E+04  0.26352328647E+04  0.00000000000E+00 0. -1.
<mgrwt>
<rscale>  0 0.42501366E+04</rscale>
<asrwt>0</asrwt>
<pdfrwt beam="1">  1        1 0.40849067E+00 0.42501366E+04</pdfrwt>
<pdfrwt beam="2">  1       -1 0.26165976E+00 0.42501366E+04</pdfrwt>
<totfact> 0.47369863E-02</totfact>
</mgrwt>
</event>
<event>
 6    1  0.1014650E-006  0.2760061E+04  0.7818608E-02  0.8315776E-01
          1   -1    0    0  501    0  0.00000000000E+00  0.00000000000E+00  0.37478238995E+04  0.37478238995E+04  0.00000000000E+00 0. -1.
         -1   -1    0    0    0  501 -0.00000000000E+00 -0.00000000000E+00 -0.50815728000E+03  0.50815728000E+03  0.00000000000E+00 0.  1.
         23    2    1    2    0    0 -0.11550190561E+03  0.68465299474E+03  0.34579229029E+04  0.35281582487E+04  0.92625113460E+02 0.  0.
         13    1    3    3    0    0 -0.94637589533E+02  0.52243376012E+03  0.24320540627E+04  0.24893332985E+04  0.00000000000E+00 0. -1.
        -13    1    3    3    0    0 -0.20864316075E+02  0.16221923462E+03  0.10258688402E+04  0.10388249502E+04  0.00000000000E+00 0.  1.
         22    1    1    2    0    0  0.11550190561E+03 -0.68465299474E+03 -0.21825628342E+03  0.72782293084E+03  0.00000000000E+00 0.  1.
<mgrwt>
<rscale>  0 0.27600609E+04</rscale>
<asrwt>0</asrwt>
<pdfrwt beam="1">  1        1 0.57658827E+00 0.27600609E+04</pdfrwt>
<pdfrwt beam="2">  1       -1 0.78178046E-01 0.27600609E+04</pdfrwt>
<totfact> 0.22423501E-01</totfact>
</mgrwt>
</event>
<event>
 6    1  0.1014650E-006  0.1226245E+04  0.7818608E-02  0.9090189E-01
         -1   -1    0    0    0  501 -0.00000000000E+00  0.00000000000E+00  0.36842313376E+03  0.36842313376E+03  0.00000000000E+00 0.  1.
          1   -1    0    0  501    0  0.00000000000E+00 -0.00000000000E+00 -0.10203466705E+04  0.10203466705E+04  0.00000000000E+00 0. -1.
         23    2    1    2    0    0 -0.37885618804E+03 -0.36467515276E+03 -0.67738815297E+03  0.86230192777E+03  0.90498213221E+02 0.  0.
         11    1    3    3    0    0 -0.16355904993E+03 -0.98255015004E+02 -0.25484997595E+03  0.31836161991E+03  0.00000000000E+00 0.  1.
        -11    1    3    3    0    0 -0.21529713811E+03 -0.26642013776E+03 -0.42253817702E+03  0.54394030786E+03  0.00000000000E+00 0. -1.
         22    1    1    2    0    0  0.37885618804E+03  0.36467515276E+03  0.25464616269E+02  0.52646787645E+03  0.00000000000E+00 0.  1.
<mgrwt>
<rscale>  0 0.12262452E+04</rscale>
<asrwt>0</asrwt>
<pdfrwt beam="1">  1        1 0.15697641E+00 0.12262452E+04</pdfrwt>
<pdfrwt beam="2">  1       -1 0.56680484E-01 0.12262452E+04</pdfrwt>
<totfact> 0.45401102E+01</totfact>
</mgrwt>
</event>
<event>
 6    1  0.1014650E-006  0.3940556E+04  0.7818608E-02  0.8016647E-01
         -1   -1    0    0    0  501 -0.00000000000E+00  0.00000000000E+00  0.11186944271E+04  0.11186944271E+04  0.00000000000E+00 0.  1.
          1   -1    0    0  501    0  0.00000000000E+00 -0.00000000000E+00 -0.34701131138E+04  0.34701131138E+04  0.00000000000E+00 0. -1.
         23    2    1    2    0    0  0.45799138065E+03 -0.42957117070E+03  0.99707820274E+03  0.11819440400E+04  0.92408201848E+02 0.  0.
         13    1    3    3    0    0  0.35152677041E+03 -0.27317724313E+03  0.71617780991E+03  0.84327192049E+03  0.00000000000E+00 0. -1.
        -13    1    3    3    0    0  0.10646461024E+03 -0.15639392756E+03  0.28090039283E+03  0.33867211947E+03  0.00000000000E+00 0.  1.
         22    1    1    2    0    0 -0.45799138065E+03  0.42957117070E+03 -0.33484968895E+04  0.34068635010E+04  0.00000000000E+00 0. -1.
<mgrwt>
<rscale>  0 0.39405564E+04</rscale>
<asrwt>0</asrwt>
<pdfrwt beam="1">  1        1 0.53386355E+00 0.39405564E+04</pdfrwt>
<pdfrwt beam="2">  1       -1 0.17210684E+00 0.39405564E+04</pdfrwt>
<totfact> 0.49189659E-02</totfact>
</mgrwt>
</event>
<event>
 6    1  0.1014650E-006  0.1117664E+04  0.7818608E-02  0.9188144E-01
          2   -1    0    0  501    0  0.00000000000E+00  0.00000000000E+00  0.22462378842E+04  0.22462378842E+04  0.00000000000E+00 0. -1.
         -2   -1    0    0    0  501 -0.00000000000E+00 -0.00000000000E+00 -0.13902950388E+03  0.13902950388E+03  0.00000000000E+00 0.  1.
         23    2    1    2    0    0  0.85881753490E+01 -0.84063680004E+02  0.22312134544E+04  0.22352083416E+04  0.10345236669E+03 0.  0.
         13    1    3    3    0    0  0.41968647631E+02 -0.88329431831E+02  0.14682841203E+04  0.14715371942E+04  0.00000000000E+00 0. -1.
        -13    1    3    3    0    0 -0.33380472282E+02  0.42657518263E+01  0.76292933411E+03  0.76367114743E+03  0.00000000000E+00 0.  1.
         22    1    1    2    0    0 -0.85881753490E+01  0.84063680004E+02 -0.12400507405E+03  0.15005904652E+03  0.00000000000E+00 0.  1.
<mgrwt>
<rscale>  0 0.11176642E+04</rscale>
<asrwt>0</asrwt>
<pdfrwt beam="1">  1        2 0.34557503E+00 0.11176642E+04</pdfrwt>
<pdfrwt beam="2">  1       -2 0.21389156E-01 0.11176642E+04</pdfrwt>
<totfact> 0.91985448E+01</totfact>
</mgrwt>
</event>
<event>
 6    1  0.1014650E-006  0.2533759E+04  0.7818608E-02  0.8391057E-01
         -2   -1    0    0    0  501 -0.00000000000E+00  0.00000000000E+00  0.41716758789E+03  0.41716758789E+03  0.00000000000E+00 0.  1.
          2   -1    0    0  501    0  0.00000000000E+00 -0.00000000000E+00 -0.38473342604E+04  0.38473342604E+04  0.00000000000E+00 0. -1.
         23    2    1    2    0    0 -0.13409441320E+03  0.66069413609E+03 -0.35193450493E+04  0.35844644699E+04  0.89988373634E+02 0.  0.
         13    1    3    3    0    0 -0.22609132785E+02  0.21288174861E+03 -0.13174028862E+04  0.13346835492E+04  0.00000000000E+00 0.  1.
        -13    1    3    3    0    0 -0.11148528041E+03  0.44781238748E+03 -0.22019421631E+04  0.22497809208E+04  0.00000000000E+00 0. -1.
         22    1    1    2    0    0  0.13409441320E+03 -0.66069413609E+03  0.89178376715E+02  0.68003737838E+03  0.00000000000E+00 0.  1.
<mgrwt>
<rscale>  0 0.25337586E+04</rscale>
<asrwt>0</asrwt>
<pdfrwt beam="1">  1        2 0.59189760E+00 0.25337586E+04</pdfrwt>
<pdfrwt beam="2">  1       -2 0.64179626E-01 0.25337586E+04</pdfrwt>
<totfact> 0.90361304E-01</totfact>
</mgrwt>
</event>
<event>
 6    1  0.1014650E-006  0.1495701E+04  0.7818608E-02  0.8887317E-01
          2   -1    0    0  501    0  0.00000000000E+00  0.00000000000E+00  0.12280612604E+04  0.12280612604E+04  0.00000000000E+00 0. -1.
         -2   -1    0    0    0  501 -0.00000000000E+00 -0.00000000000E+00 -0.45541721949E+03  0.45541721949E+03  0.00000000000E+00 0.  1.
         23    2    1    2    0    0  0.49856341657E+03 -0.26954683572E+03  0.93203353536E+03  0.10947289679E+04  0.92325647110E+02 0.  0.
         13    1    3    3    0    0  0.20956452133E+03 -0.15927401481E+03  0.38688198214E+03  0.46793500457E+03  0.00000000000E+00 0. -1.
        -13    1    3    3    0    0  0.28899889524E+03 -0.11027282091E+03  0.54515155321E+03  0.62679396332E+03  0.00000000000E+00 0.  1.
         22    1    1    2    0    0 -0.49856341657E+03  0.26954683572E+03 -0.15938949441E+03  0.58874951204E+03  0.00000000000E+00 0.  1.
<mgrwt>
<rscale>  0 0.14957008E+04</rscale>
<asrwt>0</asrwt>
<pdfrwt beam="1">  1        2 0.18893250E+00 0.14957008E+04</pdfrwt>
<pdfrwt beam="2">  1       -2 0.70064188E-01 0.14957008E+04</pdfrwt>
<totfact> 0.32680614E+01</totfact>
</mgrwt>
</event>
<event>
 6    1  0.1014650E-006  0.8640306E+03  0.7818608E-02  0.9471697E-01
         -2   -1    0    0    0  501 -0.00000000000E+00  0.00000000000E+00  0.16701303741E+03  0.16701303741E+03  0.00000000000E+00 0.  1.
          2   -1    0    0  501    0  0.00000000000E+00 -0.00000000000E+00 -0.11175008108E+04  0.11175008108E+04  0.00000000000E+00 0. -1.
         23    2    1    2    0    0  0.74707095037E+02  0.13042045610E+02 -0.11047877920E+04  0.11125843837E+04  0.10740903429E+03 0.  0.
         11    1    3    3    0    0 -0.12704408106E+02  0.33358030985E+02 -0.18375386304E+03  0.18718878812E+03  0.00000000000E+00 0. -1.
        -11    1    3    3    0    0  0.87411503144E+02 -0.20315985375E+02 -0.92103392891E+03  0.92539559560E+03  0.00000000000E+00 0.  1.
         22    1    1    2    0    0 -0.74707095037E+02 -0.13042045610E+02  0.15430001860E+03  0.17192946444E+03  0.00000000000E+00 0.  1.
<mgrwt>
<rscale>  0 0.86403057E+03</rscale>
<asrwt>0</asrwt>
<pdfrwt beam="1">  1        2 0.17192319E+00 0.86403057E+03</pdfrwt>
<pdfrwt beam="2">  1       -2 0.25694314E-01 0.86403057E+03</pdfrwt>
<totfact> 0.29069682E+02</totfact>
</mgrwt>
</event>
<event>
 6    1  0.1014650E-006  0.3561397E+04  0.7818608E-02  0.8099392E-01
          1   -1    0    0  501    0  0.00000000000E+00  0.00000000000E+00  0.18918801353E+04  0.18918801353E+04  0.00000000000E+00 0. -1.
         -1   -1    0    0    0  501 -0.00000000000E+00 -0.00000000000E+00 -0.16760504832E+04  0.16760504832E+04  0.00000000000E+00 0.  1.
         23    2    1    2    0    0 -0.14007931269E+04 -0.12209941472E+03 -0.98469103251E+03  0.17190445848E+04  0.91477885583E+02 0.  0.
         11    1    3    3    0    0 -0.60568486973E+03 -0.12937441328E+02 -0.45021100841E+03  0.75479234952E+03  0.00000000000E+00 0. -1.
        -11    1    3    3    0    0 -0.79510825715E+03 -0.10916197339E+03 -0.53448002409E+03  0.96425223524E+03  0.00000000000E+00 0.  1.
         22    1    1    2    0    0  0.14007931269E+04  0.12209941472E+03  0.12005206846E+04  0.18488860337E+04  0.00000000000E+00 0. -1.
<mgrwt>
<rscale>  0 0.35613967E+04</rscale>
<asrwt>0</asrwt>
<pdfrwt beam="1">  1        1 0.29105848E+00 0.35613967E+04</pdfrwt>
<pdfrwt beam="2">  1       -1 0.25785392E+00 0.35613967E+04</pdfrwt>
<totfact> 0.17747031E-01</totfact>
</mgrwt>
</event>
<event>
 6    1  0.1014650E-006  0.2254303E+04  0.7818608E-02  0.8496160E-01
          3   -1    0    0  501    0  0.00000000000E+00  0.00000000000E+00  0.17108140178E+04  0.17108140178E+04  0.00000000000E+00 0. -1.
         -3   -1    0    0    0  501 -0.00000000000E+00 -0.00000000000E+00 -0.74261138672E+03  0.74261138672E+03  0.00000000000E+00 0.  1.
         23    2    1    2    0    0  0.11021414942E+04 -0.65474926964E+02  0.24826476285E+03  0.11353535653E+04  0.91594140011E+02 0.  0.
         13    1    3    3    0    0  0.66195694305E+03 -0.28041631591E+02  0.10427100988E+03  0.67070542793E+03  0.00000000000E+00 0. -1.
        -13    1    3    3    0    0  0.44018455115E+03 -0.37433295373E+02  0.14399375296E+03  0.46464813737E+03  0.00000000000E+00 0.  1.
         22    1    1    2    0    0 -0.11021414942E+04  0.65474926964E+02  0.71993786827E+03  0.13180718393E+04  0.00000000000E+00 0. -1.
<mgrwt>
<rscale>  0 0.22543025E+04</rscale>
<asrwt>0</asrwt>
<pdfrwt beam="1">  1        3 0.26320216E+00 0.22543025E+04</pdfrwt>
<pdfrwt beam="2">  1       -3 0.11424791E+00 0.22543025E+04</pdfrwt>
<totfact> 0.93907889E-02</totfact>
</mgrwt>
</event>
<event>
 6    1  0.1106322E-006  0.2816040E+04  0.7818608E-02  0.8298306E-01
         -1   -1    0    0    0  501 -0.00000000000E+00  0.00000000000E+00  0.82951447241E+03  0.82951447241E+03  0.00000000000E+00 0.  1.
          1   -1    0    0  501    0  0.00000000000E+00 -0.00000000000E+00 -0.23899773104E+04  0.23899773104E+04  0.00000000000E+00 0. -1.
         23    2    1    2    0    0 -0.11606891090E+04 -0.60806471842E+03 -0.19585527878E+03  0.13276419737E+04  0.85627161032E+02 0.  0.
         11    1    3    3    0    0 -0.68266060891E+03 -0.36201222413E+03 -0.73014500007E+02  0.77615042008E+03  0.00000000000E+00 0. -1.
        -11    1    3    3    0    0 -0.47802850007E+03 -0.24605249428E+03 -0.12284077877E+03  0.55149155365E+03  0.00000000000E+00 0.  1.
         22    1    1    2    0    0  0.11606891090E+04  0.60806471842E+03 -0.13646075592E+04  0.18918498091E+04  0.00000000000E+00 0. -1.
<mgrwt>
<rscale>  0 0.28160403E+04</rscale>
<asrwt>0</asrwt>
<pdfrwt beam="1">  1        1 0.36768881E+00 0.28160403E+04</pdfrwt>
<pdfrwt beam="2">  1       -1 0.12761761E+00 0.28160403E+04</pdfrwt>
<totfact> 0.74123629E-01</totfact>
</mgrwt>
</event>
<event>
 6    1  0.1014650E-006  0.6977094E+03  0.7818608E-02  0.9721157E-01
          2   -1    0    0  501    0  0.00000000000E+00  0.00000000000E+00  0.48159447486E+03  0.48159447486E+03  0.00000000000E+00 0. -1.
         -2   -1    0    0    0  501 -0.00000000000E+00 -0.00000000000E+00 -0.25270141873E+03  0.25270141873E+03  0.00000000000E+00 0.  1.
         23    2    1    2    0    0 -0.27680656008E+03  0.13106149180E+03  0.27827678419E+03  0.42407381356E+03  0.92745050495E+02 0.  0.
         13    1    3    3    0    0 -0.13803979105E+03  0.67870482972E+02  0.78318422597E+02  0.17261275066E+03  0.00000000000E+00 0.  1.
        -13    1    3    3    0    0 -0.13876676903E+03  0.63191008829E+02  0.19995836159E+03  0.25146106290E+03  0.00000000000E+00 0. -1.
         22    1    1    2    0    0  0.27680656008E+03 -0.13106149180E+03 -0.49383728056E+02  0.31022208003E+03  0.00000000000E+00 0.  1.
<mgrwt>
<rscale>  0 0.69770942E+03</rscale>
<asrwt>0</asrwt>
<pdfrwt beam="1">  1        2 0.74091458E-01 0.69770942E+03</pdfrwt>
<pdfrwt beam="2">  1       -2 0.38877141E-01 0.69770942E+03</pdfrwt>
<totfact> 0.40533075E+02</totfact>
</mgrwt>
</event>
<event>
 6    1  0.1014650E-006  0.1564375E+04  0.7818608E-02  0.8842738E-01
          1   -1    0    0  501    0  0.00000000000E+00  0.00000000000E+00  0.88836830254E+03  0.88836830254E+03  0.00000000000E+00 0. -1.
         -1   -1    0    0    0  501 -0.00000000000E+00 -0.00000000000E+00 -0.68869808629E+03  0.68869808629E+03  0.00000000000E+00 0.  1.
         23    2    1    2    0    0 -0.25815025244E+03 -0.50722908346E+03  0.63735217923E+03  0.85909118267E+03  0.88864862688E+02 0.  0.
         11    1    3    3    0    0 -0.12229007976E+03 -0.33063013040E+03  0.36964697555E+03  0.51079353291E+03  0.00000000000E+00 0.  1.
        -11    1    3    3    0    0 -0.13586017269E+03 -0.17659895306E+03  0.26770520368E+03  0.34829764976E+03  0.00000000000E+00 0. -1.
         22    1    1    2    0    0  0.25815025244E+03  0.50722908346E+03 -0.43768196297E+03  0.71797520616E+03  0.00000000000E+00 0.  1.
<mgrwt>
<rscale>  0 0.15643753E+04</rscale>
<asrwt>0</asrwt>
<pdfrwt beam="1">  1        1 0.13667205E+00 0.15643753E+04</pdfrwt>
<pdfrwt beam="2">  1       -1 0.10595355E+00 0.15643753E+04</pdfrwt>
<totfact> 0.14926841E+01</totfact>
</mgrwt>
</event>
<event>
 6    1  0.1014650E-006  0.1631338E+04  0.7818608E-02  0.8801524E-01
         -2   -1    0    0    0  501 -0.00000000000E+00  0.00000000000E+00  0.13539781737E+04  0.13539781737E+04  0.00000000000E+00 0.  1.
          2   -1    0    0  501    0  0.00000000000E+00 -0.00000000000E+00 -0.49137872184E+03  0.49137872184E+03  0.00000000000E+00 0. -1.
         23    2    1    2    0    0  0.10477264748E+03 -0.76764394347E+03  0.15351825923E+03  0.79509470478E+03  0.91395853547E+02 0.  0.
         13    1    3    3    0    0  0.32993057017E+02 -0.17581897271E+03 -0.23130219918E+01  0.17890277540E+03  0.00000000000E+00 0. -1.
        -13    1    3    3    0    0  0.71779590462E+02 -0.59182497076E+03  0.15583128122E+03  0.61619192938E+03  0.00000000000E+00 0.  1.
         22    1    1    2    0    0 -0.10477264748E+03  0.76764394347E+03  0.70908119266E+03  0.10502621908E+04  0.00000000000E+00 0.  1.
<mgrwt>
<rscale>  0 0.16313382E+04</rscale>
<asrwt>0</asrwt>
<pdfrwt beam="1">  1        2 0.75596727E-01 0.16313382E+04</pdfrwt>
<pdfrwt beam="2">  1       -2 0.20830433E+00 0.16313382E+04</pdfrwt>
<totfact> 0.70526787E+00</totfact>
</mgrwt>
</event>
<event>
 6    1  0.1014650E-006  0.9224542E+03  0.7818608E-02  0.9397940E-01
         -2   -1    0    0    0  501 -0.00000000000E+00  0.00000000000E+00  0.14820646855E+03  0.14820646855E+03  0.00000000000E+00 0.  1.
          2   -1    0    0  501    0  0.00000000000E+00 -0.00000000000E+00 -0.14353652966E+04  0.14353652966E+04  0.00000000000E+00 0. -1.
         23    2    1    2    0    0  0.63757025965E+02 -0.44222380103E+03 -0.81209729679E+03  0.93141357340E+03  0.91664478964E+02 0.  0.
         11    1    3    3    0    0  0.70481354225E+02 -0.41344331083E+03 -0.70508615776E+03  0.82039593029E+03  0.00000000000E+00 0.  1.
        -11    1    3    3    0    0 -0.67243282592E+01 -0.28780490206E+02 -0.10701113903E+03  0.11101764312E+03  0.00000000000E+00 0. -1.
         22    1    1    2    0    0 -0.63757025965E+02  0.44222380103E+03 -0.47506153123E+03  0.65215819171E+03  0.00000000000E+00 0. -1.
<mgrwt>
<rscale>  0 0.92245417E+03</rscale>
<asrwt>0</asrwt>
<pdfrwt beam="1">  1        2 0.22082544E+00 0.92245417E+03</pdfrwt>
<pdfrwt beam="2">  1       -2 0.22800994E-01 0.92245417E+03</pdfrwt>
<totfact> 0.23420255E+02</totfact>
</mgrwt>
</event>
<event>
 6    1  0.1014650E-006  0.1999501E+04  0.7818608E-02  0.8606854E-01
         -2   -1    0    0    0  501 -0.00000000000E+00  0.00000000000E+00  0.11062344914E+04  0.11062344914E+04  0.00000000000E+00 0.  1.
          2   -1    0    0  501    0  0.00000000000E+00 -0.00000000000E+00 -0.90351626825E+03  0.90351626825E+03  0.00000000000E+00 0. -1.
         23    2    1    2    0    0 -0.50178947619E+03  0.60495793029E+03  0.72067477207E+03  0.10684507212E+04  0.66693633229E+02 0.  0.
         11    1    3    3    0    0 -0.54735914325E+02  0.79672795075E+02  0.11751638806E+03  0.15216397752E+03  0.00000000000E+00 0. -1.
        -11    1    3    3    0    0 -0.44705356186E+03  0.52528513521E+03  0.60315838401E+03  0.91628674368E+03  0.00000000000E+00 0.  1.
         22    1    1    2    0    0  0.50178947619E+03 -0.60495793029E+03 -0.51795654891E+03  0.94130003845E+03  0.00000000000E+00 0.  1.
<mgrwt>
<rscale>  0 0.19995008E+04</rscale>
<asrwt>0</asrwt>
<pdfrwt beam="1">  1        2 0.13900250E+00 0.19995008E+04</pdfrwt>
<pdfrwt beam="2">  1       -2 0.17018992E+00 0.19995008E+04</pdfrwt>
<totfact> 0.57547491E+00</totfact>
</mgrwt>
</event>
<event>
 6    1  0.1014650E-006  0.3418179E+04  0.7818608E-02  0.8133459E-01
         -2   -1    0    0    0  501 -0.00000000000E+00  0.00000000000E+00  0.21888769557E+04  0.21888769557E+04  0.00000000000E+00 0.  1.
          2   -1    0    0  501    0  0.00000000000E+00 -0.00000000000E+00 -0.13344686831E+04  0.13344686831E+04  0.00000000000E+00 0. -1.
         23    2    1    2    0    0 -0.33068061760E+03  0.73953345456E+03  0.19772895263E+04  0.21387439953E+04  0.91063743501E+02 0.  0.
         13    1    3    3    0    0 -0.24673391616E+03  0.62750688932E+03  0.15970913436E+04  0.17335925938E+04  0.00000000000E+00 0. -1.
        -13    1    3    3    0    0 -0.83946701439E+02  0.11202656524E+03  0.38019818278E+03  0.40515140157E+03  0.00000000000E+00 0.  1.
         22    1    1    2    0    0  0.33068061760E+03 -0.73953345456E+03 -0.11228812537E+04  0.13846016435E+04  0.00000000000E+00 0. -1.
<mgrwt>
<rscale>  0 0.34181795E+04</rscale>
<asrwt>0</asrwt>
<pdfrwt beam="1">  1        2 0.20530287E+00 0.34181795E+04</pdfrwt>
<pdfrwt beam="2">  1       -2 0.33675030E+00 0.34181795E+04</pdfrwt>
<totfact> 0.24595828E-01</totfact>
</mgrwt>
</event>
<event>
 6    1  0.1014650E-006  0.2983956E+04  0.7818608E-02  0.8248327E-01
         -1   -1    0    0    0  501 -0.00000000000E+00  0.00000000000E+00  0.17321636377E+04  0.17321636377E+04  0.00000000000E+00 0.  1.
          1   -1    0    0  501    0  0.00000000000E+00 -0.00000000000E+00 -0.12850969979E+04  0.12850969979E+04  0.00000000000E+00 0. -1.
         23    2    1    2    0    0  0.95110887417E+03  0.69136122443E+03 -0.70265081825E+03  0.13727428746E+04  0.90091032616E+02 0.  0.
         13    1    3    3    0    0  0.41510267358E+03  0.25202241994E+03 -0.26781858519E+03  0.55457400258E+03  0.00000000000E+00 0. -1.
        -13    1    3    3    0    0  0.53600620058E+03  0.43933880450E+03 -0.43483223306E+03  0.81816887200E+03  0.00000000000E+00 0.  1.
         22    1    1    2    0    0 -0.95110887417E+03 -0.69136122443E+03  0.11497174580E+04  0.16445177611E+04  0.00000000000E+00 0.  1.
<mgrwt>
<rscale>  0 0.29839560E+04</rscale>
<asrwt>0</asrwt>
<pdfrwt beam="1">  1        1 0.19770723E+00 0.29839560E+04</pdfrwt>
<pdfrwt beam="2">  1       -1 0.26648671E+00 0.29839560E+04</pdfrwt>
<totfact> 0.43021475E-01</totfact>
</mgrwt>
</event>
<event>
 6    1  0.1014650E-006  0.1189592E+04  0.7818608E-02  0.9122016E-01
          1   -1    0    0  501    0  0.00000000000E+00  0.00000000000E+00  0.12081590056E+04  0.12081590056E+04  0.00000000000E+00 0. -1.
         -1   -1    0    0    0  501 -0.00000000000E+00 -0.00000000000E+00 -0.29282738934E+03  0.29282738934E+03  0.00000000000E+00 0.  1.
         23    2    1    2    0    0 -0.10655532313E+03 -0.38659978953E+03 -0.87366590879E+02  0.42107106087E+03  0.94098262177E+02 0.  0.
         13    1    3    3    0    0 -0.73778302818E+02 -0.28829704527E+03 -0.10577176864E+03  0.31582604598E+03  0.00000000000E+00 0.  1.
        -13    1    3    3    0    0 -0.32777020308E+02 -0.98302744266E+02  0.18405177764E+02  0.10524501489E+03  0.00000000000E+00 0. -1.
         22    1    1    2    0    0  0.10655532313E+03  0.38659978953E+03  0.10026982072E+04  0.10799153341E+04  0.00000000000E+00 0. -1.
<mgrwt>
<rscale>  0 0.11895916E+04</rscale>
<asrwt>0</asrwt>
<pdfrwt beam="1">  1        1 0.18587061E+00 0.11895916E+04</pdfrwt>
<pdfrwt beam="2">  1       -1 0.45050368E-01 0.11895916E+04</pdfrwt>
<totfact> 0.50996666E+01</totfact>
</mgrwt>
</event>
<event>
 6    1  0.1014650E-006  0.1639969E+04  0.7818608E-02  0.8796363E-01
          1   -1    0    0  501    0  0.00000000000E+00  0.00000000000E+00  0.17509075918E+04  0.17509075918E+04  0.00000000000E+00 0. -1.
         -1   -1    0    0    0  501 -0.00000000000E+00 -0.00000000000E+00 -0.38401495273E+03  0.38401495273E+03  0.00000000000E+00 0.  1.
         23    2    1    2    0    0  0.55670447048E+03 -0.23200509500E+03 -0.33373202973E+02  0.61029450467E+03  0.87174423976E+02 0.  0.
         13    1    3    3    0    0  0.52716711419E+03 -0.21845645476E+03 -0.10824592412E+02  0.57074123796E+03  0.00000000000E+00 0.  1.
        -13    1    3    3    0    0  0.29537356287E+02 -0.13548640239E+02 -0.22548610562E+02  0.39553266705E+02  0.00000000000E+00 0. -1.
         22    1    1    2    0    0 -0.55670447048E+03  0.23200509500E+03  0.14002658420E+04  0.15246280398E+04  0.00000000000E+00 0. -1.
<mgrwt>
<rscale>  0 0.16399691E+04</rscale>
<asrwt>0</asrwt>
<pdfrwt beam="1">  1        1 0.26937039E+00 0.16399691E+04</pdfrwt>
<pdfrwt beam="2">  1       -1 0.59079224E-01 0.16399691E+04</pdfrwt>
<totfact> 0.12220515E+01</totfact>
</mgrwt>
</event>
<event>
 6    1  0.1014650E-006  0.4227854E+04  0.7818608E-02  0.7960095E-01
          2   -1    0    0  501    0  0.00000000000E+00  0.00000000000E+00  0.18607815601E+04  0.18607815601E+04  0.00000000000E+00 0. -1.
         -2   -1    0    0    0  501 -0.00000000000E+00 -0.00000000000E+00 -0.24015106282E+04  0.24015106282E+04  0.00000000000E+00 0.  1.
         23    2    1    2    0    0  0.13347313015E+04  0.15867612214E+04  0.13933769127E+03  0.20801350863E+04  0.90709227260E+02 0.  0.
         13    1    3    3    0    0  0.36920085993E+03  0.50350399064E+03  0.40742069741E+02  0.62568798918E+03  0.00000000000E+00 0. -1.
        -13    1    3    3    0    0  0.96553044152E+03  0.10832572308E+04  0.98595621526E+02  0.14544470971E+04  0.00000000000E+00 0.  1.
         22    1    1    2    0    0 -0.13347313015E+04 -0.15867612214E+04 -0.68006675940E+03  0.21821571021E+04  0.00000000000E+00 0. -1.
<mgrwt>
<rscale>  0 0.42278537E+04</rscale>
<asrwt>0</asrwt>
<pdfrwt beam="1">  1        2 0.28627409E+00 0.42278537E+04</pdfrwt>
<pdfrwt beam="2">  1       -2 0.36946317E+00 0.42278537E+04</pdfrwt>
<totfact> 0.72346595E-02</totfact>
</mgrwt>
</event>
<event>
 6    1  0.1014650E-006  0.2431855E+04  0.7818608E-02  0.8427673E-01
          1   -1    0    0  501    0  0.00000000000E+00  0.00000000000E+00  0.94713709530E+03  0.94713709530E+03  0.00000000000E+00 0. -1.
         -1   -1    0    0    0  501 -0.00000000000E+00 -0.00000000000E+00 -0.15609985455E+04  0.15609985455E+04  0.00000000000E+00 0.  1.
         23    2    1    2    0    0 -0.73258898793E+03  0.78996237911E+03  0.26963368821E+03  0.11148335037E+04  0.97078470678E+02 0.  0.
         13    1    3    3    0    0 -0.66922268392E+03  0.75665927398E+03  0.25270351159E+03  0.10412738940E+04  0.00000000000E+00 0. -1.
        -13    1    3    3    0    0 -0.63366304012E+02  0.33303105136E+02  0.16930176616E+02  0.73559609678E+02  0.00000000000E+00 0.  1.
         22    1    1    2    0    0  0.73258898793E+03 -0.78996237911E+03 -0.88349513837E+03  0.13933021371E+04  0.00000000000E+00 0.  1.
<mgrwt>
<rscale>  0 0.24318550E+04</rscale>
<asrwt>0</asrwt>
<pdfrwt beam="1">  1        1 0.14571340E+00 0.24318550E+04</pdfrwt>
<pdfrwt beam="2">  1       -1 0.24015362E+00 0.24318550E+04</pdfrwt>
<totfact> 0.12043686E+00</totfact>
</mgrwt>
</event>
<event>
 6    1  0.1014650E-006  0.4384082E+04  0.7818608E-02  0.7931251E-01
          2   -1    0    0  501    0  0.00000000000E+00  0.00000000000E+00  0.29236278152E+04  0.29236278152E+04  0.00000000000E+00 0. -1.
         -2   -1    0    0    0  501 -0.00000000000E+00 -0.00000000000E+00 -0.16435213649E+04  0.16435213649E+04  0.00000000000E+00 0.  1.
         23    2    1    2    0    0 -0.21074169348E+04 -0.40422544061E+03  0.17870183382E+03  0.21551590323E+04  0.90397818300E+02 0.  0.
         11    1    3    3    0    0 -0.15060795103E+04 -0.31967702930E+03  0.10077455892E+03  0.15429272200E+04  0.00000000000E+00 0.  1.
        -11    1    3    3    0    0 -0.60133742445E+03 -0.84548411307E+02  0.77927274902E+02  0.61223181236E+03  0.00000000000E+00 0. -1.
         22    1    1    2    0    0  0.21074169348E+04  0.40422544061E+03  0.11014046165E+04  0.24119901478E+04  0.00000000000E+00 0. -1.
<mgrwt>
<rscale>  0 0.43840825E+04</rscale>
<asrwt>0</asrwt>
<pdfrwt beam="1">  1        2 0.44978889E+00 0.43840825E+04</pdfrwt>
<pdfrwt beam="2">  1       -2 0.25284944E+00 0.43840825E+04</pdfrwt>
<totfact> 0.91668765E-02</totfact>
</mgrwt>
</event>
<event>
 6    1  0.1014650E-006  0.1492556E+04  0.7818608E-02  0.8889419E-01
         -1   -1    0    0    0  501 -0.00000000000E+00  0.00000000000E+00  0.38530369473E+03  0.38530369473E+03  0.00000000000E+00 0.  1.
          1   -1    0    0  501    0  0.00000000000E+00 -0.00000000000E+00 -0.14454326321E+04  0.14454326321E+04  0.00000000000E+00 0. -1.
         23    2    1    2    0    0 -0.20117232346E+03  0.50556332639E+03  0.89464716662E+02  0.55887542637E+03  0.90957275481E+02 0.  0.
         11    1    3    3    0    0 -0.92323855876E+02  0.34693416681E+03  0.49797670577E+02  0.36244560759E+03  0.00000000000E+00 0. -1.
        -11    1    3    3    0    0 -0.10884846758E+03  0.15862915957E+03  0.39667046085E+02  0.19642981878E+03  0.00000000000E+00 0.  1.
         22    1    1    2    0    0  0.20117232346E+03 -0.50556332639E+03 -0.11495936540E+04  0.12718609004E+04  0.00000000000E+00 0.  1.
<mgrwt>
<rscale>  0 0.14925556E+04</rscale>
<asrwt>0</asrwt>
<pdfrwt beam="1">  1        1 0.22237425E+00 0.14925556E+04</pdfrwt>
<pdfrwt beam="2">  1       -1 0.59277493E-01 0.14925556E+04</pdfrwt>
<totfact> 0.19935562E+01</totfact>
</mgrwt>
</event>
<event>
 6    1  0.1014650E-006  0.2296931E+04  0.7818608E-02  0.8479132E-01
          2   -1    0    0  501    0  0.00000000000E+00  0.00000000000E+00  0.14037276883E+04  0.14037276883E+04  0.00000000000E+00 0. -1.
         -2   -1    0    0    0  501 -0.00000000000E+00 -0.00000000000E+00 -0.93962154791E+03  0.93962154791E+03  0.00000000000E+00 0.  1.
         23    2    1    2    0    0 -0.12456122602E+03  0.11395396316E+04  0.20372743976E+03  0.11678224867E+04  0.90765741659E+02 0.  0.
         11    1    3    3    0    0 -0.92059089615E+02  0.64332264054E+03  0.15541309408E+03  0.66820066269E+03  0.00000000000E+00 0.  1.
        -11    1    3    3    0    0 -0.32502136409E+02  0.49621699103E+03  0.48314345685E+02  0.49962182404E+03  0.00000000000E+00 0. -1.
         22    1    1    2    0    0  0.12456122602E+03 -0.11395396316E+04  0.26037870060E+03  0.11755267495E+04  0.00000000000E+00 0. -1.
<mgrwt>
<rscale>  0 0.22969308E+04</rscale>
<asrwt>0</asrwt>
<pdfrwt beam="1">  1        2 0.21595811E+00 0.22969308E+04</pdfrwt>
<pdfrwt beam="2">  1       -2 0.14455716E+00 0.22969308E+04</pdfrwt>
<totfact> 0.43141084E+00</totfact>
</mgrwt>
</event>
<event>
 6    1  0.1014650E-006  0.2365085E+04  0.7818608E-02  0.8452692E-01
         -2   -1    0    0    0  501 -0.00000000000E+00  0.00000000000E+00  0.51909825758E+03  0.51909825758E+03  0.00000000000E+00 0.  1.
          2   -1    0    0  501    0  0.00000000000E+00 -0.00000000000E+00 -0.26939143430E+04  0.26939143430E+04  0.00000000000E+00 0. -1.
         23    2    1    2    0    0 -0.41601767475E+03  0.10202032683E+04 -0.16653933312E+04  0.19991769623E+04  0.96375124521E+02 0.  0.
         13    1    3    3    0    0 -0.15176979807E+03  0.29156611273E+03 -0.55489624395E+03  0.64494551029E+03  0.00000000000E+00 0.  1.
        -13    1    3    3    0    0 -0.26424787668E+03  0.72863715556E+03 -0.11104970872E+04  0.13542314520E+04  0.00000000000E+00 0. -1.
         22    1    1    2    0    0  0.41601767475E+03 -0.10202032683E+04 -0.50942275429E+03  0.12138356384E+04  0.00000000000E+00 0.  1.
<mgrwt>
<rscale>  0 0.23650846E+04</rscale>
<asrwt>0</asrwt>
<pdfrwt beam="1">  1        2 0.41444836E+00 0.23650846E+04</pdfrwt>
<pdfrwt beam="2">  1       -2 0.79861271E-01 0.23650846E+04</pdfrwt>
<totfact> 0.33513385E+00</totfact>
</mgrwt>
</event>
<event>
 6    1  0.1014650E-006  0.2776789E+04  0.7818608E-02  0.8310511E-01
         -2   -1    0    0    0  501 -0.00000000000E+00  0.00000000000E+00  0.80380438840E+03  0.80380438840E+03  0.00000000000E+00 0.  1.
          2   -1    0    0  501    0  0.00000000000E+00 -0.00000000000E+00 -0.23981454109E+04  0.23981454109E+04  0.00000000000E+00 0. -1.
         23    2    1    2    0    0 -0.12594472438E+04  0.43140994512E+03 -0.12460717436E+04  0.18258635406E+04  0.93600096353E+02 0.  0.
         13    1    3    3    0    0 -0.93861397758E+03  0.28198087031E+03 -0.93920539831E+03  0.13574299946E+04  0.00000000000E+00 0.  1.
        -13    1    3    3    0    0 -0.32083326625E+03  0.14942907481E+03 -0.30686634526E+03  0.46843354596E+03  0.00000000000E+00 0. -1.
         22    1    1    2    0    0  0.12594472438E+04 -0.43140994512E+03 -0.34826927894E+03  0.13760862587E+04  0.00000000000E+00 0.  1.
<mgrwt>
<rscale>  0 0.27767894E+04</rscale>
<asrwt>0</asrwt>
<pdfrwt beam="1">  1        2 0.36894543E+00 0.27767894E+04</pdfrwt>
<pdfrwt beam="2">  1       -2 0.12366222E+00 0.27767894E+04</pdfrwt>
<totfact> 0.17111824E+00</totfact>
</mgrwt>
</event>
<event>
 6    1  0.1014650E-006  0.4405973E+03  0.7818608E-02  0.1030564E+00
         -1   -1    0    0    0  501 -0.00000000000E+00  0.00000000000E+00  0.25203678795E+03  0.25203678795E+03  0.00000000000E+00 0.  1.
          1   -1    0    0  501    0  0.00000000000E+00 -0.00000000000E+00 -0.19255720706E+03  0.19255720706E+03  0.00000000000E+00 0. -1.
         23    2    1    2    0    0  0.60320594686E+02  0.79849424268E+02 -0.15599499661E+03  0.20701495923E+03  0.92229331977E+02 0.  0.
         11    1    3    3    0    0 -0.18333172760E+02  0.60854030277E+01 -0.58632222752E+02  0.61732284085E+02  0.00000000000E+00 0. -1.
        -11    1    3    3    0    0  0.78653767446E+02  0.73764021241E+02 -0.97362773856E+02  0.14528267514E+03  0.00000000000E+00 0.  1.
         22    1    1    2    0    0 -0.60320594686E+02 -0.79849424268E+02  0.21547457749E+03  0.23757903578E+03  0.00000000000E+00 0.  1.
<mgrwt>
<rscale>  0 0.44059732E+03</rscale>
<asrwt>0</asrwt>
<pdfrwt beam="1">  1        1 0.29624186E-01 0.44059732E+03</pdfrwt>
<pdfrwt beam="2">  1       -1 0.38774890E-01 0.44059732E+03</pdfrwt>
<totfact> 0.10089521E+03</totfact>
</mgrwt>
</event>
<event>
 6    1  0.1014650E-006  0.2266428E+04  0.7818608E-02  0.8491277E-01
          1   -1    0    0  501    0  0.00000000000E+00  0.00000000000E+00  0.26065184572E+04  0.26065184572E+04  0.00000000000E+00 0. -1.
         -1   -1    0    0    0  501 -0.00000000000E+00 -0.00000000000E+00 -0.49267786488E+03  0.49267786488E+03  0.00000000000E+00 0.  1.
         23    2    1    2    0    0 -0.86133041932E+03 -0.28983778184E+03  0.13697635040E+03  0.92344627624E+03  0.89969291931E+02 0.  0.
         11    1    3    3    0    0 -0.31560652141E+03 -0.61576519336E+02  0.40661224041E+02  0.32411800201E+03  0.00000000000E+00 0.  1.
        -11    1    3    3    0    0 -0.54572389791E+03 -0.22826126251E+03  0.96315126359E+02  0.59932827422E+03  0.00000000000E+00 0. -1.
         22    1    1    2    0    0  0.86133041932E+03  0.28983778184E+03  0.19768642419E+04  0.21757500458E+04  0.00000000000E+00 0. -1.
<mgrwt>
<rscale>  0 0.22664280E+04</rscale>
<asrwt>0</asrwt>
<pdfrwt beam="1">  1        1 0.40100283E+00 0.22664280E+04</pdfrwt>
<pdfrwt beam="2">  1       -1 0.75796596E-01 0.22664280E+04</pdfrwt>
<totfact> 0.18100135E+00</totfact>
</mgrwt>
</event>
<event>
 6    1  0.1014650E-006  0.2220659E+04  0.7818608E-02  0.8509878E-01
         -1   -1    0    0    0  501 -0.00000000000E+00  0.00000000000E+00  0.12145849327E+04  0.12145849327E+04  0.00000000000E+00 0.  1.
          1   -1    0    0  501    0  0.00000000000E+00 -0.00000000000E+00 -0.10150231103E+04  0.10150231103E+04  0.00000000000E+00 0. -1.
         23    2    1    2    0    0  0.90924507416E+03 -0.61008868269E+03  0.27317327192E+03  0.11321776574E+04  0.90927475904E+02 0.  0.
         11    1    3    3    0    0  0.14191644156E+03 -0.89224655255E+02  0.90051549222E+01  0.16787616956E+03  0.00000000000E+00 0. -1.
        -11    1    3    3    0    0  0.76732863260E+03 -0.52086402744E+03  0.26416811700E+03  0.96430148788E+03  0.00000000000E+00 0.  1.
         22    1    1    2    0    0 -0.90924507416E+03  0.61008868269E+03 -0.73611449567E+02  0.10974303856E+04  0.00000000000E+00 0. -1.
<mgrwt>
<rscale>  0 0.22206592E+04</rscale>
<asrwt>0</asrwt>
<pdfrwt beam="1">  1        1 0.15615740E+00 0.22206592E+04</pdfrwt>
<pdfrwt beam="2">  1       -1 0.18685922E+00 0.22206592E+04</pdfrwt>
<totfact> 0.24923054E+00</totfact>
</mgrwt>
</event>
<event>
 6    1  0.1014650E-006  0.1884573E+04  0.7818608E-02  0.8662574E-01
         -2   -1    0    0    0  501 -0.00000000000E+00  0.00000000000E+00  0.20424875791E+04  0.20424875791E+04  0.00000000000E+00 0.  1.
          2   -1    0    0  501    0  0.00000000000E+00 -0.00000000000E+00 -0.43471686756E+03  0.43471686756E+03  0.00000000000E+00 0. -1.
         23    2    1    2    0    0 -0.31297177195E+03 -0.78777025312E+03  0.13418608525E+04  0.15888118787E+04  0.72106425583E+02 0.  0.
         13    1    3    3    0    0 -0.25902066883E+03 -0.57111438697E+03  0.96936573518E+03  0.11545272965E+04  0.00000000000E+00 0.  1.
        -13    1    3    3    0    0 -0.53951103124E+02 -0.21665586615E+03  0.37249511731E+03  0.43428458214E+03  0.00000000000E+00 0. -1.
         22    1    1    2    0    0  0.31297177195E+03  0.78777025312E+03  0.26590985907E+03  0.88839256801E+03  0.00000000000E+00 0. -1.
<mgrwt>
<rscale>  0 0.18845730E+04</rscale>
<asrwt>0</asrwt>
<pdfrwt beam="1">  1        2 0.66879519E-01 0.18845730E+04</pdfrwt>
<pdfrwt beam="2">  1       -2 0.31422885E+00 0.18845730E+04</pdfrwt>
<totfact> 0.17665946E+00</totfact>
</mgrwt>
</event>
<event>
 6    1  0.1014650E-006  0.3857703E+04  0.7818608E-02  0.8033884E-01
          2   -1    0    0  501    0  0.00000000000E+00  0.00000000000E+00  0.19508750284E+04  0.19508750284E+04  0.00000000000E+00 0. -1.
         -2   -1    0    0    0  501 -0.00000000000E+00 -0.00000000000E+00 -0.19070762208E+04  0.19070762208E+04  0.00000000000E+00 0.  1.
         23    2    1    2    0    0  0.11338257188E+03 -0.14224418596E+04  0.13181732634E+04  0.19447793528E+04  0.91594361503E+02 0.  0.
         11    1    3    3    0    0  0.70761220369E+02 -0.53311865555E+03  0.45014733230E+03  0.70132394225E+03  0.00000000000E+00 0. -1.
        -11    1    3    3    0    0  0.42621351507E+02 -0.88932320401E+03  0.86802593113E+03  0.12434554105E+04  0.00000000000E+00 0.  1.
         22    1    1    2    0    0 -0.11338257188E+03  0.14224418596E+04 -0.12743744559E+04  0.19131718964E+04  0.00000000000E+00 0.  1.
<mgrwt>
<rscale>  0 0.38577026E+04</rscale>
<asrwt>0</asrwt>
<pdfrwt beam="1">  1        2 0.30013462E+00 0.38577026E+04</pdfrwt>
<pdfrwt beam="2">  1       -2 0.29339634E+00 0.38577026E+04</pdfrwt>
<totfact> 0.19806696E-01</totfact>
</mgrwt>
</event>
<event>
 6    1  0.1014650E-006  0.3562480E+04  0.7818608E-02  0.8099141E-01
         -2   -1    0    0    0  501 -0.00000000000E+00  0.00000000000E+00  0.16692627851E+04  0.16692627851E+04  0.00000000000E+00 0.  1.
          2   -1    0    0  501    0  0.00000000000E+00 -0.00000000000E+00 -0.19007290592E+04  0.19007290592E+04  0.00000000000E+00 0. -1.
         23    2    1    2    0    0  0.21356645609E+02  0.56170614196E+03 -0.18084053947E+04  0.18958631498E+04  0.89426589454E+02 0.  0.
         13    1    3    3    0    0  0.30274331371E+02  0.72536820429E+02 -0.29820195215E+03  0.30838698047E+03  0.00000000000E+00 0.  1.
        -13    1    3    3    0    0 -0.89176857623E+01  0.48916932154E+03 -0.15102034425E+04  0.15874761693E+04  0.00000000000E+00 0. -1.
         22    1    1    2    0    0 -0.21356645609E+02 -0.56170614196E+03  0.15769391205E+04  0.16741286946E+04  0.00000000000E+00 0.  1.
<mgrwt>
<rscale>  0 0.35624802E+04</rscale>
<asrwt>0</asrwt>
<pdfrwt beam="1">  1        2 0.29241986E+00 0.35624802E+04</pdfrwt>
<pdfrwt beam="2">  1       -2 0.25680966E+00 0.35624802E+04</pdfrwt>
<totfact> 0.36198079E-01</totfact>
</mgrwt>
</event>
<event>
 6    1  0.1014650E-006  0.1251544E+04  0.7818608E-02  0.9068899E-01
          2   -1    0    0  501    0  0.00000000000E+00  0.00000000000E+00  0.13465003165E+04  0.13465003165E+04  0.00000000000E+00 0. -1.
         -2   -1    0    0    0  501 -0.00000000000E+00 -0.00000000000E+00 -0.29082120705E+03  0.29082120705E+03  0.00000000000E+00 0.  1.
         23    2    1    2    0    0  0.21680541182E+03 -0.29387648767E+03  0.11901209888E+04  0.12481652624E+04  0.90335916215E+02 0.  0.
         13    1    3    3    0    0  0.12344382041E+03 -0.23326470555E+03  0.79472463484E+03  0.83739957301E+03  0.00000000000E+00 0. -1.
        -13    1    3    3    0    0  0.93361591407E+02 -0.60611782119E+02  0.39539635397E+03  0.41076568943E+03  0.00000000000E+00 0.  1.
         22    1    1    2    0    0 -0.21680541182E+03  0.29387648767E+03 -0.13444187940E+03  0.38915626108E+03  0.00000000000E+00 0.  1.
<mgrwt>
<rscale>  0 0.12515444E+04</rscale>
<asrwt>0</asrwt>
<pdfrwt beam="1">  1        2 0.20715389E+00 0.12515444E+04</pdfrwt>
<pdfrwt beam="2">  1       -2 0.44741725E-01 0.12515444E+04</pdfrwt>
<totfact> 0.72338601E+01</totfact>
</mgrwt>
</event>
<event>
 6    1  0.1014650E-006  0.2892193E+04  0.7818608E-02  0.8275204E-01
          2   -1    0    0  501    0  0.00000000000E+00  0.00000000000E+00  0.21503125605E+04  0.21503125605E+04  0.00000000000E+00 0. -1.
         -2   -1    0    0    0  501 -0.00000000000E+00 -0.00000000000E+00 -0.97250766092E+03  0.97250766092E+03  0.00000000000E+00 0.  1.
         23    2    1    2    0    0 -0.95915644023E+03 -0.10514612004E+04  0.85725056818E+03  0.16639484614E+04  0.91072569317E+02 0.  0.
         13    1    3    3    0    0 -0.24682660124E+03 -0.22342675763E+03  0.17514564202E+03  0.37618995604E+03  0.00000000000E+00 0.  1.
        -13    1    3    3    0    0 -0.71232983898E+03 -0.82803444275E+03  0.68210492616E+03  0.12877585054E+04  0.00000000000E+00 0. -1.
         22    1    1    2    0    0  0.95915644023E+03  0.10514612004E+04  0.32055433138E+03  0.14588717600E+04  0.00000000000E+00 0.  1.
<mgrwt>
<rscale>  0 0.28921932E+04</rscale>
<asrwt>0</asrwt>
<pdfrwt beam="1">  1        2 0.33081732E+00 0.28921932E+04</pdfrwt>
<pdfrwt beam="2">  1       -2 0.14961656E+00 0.28921932E+04</pdfrwt>
<totfact> 0.14345948E+00</totfact>
</mgrwt>
</event>
<event>
 6    1  0.1014650E-006  0.1543030E+04  0.7818608E-02  0.8856332E-01
         -1   -1    0    0    0  501 -0.00000000000E+00  0.00000000000E+00  0.44181445963E+03  0.44181445963E+03  0.00000000000E+00 0.  1.
          1   -1    0    0  501    0  0.00000000000E+00 -0.00000000000E+00 -0.13472524720E+04  0.13472524720E+04  0.00000000000E+00 0. -1.
         23    2    1    2    0    0  0.28948713753E+03 -0.11541735849E+03  0.36064632645E+03  0.48519058687E+03  0.90665116630E+02 0.  0.
         11    1    3    3    0    0  0.10917434045E+03 -0.91935627831E+02  0.15987177647E+03  0.21431327815E+03  0.00000000000E+00 0.  1.
        -11    1    3    3    0    0  0.18031279708E+03 -0.23481730660E+02  0.20077454998E+03  0.27087730873E+03  0.00000000000E+00 0. -1.
         22    1    1    2    0    0 -0.28948713753E+03  0.11541735849E+03 -0.12660843388E+04  0.13038763448E+04  0.00000000000E+00 0. -1.
<mgrwt>
<rscale>  0 0.15430303E+04</rscale>
<asrwt>0</asrwt>
<pdfrwt beam="1">  1        1 0.20726961E+00 0.15430303E+04</pdfrwt>
<pdfrwt beam="2">  1       -1 0.67971456E-01 0.15430303E+04</pdfrwt>
<totfact> 0.17683301E+01</totfact>
</mgrwt>
</event>
<event>
 6    1  0.1014650E-006  0.2546254E+04  0.7818608E-02  0.8386690E-01
          2   -1    0    0  501    0  0.00000000000E+00  0.00000000000E+00  0.11852156284E+04  0.11852156284E+04  0.00000000000E+00 0. -1.
         -2   -1    0    0    0  501 -0.00000000000E+00 -0.00000000000E+00 -0.13675595428E+04  0.13675595428E+04  0.00000000000E+00 0.  1.
         23    2    1    2    0    0 -0.18477319061E+03  0.82891333314E+03  0.85748467893E+03  0.12102097354E+04  0.89939887236E+02 0.  0.
         11    1    3    3    0    0 -0.82302221168E+02  0.45730337772E+03  0.41096296597E+03  0.62031491541E+03  0.00000000000E+00 0. -1.
        -11    1    3    3    0    0 -0.10247096945E+03  0.37160995542E+03  0.44652171296E+03  0.58989482002E+03  0.00000000000E+00 0.  1.
         22    1    1    2    0    0  0.18477319061E+03 -0.82891333314E+03 -0.10398285934E+04  0.13425654358E+04  0.00000000000E+00 0.  1.
<mgrwt>
<rscale>  0 0.25462545E+04</rscale>
<asrwt>0</asrwt>
<pdfrwt beam="1">  1        2 0.18234087E+00 0.25462545E+04</pdfrwt>
<pdfrwt beam="2">  1       -2 0.21039377E+00 0.25462545E+04</pdfrwt>
<totfact> 0.19552670E+00</totfact>
</mgrwt>
</event>
<event>
 6    1  0.1014650E-006  0.2464143E+04  0.7818608E-02  0.8415872E-01
          2   -1    0    0  501    0  0.00000000000E+00  0.00000000000E+00  0.32162467594E+04  0.32162467594E+04  0.00000000000E+00 0. -1.
         -2   -1    0    0    0  501 -0.00000000000E+00 -0.00000000000E+00 -0.47197869711E+03  0.47197869711E+03  0.00000000000E+00 0.  1.
         23    2    1    2    0    0 -0.11558569589E+04 -0.22385738460E+02  0.74361055479E+03  0.13775682138E+04  0.90725386503E+02 0.  0.
         13    1    3    3    0    0 -0.43939184346E+03 -0.48975028901E+02  0.26298713343E+03  0.51441809640E+03  0.00000000000E+00 0.  1.
        -13    1    3    3    0    0 -0.71646511548E+03  0.26589290441E+02  0.48062342136E+03  0.86315011743E+03  0.00000000000E+00 0. -1.
         22    1    1    2    0    0  0.11558569589E+04  0.22385738460E+02  0.20006575075E+04  0.23106572427E+04  0.00000000000E+00 0. -1.
<mgrwt>
<rscale>  0 0.24641428E+04</rscale>
<asrwt>0</asrwt>
<pdfrwt beam="1">  1        2 0.49480718E+00 0.24641428E+04</pdfrwt>
<pdfrwt beam="2">  1       -2 0.72612109E-01 0.24641428E+04</pdfrwt>
<totfact> 0.19429087E+00</totfact>
</mgrwt>
</event>
<event>
 6    1  0.1014650E-006  0.2337038E+04  0.7818608E-02  0.8463459E-01
          2   -1    0    0  501    0  0.00000000000E+00  0.00000000000E+00  0.15750909754E+04  0.15750909754E+04  0.00000000000E+00 0. -1.
         -2   -1    0    0    0  501 -0.00000000000E+00 -0.00000000000E+00 -0.86689404785E+03  0.86689404785E+03  0.00000000000E+00 0.  1.
         23    2    1    2    0    0  0.10251213844E+04 -0.85927974436E+02 -0.22045380016E+03  0.10561099771E+04  0.92254735671E+02 0.  0.
         13    1    3    3    0    0  0.73149864877E+03 -0.28341937148E+02 -0.18286580852E+03  0.75454187589E+03  0.00000000000E+00 0. -1.
        -13    1    3    3    0    0  0.29362273560E+03 -0.57586037288E+02 -0.37587991634E+02  0.30156810121E+03  0.00000000000E+00 0.  1.
         22    1    1    2    0    0 -0.10251213844E+04  0.85927974436E+02  0.92865072771E+03  0.13858750462E+04  0.00000000000E+00 0. -1.
<mgrwt>
<rscale>  0 0.23370383E+04</rscale>
<asrwt>0</asrwt>
<pdfrwt beam="1">  1        2 0.24232169E+00 0.23370383E+04</pdfrwt>
<pdfrwt beam="2">  1       -2 0.13336832E+00 0.23370383E+04</pdfrwt>
<totfact> 0.42368401E+00</totfact>
</mgrwt>
</event>
<event>
 6    1  0.1023000E-006  0.2006184E+04  0.7818608E-02  0.8603735E-01
          2   -1    0    0  501    0  0.00000000000E+00  0.00000000000E+00  0.10490844003E+04  0.10490844003E+04  0.00000000000E+00 0. -1.
         -2   -1    0    0    0  501 -0.00000000000E+00 -0.00000000000E+00 -0.95911624488E+03  0.95911624488E+03  0.00000000000E+00 0.  1.
         23    2    1    2    0    0 -0.53323050526E+03  0.11234358261E+02 -0.80308332480E+03  0.96800742810E+03  0.87376036446E+02 0.  0.
         11    1    3    3    0    0 -0.24869499153E+03 -0.32572833886E+02 -0.41293358717E+03  0.48314007879E+03  0.00000000000E+00 0.  1.
        -11    1    3    3    0    0 -0.28453551373E+03  0.43807192147E+02 -0.39014973763E+03  0.48486734931E+03  0.00000000000E+00 0. -1.
         22    1    1    2    0    0  0.53323050526E+03 -0.11234358261E+02  0.89305148022E+03  0.10401932171E+04  0.00000000000E+00 0. -1.
<mgrwt>
<rscale>  0 0.20061843E+04</rscale>
<asrwt>0</asrwt>
<pdfrwt beam="1">  1        2 0.16139760E+00 0.20061843E+04</pdfrwt>
<pdfrwt beam="2">  1       -2 0.14755634E+00 0.20061843E+04</pdfrwt>
<totfact> 0.68109887E+00</totfact>
</mgrwt>
</event>
<event>
 6    1  0.1014650E-006  0.7963908E+03  0.7818608E-02  0.9565256E-01
          1   -1    0    0  501    0  0.00000000000E+00  0.00000000000E+00  0.58849578937E+03  0.58849578937E+03  0.00000000000E+00 0. -1.
         -1   -1    0    0    0  501 -0.00000000000E+00 -0.00000000000E+00 -0.26943197868E+03  0.26943197868E+03  0.00000000000E+00 0.  1.
         23    2    1    2    0    0 -0.17932041393E+03  0.18688211403E+03  0.48019310627E+03  0.55289762971E+03  0.89608226407E+02 0.  0.
         11    1    3    3    0    0 -0.12183463114E+03  0.16667417257E+03  0.31310037716E+03  0.37504106885E+03  0.00000000000E+00 0. -1.
        -11    1    3    3    0    0 -0.57485782794E+02  0.20207941455E+02  0.16709272911E+03  0.17785656086E+03  0.00000000000E+00 0.  1.
         22    1    1    2    0    0  0.17932041393E+03 -0.18688211403E+03 -0.16112929558E+03  0.30503013833E+03  0.00000000000E+00 0.  1.
<mgrwt>
<rscale>  0 0.79639082E+03</rscale>
<asrwt>0</asrwt>
<pdfrwt beam="1">  1        1 0.90537813E-01 0.79639082E+03</pdfrwt>
<pdfrwt beam="2">  1       -1 0.41451074E-01 0.79639082E+03</pdfrwt>
<totfact> 0.20309869E+02</totfact>
</mgrwt>
</event>
<event>
 6    1  0.1014650E-006  0.2643651E+04  0.7818608E-02  0.8353523E-01
         -1   -1    0    0    0  501 -0.00000000000E+00  0.00000000000E+00  0.13363251247E+04  0.13363251247E+04  0.00000000000E+00 0.  1.
          1   -1    0    0  501    0  0.00000000000E+00 -0.00000000000E+00 -0.13074832086E+04  0.13074832086E+04  0.00000000000E+00 0. -1.
         23    2    1    2    0    0 -0.12610094347E+04 -0.30491900611E+03 -0.22990325593E+03  0.13209064251E+04  0.93903577446E+02 0.  0.
         13    1    3    3    0    0 -0.73154983924E+03 -0.13184735019E+03 -0.14721000176E+03  0.75777283909E+03  0.00000000000E+00 0. -1.
        -13    1    3    3    0    0 -0.52945959551E+03 -0.17307165592E+03 -0.82693254166E+02  0.56313358597E+03  0.00000000000E+00 0.  1.
         22    1    1    2    0    0  0.12610094347E+04  0.30491900611E+03  0.25874517194E+03  0.13229019082E+04  0.00000000000E+00 0.  1.
<mgrwt>
<rscale>  0 0.26436510E+04</rscale>
<asrwt>0</asrwt>
<pdfrwt beam="1">  1        1 0.20115126E+00 0.26436510E+04</pdfrwt>
<pdfrwt beam="2">  1       -1 0.20558848E+00 0.26436510E+04</pdfrwt>
<totfact> 0.10800924E+00</totfact>
</mgrwt>
</event>
<event>
 6    1  0.1014650E-006  0.1779946E+04  0.7818608E-02  0.8717037E-01
         -4   -1    0    0    0  501 -0.00000000000E+00  0.00000000000E+00  0.95413388655E+03  0.95413388655E+03  0.00000000000E+00 0.  1.
          4   -1    0    0  501    0  0.00000000000E+00 -0.00000000000E+00 -0.83012667955E+03  0.83012667955E+03  0.00000000000E+00 0. -1.
         23    2    1    2    0    0 -0.62838289977E+03 -0.55839895148E+03  0.34785333958E+03  0.91432864416E+03  0.91216587997E+02 0.  0.
         13    1    3    3    0    0 -0.19864445938E+03 -0.19506463061E+03  0.71789481369E+02  0.28751271449E+03  0.00000000000E+00 0.  1.
        -13    1    3    3    0    0 -0.42973844039E+03 -0.36333432087E+03  0.27606385821E+03  0.62681592966E+03  0.00000000000E+00 0. -1.
         22    1    1    2    0    0  0.62838289977E+03  0.55839895148E+03 -0.22384613258E+03  0.86993192194E+03  0.00000000000E+00 0. -1.
<mgrwt>
<rscale>  0 0.17799461E+04</rscale>
<asrwt>0</asrwt>
<pdfrwt beam="1">  1        4 0.12771180E+00 0.17799461E+04</pdfrwt>
<pdfrwt beam="2">  1       -4 0.14678983E+00 0.17799461E+04</pdfrwt>
<totfact> 0.27014582E-01</totfact>
</mgrwt>
</event>
<event>
 6    1  0.1014650E-006  0.6198606E+03  0.7818608E-02  0.9865037E-01
          1   -1    0    0  501    0  0.00000000000E+00  0.00000000000E+00  0.72933755819E+03  0.72933755819E+03  0.00000000000E+00 0. -1.
         -1   -1    0    0    0  501 -0.00000000000E+00 -0.00000000000E+00 -0.13170415014E+03  0.13170415014E+03  0.00000000000E+00 0.  1.
         23    2    1    2    0    0 -0.11453533841E+03  0.22719579456E+03  0.76661378333E+02  0.28125887954E+03  0.92159196935E+02 0.  0.
         11    1    3    3    0    0  0.68664128162E+01  0.27403762995E+01  0.17943683610E+02  0.19407036577E+02  0.00000000000E+00 0. -1.
        -11    1    3    3    0    0 -0.12140175123E+03  0.22445541827E+03  0.58717694723E+02  0.26185184296E+03  0.00000000000E+00 0.  1.
         22    1    1    2    0    0  0.11453533841E+03 -0.22719579456E+03  0.52097202972E+03  0.57978282879E+03  0.00000000000E+00 0.  1.
<mgrwt>
<rscale>  0 0.61986058E+03</rscale>
<asrwt>0</asrwt>
<pdfrwt beam="1">  1        1 0.11220578E+00 0.61986058E+03</pdfrwt>
<pdfrwt beam="2">  1       -1 0.20262177E-01 0.61986058E+03</pdfrwt>
<totfact> 0.51730745E+02</totfact>
</mgrwt>
</event>
<event>
 6    1  0.1014650E-006  0.2945681E+04  0.7818608E-02  0.8259414E-01
          2   -1    0    0  501    0  0.00000000000E+00  0.00000000000E+00  0.98644214079E+03  0.98644214079E+03  0.00000000000E+00 0. -1.
         -2   -1    0    0    0  501 -0.00000000000E+00 -0.00000000000E+00 -0.21990732383E+04  0.21990732383E+04  0.00000000000E+00 0.  1.
         23    2    1    2    0    0 -0.25282210135E+02  0.11432571804E+04 -0.16082623811E+04  0.19754739404E+04  0.91176926822E+02 0.  0.
         11    1    3    3    0    0  0.23183315073E+02  0.58996821455E+03 -0.87625843654E+03  0.10566119476E+04  0.00000000000E+00 0. -1.
        -11    1    3    3    0    0 -0.48465525207E+02  0.55328896587E+03 -0.73200394458E+03  0.91886199278E+03  0.00000000000E+00 0.  1.
         22    1    1    2    0    0  0.25282210135E+02 -0.11432571804E+04  0.39563128361E+03  0.12100414387E+04  0.00000000000E+00 0. -1.
<mgrwt>
<rscale>  0 0.29456806E+04</rscale>
<asrwt>0</asrwt>
<pdfrwt beam="1">  1        2 0.15176033E+00 0.29456806E+04</pdfrwt>
<pdfrwt beam="2">  1       -2 0.33831896E+00 0.29456806E+04</pdfrwt>
<totfact> 0.40703860E-01</totfact>
</mgrwt>
</event>
<event>
 6    1  0.1014650E-006  0.1596992E+04  0.7818608E-02  0.8822398E-01
          2   -1    0    0  501    0  0.00000000000E+00  0.00000000000E+00  0.21257297253E+04  0.21257297253E+04  0.00000000000E+00 0. -1.
         -2   -1    0    0    0  501 -0.00000000000E+00 -0.00000000000E+00 -0.29994207469E+03  0.29994207469E+03  0.00000000000E+00 0.  1.
         23    2    1    2    0    0 -0.70778428309E+03  0.34525891874E+03  0.10915582134E+04  0.13489846687E+04  0.89988835964E+02 0.  0.
         11    1    3    3    0    0 -0.22096788834E+03  0.15508024651E+03  0.36655616924E+03  0.45523632955E+03  0.00000000000E+00 0. -1.
        -11    1    3    3    0    0 -0.48681639476E+03  0.19017867223E+03  0.72500204420E+03  0.89374833912E+03  0.00000000000E+00 0.  1.
         22    1    1    2    0    0  0.70778428309E+03 -0.34525891874E+03  0.73422943718E+03  0.10766871313E+04  0.00000000000E+00 0. -1.
<mgrwt>
<rscale>  0 0.15969919E+04</rscale>
<asrwt>0</asrwt>
<pdfrwt beam="1">  1        2 0.32703533E+00 0.15969919E+04</pdfrwt>
<pdfrwt beam="2">  1       -2 0.46144936E-01 0.15969919E+04</pdfrwt>
<totfact> 0.24290143E+01</totfact>
</mgrwt>
</event>
<event>
 6    1  0.1014650E-006  0.3743066E+04  0.7818608E-02  0.8058484E-01
         -2   -1    0    0    0  501 -0.00000000000E+00  0.00000000000E+00  0.26633672196E+04  0.26633672196E+04  0.00000000000E+00 0.  1.
          2   -1    0    0  501    0  0.00000000000E+00 -0.00000000000E+00 -0.13151153951E+04  0.13151153951E+04  0.00000000000E+00 0. -1.
         23    2    1    2    0    0  0.25549427173E+02  0.74443144753E+03 -0.11490769230E+04  0.13724354496E+04  0.91489535516E+02 0.  0.
         11    1    3    3    0    0  0.97173307037E+01  0.45661563838E+03 -0.62177694203E+03  0.77149130480E+03  0.00000000000E+00 0.  1.
        -11    1    3    3    0    0  0.15832096470E+02  0.28781580915E+03 -0.52729998097E+03  0.60094414484E+03  0.00000000000E+00 0. -1.
         22    1    1    2    0    0 -0.25549427173E+02 -0.74443144753E+03  0.24973287475E+04  0.26060471650E+04  0.00000000000E+00 0.  1.
<mgrwt>
<rscale>  0 0.37430657E+04</rscale>
<asrwt>0</asrwt>
<pdfrwt beam="1">  1        2 0.20232545E+00 0.37430657E+04</pdfrwt>
<pdfrwt beam="2">  1       -2 0.40974880E+00 0.37430657E+04</pdfrwt>
<totfact> 0.83534500E-02</totfact>
</mgrwt>
</event>
<event>
 6    1  0.1014650E-006  0.3330120E+04  0.7818608E-02  0.8155273E-01
         -2   -1    0    0    0  501 -0.00000000000E+00  0.00000000000E+00  0.15888762971E+04  0.15888762971E+04  0.00000000000E+00 0.  1.
          2   -1    0    0  501    0  0.00000000000E+00 -0.00000000000E+00 -0.17448961626E+04  0.17448961626E+04  0.00000000000E+00 0. -1.
         23    2    1    2    0    0 -0.15098942341E+04  0.53524764533E+03 -0.52661380954E+03  0.16895065105E+04  0.10411294218E+03 0.  0.
         11    1    3    3    0    0 -0.44700333110E+03  0.11257338855E+03 -0.17094882457E+03  0.49163832891E+03  0.00000000000E+00 0. -1.
        -11    1    3    3    0    0 -0.10628909030E+04  0.42267425678E+03 -0.35566498496E+03  0.11978681816E+04  0.00000000000E+00 0.  1.
         22    1    1    2    0    0  0.15098942341E+04 -0.53524764533E+03  0.37059394405E+03  0.16442659491E+04  0.00000000000E+00 0.  1.
<mgrwt>
<rscale>  0 0.33301196E+04</rscale>
<asrwt>0</asrwt>
<pdfrwt beam="1">  1        2 0.26844556E+00 0.33301196E+04</pdfrwt>
<pdfrwt beam="2">  1       -2 0.24444251E+00 0.33301196E+04</pdfrwt>
<totfact> 0.53643636E-01</totfact>
</mgrwt>
</event>
<event>
 6    1  0.1014650E-006  0.4614857E+04  0.7818608E-02  0.7890832E-01
         -2   -1    0    0    0  501 -0.00000000000E+00  0.00000000000E+00  0.16918722301E+04  0.16918722301E+04  0.00000000000E+00 0.  1.
          2   -1    0    0  501    0  0.00000000000E+00 -0.00000000000E+00 -0.31469438230E+04  0.31469438230E+04  0.00000000000E+00 0. -1.
         23    2    1    2    0    0  0.17029541359E+04  0.83755498080E+03 -0.21022438524E+04  0.28337267613E+04  0.95010568553E+02 0.  0.
         11    1    3    3    0    0  0.83107640253E+02  0.27816364350E+02 -0.12271675250E+03  0.15079798188E+03  0.00000000000E+00 0.  1.
        -11    1    3    3    0    0  0.16198464956E+04  0.80973861645E+03 -0.19795270999E+04  0.26829287795E+04  0.00000000000E+00 0. -1.
         22    1    1    2    0    0 -0.17029541359E+04 -0.83755498080E+03  0.64717225948E+03  0.20050892918E+04  0.00000000000E+00 0.  1.
<mgrwt>
<rscale>  0 0.46148573E+04</rscale>
<asrwt>0</asrwt>
<pdfrwt beam="1">  1        2 0.48414520E+00 0.46148573E+04</pdfrwt>
<pdfrwt beam="2">  1       -2 0.26028804E+00 0.46148573E+04</pdfrwt>
<totfact> 0.58512058E-02</totfact>
</mgrwt>
</event>
<event>
 6    1  0.1014650E-006  0.2620325E+04  0.7818608E-02  0.8361330E-01
          2   -1    0    0  501    0  0.00000000000E+00  0.00000000000E+00  0.24625663623E+04  0.24625663623E+04  0.00000000000E+00 0. -1.
         -2   -1    0    0    0  501 -0.00000000000E+00 -0.00000000000E+00 -0.69704737403E+03  0.69704737403E+03  0.00000000000E+00 0.  1.
         23    2    1    2    0    0 -0.44804963497E+03  0.14923716231E+03  0.23553459255E+04  0.24040238860E+04  0.93038754526E+02 0.  0.
         13    1    3    3    0    0 -0.15241045889E+03  0.49560867700E+02  0.59301863702E+03  0.61429335943E+03  0.00000000000E+00 0.  1.
        -13    1    3    3    0    0 -0.29563917608E+03  0.99676294612E+02  0.17623272884E+04  0.17897305266E+04  0.00000000000E+00 0. -1.
         22    1    1    2    0    0  0.44804963497E+03 -0.14923716231E+03 -0.58982693723E+03  0.75558985031E+03  0.00000000000E+00 0.  1.
<mgrwt>
<rscale>  0 0.26203247E+04</rscale>
<asrwt>0</asrwt>
<pdfrwt beam="1">  1        2 0.37885636E+00 0.26203247E+04</pdfrwt>
<pdfrwt beam="2">  1       -2 0.10723806E+00 0.26203247E+04</pdfrwt>
<totfact> 0.22572231E+00</totfact>
</mgrwt>
</event>
<event>
 6    1  0.1093360E-006  0.3270275E+04  0.7818608E-02  0.8170500E-01
          1   -1    0    0  501    0  0.00000000000E+00  0.00000000000E+00  0.20456314223E+04  0.20456314223E+04  0.00000000000E+00 0. -1.
         -1   -1    0    0    0  501 -0.00000000000E+00 -0.00000000000E+00 -0.13070169091E+04  0.13070169091E+04  0.00000000000E+00 0.  1.
         23    2    1    2    0    0  0.30146716009E+02  0.16272175268E+04  0.22160309283E+03  0.16450047759E+04  0.90482473348E+02 0.  0.
         13    1    3    3    0    0 -0.19119000207E+00  0.63348702602E+03  0.43449400321E+02  0.63497535313E+03  0.00000000000E+00 0. -1.
        -13    1    3    3    0    0  0.30337906011E+02  0.99373050074E+03  0.17815369251E+03  0.10100294227E+04  0.00000000000E+00 0.  1.
         22    1    1    2    0    0 -0.30146716009E+02 -0.16272175268E+04  0.51701142032E+03  0.17076435555E+04  0.00000000000E+00 0. -1.
<mgrwt>
<rscale>  0 0.32702751E+04</rscale>
<asrwt>0</asrwt>
<pdfrwt beam="1">  1        1 0.31471253E+00 0.32702751E+04</pdfrwt>
<pdfrwt beam="2">  1       -1 0.20107952E+00 0.32702751E+04</pdfrwt>
<totfact> 0.34143584E-01</totfact>
</mgrwt>
</event>
<event>
 6    1  0.1014650E-006  0.2489164E+04  0.7818608E-02  0.8406856E-01
         -2   -1    0    0    0  501 -0.00000000000E+00  0.00000000000E+00  0.67487614891E+03  0.67487614891E+03  0.00000000000E+00 0.  1.
          2   -1    0    0  501    0  0.00000000000E+00 -0.00000000000E+00 -0.22952130884E+04  0.22952130884E+04  0.00000000000E+00 0. -1.
         23    2    1    2    0    0 -0.28471430806E+03 -0.47819166594E+03  0.51484398576E+03  0.76357001235E+03  0.90803785727E+02 0.  0.
         13    1    3    3    0    0 -0.88545273379E+01 -0.72900271143E+02  0.60498723112E+02  0.95146979380E+02  0.00000000000E+00 0. -1.
        -13    1    3    3    0    0 -0.27585978073E+03 -0.40529139480E+03  0.45434526265E+03  0.66842303297E+03  0.00000000000E+00 0.  1.
         22    1    1    2    0    0  0.28471430806E+03  0.47819166594E+03 -0.21351809252E+04  0.22065192250E+04  0.00000000000E+00 0. -1.
<mgrwt>
<rscale>  0 0.24891642E+04</rscale>
<asrwt>0</asrwt>
<pdfrwt beam="1">  1        2 0.35310970E+00 0.24891642E+04</pdfrwt>
<pdfrwt beam="2">  1       -2 0.10382710E+00 0.24891642E+04</pdfrwt>
<totfact> 0.30749071E+00</totfact>
</mgrwt>
</event>
<event>
 6    1  0.1014650E-006  0.4378742E+04  0.7818608E-02  0.7932216E-01
         -2   -1    0    0    0  501 -0.00000000000E+00  0.00000000000E+00  0.13019613548E+04  0.13019613548E+04  0.00000000000E+00 0.  1.
          2   -1    0    0  501    0  0.00000000000E+00 -0.00000000000E+00 -0.36816340425E+04  0.36816340425E+04  0.00000000000E+00 0. -1.
         23    2    1    2    0    0 -0.68199646121E+03  0.14570900190E+04 -0.28788065400E+04  0.32991473871E+04  0.92821821523E+02 0.  0.
         11    1    3    3    0    0 -0.56001231525E+03  0.11604123243E+04 -0.22333626238E+04  0.25783869308E+04  0.00000000000E+00 0. -1.
        -11    1    3    3    0    0 -0.12198414596E+03  0.29667769473E+03 -0.64544391617E+03  0.72076045628E+03  0.00000000000E+00 0.  1.
         22    1    1    2    0    0  0.68199646121E+03 -0.14570900190E+04  0.49913385233E+03  0.16844480102E+04  0.00000000000E+00 0.  1.
<mgrwt>
<rscale>  0 0.43787419E+04</rscale>
<asrwt>0</asrwt>
<pdfrwt beam="1">  1        2 0.56640524E+00 0.43787419E+04</pdfrwt>
<pdfrwt beam="2">  1       -2 0.20030175E+00 0.43787419E+04</pdfrwt>
<totfact> 0.60846218E-02</totfact>
</mgrwt>
</event>
<event>
 6    1  0.1014650E-006  0.5187320E+04  0.7818608E-02  0.7800244E-01
          2   -1    0    0  501    0  0.00000000000E+00  0.00000000000E+00  0.33853312755E+04  0.33853312755E+04  0.00000000000E+00 0. -1.
         -2   -1    0    0    0  501 -0.00000000000E+00 -0.00000000000E+00 -0.19871236530E+04  0.19871236530E+04  0.00000000000E+00 0.  1.
         23    2    1    2    0    0  0.78624854696E+03  0.20495625015E+04 -0.73007984696E+03  0.23149231170E+04  0.83421997444E+02 0.  0.
         11    1    3    3    0    0  0.51851687771E+03  0.12503267191E+04 -0.43078564052E+03  0.14204763022E+04  0.00000000000E+00 0. -1.
        -11    1    3    3    0    0  0.26773166924E+03  0.79923578241E+03 -0.29929420644E+03  0.89444681486E+03  0.00000000000E+00 0.  1.
         22    1    1    2    0    0 -0.78624854696E+03 -0.20495625015E+04  0.21282874694E+04  0.30575318114E+04  0.00000000000E+00 0. -1.
<mgrwt>
<rscale>  0 0.51873199E+04</rscale>
<asrwt>0</asrwt>
<pdfrwt beam="1">  1        2 0.52082019E+00 0.51873199E+04</pdfrwt>
<pdfrwt beam="2">  1       -2 0.30571133E+00 0.51873199E+04</pdfrwt>
<totfact> 0.20487845E-02</totfact>
</mgrwt>
</event>
<event>
 6    1  0.1014650E-006  0.2404717E+04  0.7818608E-02  0.8437740E-01
         -1   -1    0    0    0  501 -0.00000000000E+00  0.00000000000E+00  0.67751338821E+03  0.67751338821E+03  0.00000000000E+00 0.  1.
          1   -1    0    0  501    0  0.00000000000E+00 -0.00000000000E+00 -0.21337826972E+04  0.21337826972E+04  0.00000000000E+00 0. -1.
         23    2    1    2    0    0  0.75771390628E+03  0.56150011421E+03  0.13937775292E+03  0.95778528473E+03  0.92269992987E+02 0.  0.
         13    1    3    3    0    0  0.71073619124E+02  0.22154012937E+02  0.10035636668E+02  0.75119728620E+02  0.00000000000E+00 0. -1.
        -13    1    3    3    0    0  0.68664028716E+03  0.53934610127E+03  0.12934211625E+03  0.88266555611E+03  0.00000000000E+00 0.  1.
         22    1    1    2    0    0 -0.75771390628E+03 -0.56150011421E+03 -0.15956470619E+04  0.18535108007E+04  0.00000000000E+00 0. -1.
<mgrwt>
<rscale>  0 0.24047173E+04</rscale>
<asrwt>0</asrwt>
<pdfrwt beam="1">  1        1 0.32827425E+00 0.24047173E+04</pdfrwt>
<pdfrwt beam="2">  1       -1 0.10423283E+00 0.24047173E+04</pdfrwt>
<totfact> 0.18746195E+00</totfact>
</mgrwt>
</event>
<event>
 6    1  0.1014650E-006  0.1874421E+04  0.7818608E-02  0.8667694E-01
         -1   -1    0    0    0  501 -0.00000000000E+00  0.00000000000E+00  0.42415723113E+03  0.42415723113E+03  0.00000000000E+00 0.  1.
          1   -1    0    0  501    0  0.00000000000E+00 -0.00000000000E+00 -0.20708441404E+04  0.20708441404E+04  0.00000000000E+00 0. -1.
         23    2    1    2    0    0  0.12683187331E+03  0.53693227150E+02 -0.20561948515E+04  0.20629527152E+04  0.94166612773E+02 0.  0.
         11    1    3    3    0    0  0.42850883868E+01  0.13153746758E+02 -0.34918087265E+02  0.37558698786E+02  0.00000000000E+00 0. -1.
        -11    1    3    3    0    0  0.12254678492E+03  0.40539480391E+02 -0.20212767642E+04  0.20253940164E+04  0.00000000000E+00 0.  1.
         22    1    1    2    0    0 -0.12683187331E+03 -0.53693227150E+02  0.40950794222E+03  0.43204865637E+03  0.00000000000E+00 0.  1.
<mgrwt>
<rscale>  0 0.18744210E+04</rscale>
<asrwt>0</asrwt>
<pdfrwt beam="1">  1        1 0.31859140E+00 0.18744210E+04</pdfrwt>
<pdfrwt beam="2">  1       -1 0.65254959E-01 0.18744210E+04</pdfrwt>
<totfact> 0.59552184E+00</totfact>
</mgrwt>
</event>
<event>
 6    1  0.1014650E-006  0.4715464E+04  0.7818608E-02  0.7873964E-01
          2   -1    0    0  501    0  0.00000000000E+00  0.00000000000E+00  0.46253957468E+04  0.46253957468E+04  0.00000000000E+00 0. -1.
         -2   -1    0    0    0  501 -0.00000000000E+00 -0.00000000000E+00 -0.12018215383E+04  0.12018215383E+04  0.00000000000E+00 0.  1.
         23    2    1    2    0    0  0.39482873402E+03  0.14781436850E+04  0.39278403082E+04  0.42162912216E+04  0.91562521571E+02 0.  0.
         13    1    3    3    0    0  0.21735210058E+03  0.68408810798E+03  0.17555739260E+04  0.18966439531E+04  0.00000000000E+00 0.  1.
        -13    1    3    3    0    0  0.17747663344E+03  0.79405557706E+03  0.21722663822E+04  0.23196472684E+04  0.00000000000E+00 0. -1.
         22    1    1    2    0    0 -0.39482873402E+03 -0.14781436850E+04 -0.50426609971E+03  0.16109260635E+04  0.00000000000E+00 0.  1.
<mgrwt>
<rscale>  0 0.47154640E+04</rscale>
<asrwt>0</asrwt>
<pdfrwt beam="1">  1        2 0.71159934E+00 0.47154640E+04</pdfrwt>
<pdfrwt beam="2">  1       -2 0.18489562E+00 0.47154640E+04</pdfrwt>
<totfact> 0.11375382E-02</totfact>
</mgrwt>
</event>
<event>
 6    1  0.1014650E-006  0.8934865E+03  0.7818608E-02  0.9433760E-01
          1   -1    0    0  501    0  0.00000000000E+00  0.00000000000E+00  0.19074676241E+04  0.19074676241E+04  0.00000000000E+00 0. -1.
         -1   -1    0    0    0  501 -0.00000000000E+00 -0.00000000000E+00 -0.10463062311E+03  0.10463062311E+03  0.00000000000E+00 0.  1.
         23    2    1    2    0    0 -0.64015105805E+01  0.40967757199E+03  0.12822889228E+04  0.13496429702E+04  0.96925606181E+02 0.  0.
         11    1    3    3    0    0 -0.11181975903E+02  0.18328031040E+03  0.72985253239E+03  0.75259645747E+03  0.00000000000E+00 0.  1.
        -11    1    3    3    0    0  0.47804653221E+01  0.22639726159E+03  0.55243639039E+03  0.59704651270E+03  0.00000000000E+00 0. -1.
         22    1    1    2    0    0  0.64015105805E+01 -0.40967757199E+03  0.52054807817E+03  0.66245527700E+03  0.00000000000E+00 0. -1.
<mgrwt>
<rscale>  0 0.89348649E+03</rscale>
<asrwt>0</asrwt>
<pdfrwt beam="1">  1        1 0.29345653E+00 0.89348649E+03</pdfrwt>
<pdfrwt beam="2">  1       -1 0.16097020E-01 0.89348649E+03</pdfrwt>
<totfact> 0.10245720E+02</totfact>
</mgrwt>
</event>
<event>
 6    1  0.1014650E-006  0.2390842E+04  0.7818608E-02  0.8442940E-01
         -2   -1    0    0    0  501 -0.00000000000E+00  0.00000000000E+00  0.12854233632E+04  0.12854233632E+04  0.00000000000E+00 0.  1.
          2   -1    0    0  501    0  0.00000000000E+00 -0.00000000000E+00 -0.11117204414E+04  0.11117204414E+04  0.00000000000E+00 0. -1.
         23    2    1    2    0    0 -0.10898662099E+04 -0.33076597316E+03 -0.27164496289E+03  0.11742173052E+04  0.88208897041E+02 0.  0.
         13    1    3    3    0    0 -0.54117602847E+03 -0.20954812716E+03 -0.14631264766E+03  0.59848918307E+03  0.00000000000E+00 0.  1.
        -13    1    3    3    0    0 -0.54869018140E+03 -0.12121784600E+03 -0.12533231524E+03  0.57572812212E+03  0.00000000000E+00 0. -1.
         22    1    1    2    0    0  0.10898662099E+04  0.33076597316E+03  0.44534788467E+03  0.12229264993E+04  0.00000000000E+00 0.  1.
<mgrwt>
<rscale>  0 0.23908421E+04</rscale>
<asrwt>0</asrwt>
<pdfrwt beam="1">  1        2 0.17103391E+00 0.23908421E+04</pdfrwt>
<pdfrwt beam="2">  1       -2 0.19775744E+00 0.23908421E+04</pdfrwt>
<totfact> 0.26529712E+00</totfact>
</mgrwt>
</event>
<event>
 6    1  0.1014650E-006  0.4169449E+04  0.7818608E-02  0.7971209E-01
         -1   -1    0    0    0  501 -0.00000000000E+00  0.00000000000E+00  0.20843787002E+04  0.20843787002E+04  0.00000000000E+00 0.  1.
          1   -1    0    0  501    0  0.00000000000E+00 -0.00000000000E+00 -0.20850701561E+04  0.20850701561E+04  0.00000000000E+00 0. -1.
         23    2    1    2    0    0  0.87888182176E+01 -0.10916333230E+04  0.17745381028E+04  0.20854189762E+04  0.90808991547E+02 0.  0.
         11    1    3    3    0    0  0.48490664860E+01 -0.22599160530E+02  0.66623884192E+02  0.70519340945E+02  0.00000000000E+00 0.  1.
        -11    1    3    3    0    0  0.39397517316E+01 -0.10690341625E+04  0.17079142186E+04  0.20148996353E+04  0.00000000000E+00 0. -1.
         22    1    1    2    0    0 -0.87888182176E+01  0.10916333230E+04 -0.17752295587E+04  0.20840298801E+04  0.00000000000E+00 0. -1.
<mgrwt>
<rscale>  0 0.41694488E+04</rscale>
<asrwt>0</asrwt>
<pdfrwt beam="1">  1        1 0.32078002E+00 0.41694488E+04</pdfrwt>
<pdfrwt beam="2">  1       -1 0.32067365E+00 0.41694488E+04</pdfrwt>
<totfact> 0.48785862E-02</totfact>
</mgrwt>
</event>
<event>
 6    1  0.1014650E-006  0.5786675E+04  0.7818608E-02  0.7717429E-01
          2   -1    0    0  501    0  0.00000000000E+00  0.00000000000E+00  0.29276368129E+04  0.29276368129E+04  0.00000000000E+00 0. -1.
         -2   -1    0    0    0  501 -0.00000000000E+00 -0.00000000000E+00 -0.28594396020E+04  0.28594396020E+04  0.00000000000E+00 0.  1.
         23    2    1    2    0    0  0.33295512220E+03 -0.27466565429E+04 -0.81001085482E+03  0.28842793698E+04  0.89267127894E+02 0.  0.
         11    1    3    3    0    0  0.26414498533E+03 -0.22783192743E+04 -0.63844435187E+03  0.23807819051E+04  0.00000000000E+00 0. -1.
        -11    1    3    3    0    0  0.68810136873E+02 -0.46833726861E+03 -0.17156650295E+03  0.50349746478E+03  0.00000000000E+00 0.  1.
         22    1    1    2    0    0 -0.33295512220E+03  0.27466565429E+04  0.87820806573E+03  0.29027970451E+04  0.00000000000E+00 0. -1.
<mgrwt>
<rscale>  0 0.57866746E+04</rscale>
<asrwt>0</asrwt>
<pdfrwt beam="1">  1        2 0.45040567E+00 0.57866746E+04</pdfrwt>
<pdfrwt beam="2">  1       -2 0.43991378E+00 0.57866746E+04</pdfrwt>
<totfact> 0.53672867E-03</totfact>
</mgrwt>
</event>
<event>
 6    1  0.1014650E-006  0.3058577E+04  0.7818608E-02  0.8227199E-01
          1   -1    0    0  501    0  0.00000000000E+00  0.00000000000E+00  0.34297780144E+04  0.34297780144E+04  0.00000000000E+00 0. -1.
         -1   -1    0    0    0  501 -0.00000000000E+00 -0.00000000000E+00 -0.68188757095E+03  0.68188757095E+03  0.00000000000E+00 0.  1.
         23    2    1    2    0    0  0.78331098826E+03 -0.28566022385E+03 -0.34615608894E+03  0.90724647848E+03  0.89968144294E+02 0.  0.
         11    1    3    3    0    0  0.54963898193E+03 -0.19207054517E+03 -0.19700462249E+03  0.61465838159E+03  0.00000000000E+00 0.  1.
        -11    1    3    3    0    0  0.23367200634E+03 -0.93589678684E+02 -0.14915146645E+03  0.29258809690E+03  0.00000000000E+00 0. -1.
         22    1    1    2    0    0 -0.78331098826E+03  0.28566022385E+03  0.30940465324E+04  0.32044191069E+04  0.00000000000E+00 0. -1.
<mgrwt>
<rscale>  0 0.30585768E+04</rscale>
<asrwt>0</asrwt>
<pdfrwt beam="1">  1        1 0.52765814E+00 0.30585768E+04</pdfrwt>
<pdfrwt beam="2">  1       -1 0.10490578E+00 0.30585768E+04</pdfrwt>
<totfact> 0.20473567E-01</totfact>
</mgrwt>
</event>
<event>
 6    1  0.1014650E-006  0.3593019E+04  0.7818608E-02  0.8092093E-01
          2   -1    0    0  501    0  0.00000000000E+00  0.00000000000E+00  0.26786190574E+04  0.26786190574E+04  0.00000000000E+00 0. -1.
         -2   -1    0    0    0  501 -0.00000000000E+00 -0.00000000000E+00 -0.12048921107E+04  0.12048921107E+04  0.00000000000E+00 0.  1.
         23    2    1    2    0    0 -0.54187629868E+03 -0.10062533439E+04  0.22338870732E+04  0.25109154035E+04  0.90934002532E+02 0.  0.
         13    1    3    3    0    0 -0.12918552241E+03 -0.30246767277E+03  0.70569351521E+03  0.77857493517E+03  0.00000000000E+00 0. -1.
        -13    1    3    3    0    0 -0.41269077627E+03 -0.70378567116E+03  0.15281935580E+04  0.17323404684E+04  0.00000000000E+00 0.  1.
         22    1    1    2    0    0  0.54187629868E+03  0.10062533439E+04 -0.76016012644E+03  0.13725957646E+04  0.00000000000E+00 0.  1.
<mgrwt>
<rscale>  0 0.35930193E+04</rscale>
<asrwt>0</asrwt>
<pdfrwt beam="1">  1        2 0.41209524E+00 0.35930193E+04</pdfrwt>
<pdfrwt beam="2">  1       -2 0.18536802E+00 0.35930193E+04</pdfrwt>
<totfact> 0.37139106E-01</totfact>
</mgrwt>
</event>
<event>
 6    1  0.1014650E-006  0.2011157E+04  0.7818608E-02  0.8601422E-01
          1   -1    0    0  501    0  0.00000000000E+00  0.00000000000E+00  0.17358801040E+04  0.17358801040E+04  0.00000000000E+00 0. -1.
         -1   -1    0    0    0  501 -0.00000000000E+00 -0.00000000000E+00 -0.58252196165E+03  0.58252196165E+03  0.00000000000E+00 0.  1.
         23    2    1    2    0    0 -0.35232710954E+03  0.81522220292E+03  0.11164869570E+04  0.14295369934E+04  0.91166101533E+02 0.  0.
         11    1    3    3    0    0 -0.52686963304E+02  0.20587153256E+03  0.29880527441E+03  0.36666550974E+03  0.00000000000E+00 0. -1.
        -11    1    3    3    0    0 -0.29964014624E+03  0.60935067037E+03  0.81768168262E+03  0.10628714837E+04  0.00000000000E+00 0.  1.
         22    1    1    2    0    0  0.35232710954E+03 -0.81522220292E+03  0.36871185271E+02  0.88886507219E+03  0.00000000000E+00 0.  1.
<mgrwt>
<rscale>  0 0.20111572E+04</rscale>
<asrwt>0</asrwt>
<pdfrwt beam="1">  1        1 0.26705848E+00 0.20111572E+04</pdfrwt>
<pdfrwt beam="2">  1       -1 0.89618764E-01 0.20111572E+04</pdfrwt>
<totfact> 0.50899667E+00</totfact>
</mgrwt>
</event>
<event>
 6    1  0.1014650E-006  0.1135135E+04  0.7818608E-02  0.9171608E-01
          1   -1    0    0  501    0  0.00000000000E+00  0.00000000000E+00  0.10619635507E+04  0.10619635507E+04  0.00000000000E+00 0. -1.
         -1   -1    0    0    0  501 -0.00000000000E+00 -0.00000000000E+00 -0.30333710349E+03  0.30333710349E+03  0.00000000000E+00 0.  1.
         23    2    1    2    0    0  0.48958322716E+03  0.25485186523E+03  0.52147712323E+03  0.76456692665E+03  0.89347555854E+02 0.  0.
         11    1    3    3    0    0  0.32759229701E+03  0.20373178272E+03  0.32147998603E+03  0.50216803340E+03  0.00000000000E+00 0.  1.
        -11    1    3    3    0    0  0.16199093016E+03  0.51120082506E+02  0.19999713721E+03  0.26239889325E+03  0.00000000000E+00 0. -1.
         22    1    1    2    0    0 -0.48958322716E+03 -0.25485186523E+03  0.23714932396E+03  0.60073372752E+03  0.00000000000E+00 0.  1.
<mgrwt>
<rscale>  0 0.11351351E+04</rscale>
<asrwt>0</asrwt>
<pdfrwt beam="1">  1        1 0.16337901E+00 0.11351351E+04</pdfrwt>
<pdfrwt beam="2">  1       -1 0.46667247E-01 0.11351351E+04</pdfrwt>
<totfact> 0.61593140E+01</totfact>
</mgrwt>
</event>
<event>
 6    1  0.1014650E-006  0.3160654E+04  0.7818608E-02  0.8199286E-01
          2   -1    0    0  501    0  0.00000000000E+00  0.00000000000E+00  0.27441059207E+04  0.27441059207E+04  0.00000000000E+00 0. -1.
         -2   -1    0    0    0  501 -0.00000000000E+00 -0.00000000000E+00 -0.91010847393E+03  0.91010847393E+03  0.00000000000E+00 0.  1.
         23    2    1    2    0    0 -0.12549991671E+04 -0.91583227562E+03  0.12453664877E+04  0.19928119532E+04  0.81179589116E+02 0.  0.
         13    1    3    3    0    0 -0.81024368922E+03 -0.54597863192E+03  0.76405195965E+03  0.12403075826E+04  0.00000000000E+00 0.  1.
        -13    1    3    3    0    0 -0.44475547785E+03 -0.36985364370E+03  0.48131452802E+03  0.75250437057E+03  0.00000000000E+00 0. -1.
         22    1    1    2    0    0  0.12549991671E+04  0.91583227562E+03  0.58863095908E+03  0.16614024414E+04  0.00000000000E+00 0.  1.
<mgrwt>
<rscale>  0 0.31606544E+04</rscale>
<asrwt>0</asrwt>
<pdfrwt beam="1">  1        2 0.42217014E+00 0.31606544E+04</pdfrwt>
<pdfrwt beam="2">  1       -2 0.14001669E+00 0.31606544E+04</pdfrwt>
<totfact> 0.75767957E-01</totfact>
</mgrwt>
</event>
<event>
 6    1  0.1014650E-006  0.1613940E+04  0.7818608E-02  0.8812030E-01
         -2   -1    0    0    0  501 -0.00000000000E+00  0.00000000000E+00  0.37911336073E+03  0.37911336073E+03  0.00000000000E+00 0.  1.
          2   -1    0    0  501    0  0.00000000000E+00 -0.00000000000E+00 -0.17176926077E+04  0.17176926077E+04  0.00000000000E+00 0. -1.
         23    2    1    2    0    0 -0.17443657200E+03 -0.29184367247E+03  0.27653796405E+03  0.44628954860E+03  0.84263092850E+02 0.  0.
         11    1    3    3    0    0 -0.18122263965E+01 -0.59543441842E+02  0.33392083928E+02  0.68291558043E+02  0.00000000000E+00 0. -1.
        -11    1    3    3    0    0 -0.17262434560E+03 -0.23230023063E+03  0.24314588012E+03  0.37799799056E+03  0.00000000000E+00 0.  1.
         22    1    1    2    0    0  0.17443657200E+03  0.29184367247E+03 -0.16151172111E+04  0.16505164199E+04  0.00000000000E+00 0. -1.
<mgrwt>
<rscale>  0 0.16139395E+04</rscale>
<asrwt>0</asrwt>
<pdfrwt beam="1">  1        2 0.26426039E+00 0.16139395E+04</pdfrwt>
<pdfrwt beam="2">  1       -2 0.58325134E-01 0.16139395E+04</pdfrwt>
<totfact> 0.25247003E+01</totfact>
</mgrwt>
</event>
<event>
 6    1  0.1014650E-006  0.3086084E+04  0.7818608E-02  0.8219567E-01
          1   -1    0    0  501    0  0.00000000000E+00  0.00000000000E+00  0.11165691692E+04  0.11165691692E+04  0.00000000000E+00 0. -1.
         -1   -1    0    0    0  501 -0.00000000000E+00 -0.00000000000E+00 -0.21324059463E+04  0.21324059463E+04  0.00000000000E+00 0.  1.
         23    2    1    2    0    0  0.49929750821E+03  0.12313729627E+04 -0.13314794060E+04  0.18832490653E+04  0.90621513082E+02 0.  0.
         13    1    3    3    0    0  0.17245102426E+03  0.52230105408E+03 -0.58688956055E+03  0.80434886905E+03  0.00000000000E+00 0.  1.
        -13    1    3    3    0    0  0.32684648395E+03  0.70907190860E+03 -0.74458984545E+03  0.10789001963E+04  0.00000000000E+00 0. -1.
         22    1    1    2    0    0 -0.49929750821E+03 -0.12313729627E+04  0.31564262890E+03  0.13657260502E+04  0.00000000000E+00 0. -1.
<mgrwt>
<rscale>  0 0.30860841E+04</rscale>
<asrwt>0</asrwt>
<pdfrwt beam="1">  1        1 0.17177987E+00 0.30860841E+04</pdfrwt>
<pdfrwt beam="2">  1       -1 0.32806245E+00 0.30860841E+04</pdfrwt>
<totfact> 0.22556096E-01</totfact>
</mgrwt>
</event>
<event>
 6    1  0.1014650E-006  0.2914778E+04  0.7818608E-02  0.8268494E-01
          2   -1    0    0  501    0  0.00000000000E+00  0.00000000000E+00  0.13085848996E+04  0.13085848996E+04  0.00000000000E+00 0. -1.
         -2   -1    0    0    0  501 -0.00000000000E+00 -0.00000000000E+00 -0.16231141639E+04  0.16231141639E+04  0.00000000000E+00 0.  1.
         23    2    1    2    0    0  0.10247106865E+04 -0.87382162695E+03  0.39915039284E+03  0.14075813253E+04  0.91476361055E+02 0.  0.
         13    1    3    3    0    0  0.12925816160E+03 -0.11323872341E+03  0.83439094397E+02  0.19103079148E+03  0.00000000000E+00 0. -1.
        -13    1    3    3    0    0  0.89545252487E+03 -0.76058290354E+03  0.31571129844E+03  0.12165505339E+04  0.00000000000E+00 0.  1.
         22    1    1    2    0    0 -0.10247106865E+04  0.87382162695E+03 -0.71367965710E+03  0.15241177381E+04  0.00000000000E+00 0. -1.
<mgrwt>
<rscale>  0 0.29147780E+04</rscale>
<asrwt>0</asrwt>
<pdfrwt beam="1">  1        2 0.20132075E+00 0.29147780E+04</pdfrwt>
<pdfrwt beam="2">  1       -2 0.24970987E+00 0.29147780E+04</pdfrwt>
<totfact> 0.90898985E-01</totfact>
</mgrwt>
</event>
<event>
 6    1  0.1014650E-006  0.6756336E+03  0.7818608E-02  0.9759834E-01
         -3   -1    0    0    0  501 -0.00000000000E+00  0.00000000000E+00  0.11548300082E+03  0.11548300082E+03  0.00000000000E+00 0.  1.
          3   -1    0    0  501    0  0.00000000000E+00 -0.00000000000E+00 -0.98819889883E+03  0.98819889883E+03  0.00000000000E+00 0. -1.
         23    2    1    2    0    0 -0.24423844609E+03  0.16548436197E+03 -0.19683272520E+03  0.36621626933E+03  0.91289329098E+02 0.  0.
         11    1    3    3    0    0 -0.65461486860E+02  0.12066721918E+02 -0.14022098355E+02  0.68025225337E+02  0.00000000000E+00 0.  1.
        -11    1    3    3    0    0 -0.17877695923E+03  0.15341764005E+03 -0.18281062684E+03  0.29819104399E+03  0.00000000000E+00 0. -1.
         22    1    1    2    0    0  0.24423844609E+03 -0.16548436197E+03 -0.67588317282E+03  0.73746563032E+03  0.00000000000E+00 0. -1.
<mgrwt>
<rscale>  0 0.67563355E+03</rscale>
<asrwt>0</asrwt>
<pdfrwt beam="1">  1        3 0.15203060E+00 0.67563355E+03</pdfrwt>
<pdfrwt beam="2">  1       -3 0.17766616E-01 0.67563355E+03</pdfrwt>
<totfact> 0.23467662E+01</totfact>
</mgrwt>
</event>
<event>
 6    1  0.1014650E-006  0.1956373E+04  0.7818608E-02  0.8627294E-01
          2   -1    0    0  501    0  0.00000000000E+00  0.00000000000E+00  0.14102648093E+04  0.14102648093E+04  0.00000000000E+00 0. -1.
         -2   -1    0    0    0  501 -0.00000000000E+00 -0.00000000000E+00 -0.67848895238E+03  0.67848895238E+03  0.00000000000E+00 0.  1.
         23    2    1    2    0    0  0.72459453314E+03 -0.54844334844E+03  0.74699827236E+03  0.11798758459E+04  0.90957401171E+02 0.  0.
         13    1    3    3    0    0  0.23837922100E+03 -0.23366020251E+03  0.25924720962E+03  0.42264744047E+03  0.00000000000E+00 0. -1.
        -13    1    3    3    0    0  0.48621531215E+03 -0.31478314593E+03  0.48775106273E+03  0.75722840539E+03  0.00000000000E+00 0.  1.
         22    1    1    2    0    0 -0.72459453314E+03  0.54844334844E+03 -0.15222415442E+02  0.90887791581E+03  0.00000000000E+00 0.  1.
<mgrwt>
<rscale>  0 0.19563733E+04</rscale>
<asrwt>0</asrwt>
<pdfrwt beam="1">  1        2 0.21696382E+00 0.19563733E+04</pdfrwt>
<pdfrwt beam="2">  1       -2 0.10438292E+00 0.19563733E+04</pdfrwt>
<totfact> 0.99249980E+00</totfact>
</mgrwt>
</event>
<event>
 6    1  0.1014650E-006  0.1387632E+04  0.7818608E-02  0.8962820E-01
         -2   -1    0    0    0  501 -0.00000000000E+00  0.00000000000E+00  0.12068185274E+04  0.12068185274E+04  0.00000000000E+00 0.  1.
          2   -1    0    0  501    0  0.00000000000E+00 -0.00000000000E+00 -0.39888410069E+03  0.39888410069E+03  0.00000000000E+00 0. -1.
         23    2    1    2    0    0 -0.19532031980E+03  0.15366111828E+03  0.11516023049E+04  0.11815925279E+04  0.90616039535E+02 0.  0.
         13    1    3    3    0    0 -0.80214935891E+02  0.78204373992E+02  0.32887071764E+03  0.34742813498E+03  0.00000000000E+00 0.  1.
        -13    1    3    3    0    0 -0.11510538391E+03  0.75456744289E+02  0.82273158728E+03  0.83416439289E+03  0.00000000000E+00 0. -1.
         22    1    1    2    0    0  0.19532031980E+03 -0.15366111828E+03 -0.34366787821E+03  0.42411010023E+03  0.00000000000E+00 0. -1.
<mgrwt>
<rscale>  0 0.13876321E+04</rscale>
<asrwt>0</asrwt>
<pdfrwt beam="1">  1        2 0.61366785E-01 0.13876321E+04</pdfrwt>
<pdfrwt beam="2">  1       -2 0.18566439E+00 0.13876321E+04</pdfrwt>
<totfact> 0.12870861E+01</totfact>
</mgrwt>
</event>
<event>
 6    1  0.1014650E-006  0.1285827E+04  0.7818608E-02  0.9040881E-01
         -1   -1    0    0    0  501 -0.00000000000E+00  0.00000000000E+00  0.55756834152E+03  0.55756834152E+03  0.00000000000E+00 0.  1.
          1   -1    0    0  501    0  0.00000000000E+00 -0.00000000000E+00 -0.74132198401E+03  0.74132198401E+03  0.00000000000E+00 0. -1.
         23    2    1    2    0    0 -0.21500794711E+03 -0.28442390251E+03  0.44423811859E+03  0.57674143116E+03  0.90320533450E+02 0.  0.
         13    1    3    3    0    0 -0.77689420968E+02 -0.69317007546E+02  0.76821189482E+02  0.12939083746E+03  0.00000000000E+00 0.  1.
        -13    1    3    3    0    0 -0.13731852614E+03 -0.21510689496E+03  0.36741692911E+03  0.44735059370E+03  0.00000000000E+00 0. -1.
         22    1    1    2    0    0  0.21500794711E+03  0.28442390251E+03 -0.62799176109E+03  0.72214889437E+03  0.00000000000E+00 0. -1.
<mgrwt>
<rscale>  0 0.12858268E+04</rscale>
<asrwt>0</asrwt>
<pdfrwt beam="1">  1        1 0.11404953E+00 0.12858268E+04</pdfrwt>
<pdfrwt beam="2">  1       -1 0.85779746E-01 0.12858268E+04</pdfrwt>
<totfact> 0.32940841E+01</totfact>
</mgrwt>
</event>
<event>
 6    1  0.1014650E-006  0.8924431E+03  0.7818608E-02  0.9435077E-01
         -1   -1    0    0    0  501 -0.00000000000E+00  0.00000000000E+00  0.12690175394E+03  0.12690175394E+03  0.00000000000E+00 0.  1.
          1   -1    0    0  501    0  0.00000000000E+00 -0.00000000000E+00 -0.15690381120E+04  0.15690381120E+04  0.00000000000E+00 0. -1.
         23    2    1    2    0    0 -0.10068082097E+03 -0.17057682557E+03 -0.14785762002E+04  0.14945423902E+04  0.90754037331E+02 0.  0.
         13    1    3    3    0    0 -0.38215333279E+02 -0.13086797726E+03 -0.75689792284E+03  0.76907821759E+03  0.00000000000E+00 0. -1.
        -13    1    3    3    0    0 -0.62465487694E+02 -0.39708848307E+02 -0.72167827732E+03  0.72546417261E+03  0.00000000000E+00 0.  1.
         22    1    1    2    0    0  0.10068082097E+03  0.17057682557E+03  0.36439842117E+02  0.20139747572E+03  0.00000000000E+00 0.  1.
<mgrwt>
<rscale>  0 0.89244314E+03</rscale>
<asrwt>0</asrwt>
<pdfrwt beam="1">  1        1 0.24139048E+00 0.89244314E+03</pdfrwt>
<pdfrwt beam="2">  1       -1 0.19523347E-01 0.89244314E+03</pdfrwt>
<totfact> 0.12606709E+02</totfact>
</mgrwt>
</event>
<event>
 6    1  0.1014650E-006  0.2455793E+04  0.7818608E-02  0.8418906E-01
         -2   -1    0    0    0  501 -0.00000000000E+00  0.00000000000E+00  0.94175020155E+03  0.94175020155E+03  0.00000000000E+00 0.  1.
          2   -1    0    0  501    0  0.00000000000E+00 -0.00000000000E+00 -0.16009870392E+04  0.16009870392E+04  0.00000000000E+00 0. -1.
         23    2    1    2    0    0 -0.94783958659E+03  0.71857315261E+03 -0.21400092097E+02  0.11930769237E+04  0.90704599394E+02 0.  0.
         11    1    3    3    0    0 -0.34846392661E+03  0.22119532532E+03 -0.33676907621E+02  0.41411183779E+03  0.00000000000E+00 0. -1.
        -11    1    3    3    0    0 -0.59937565998E+03  0.49737782729E+03  0.12276815524E+02  0.77896508590E+03  0.00000000000E+00 0.  1.
         22    1    1    2    0    0  0.94783958659E+03 -0.71857315261E+03 -0.63783674560E+03  0.13496603171E+04  0.00000000000E+00 0.  1.
<mgrwt>
<rscale>  0 0.24557930E+04</rscale>
<asrwt>0</asrwt>
<pdfrwt beam="1">  1        2 0.24630570E+00 0.24557930E+04</pdfrwt>
<pdfrwt beam="2">  1       -2 0.14488465E+00 0.24557930E+04</pdfrwt>
<totfact> 0.32742163E+00</totfact>
</mgrwt>
</event>
<event>
 6    1  0.1014650E-006  0.2683642E+04  0.7818608E-02  0.8340332E-01
          2   -1    0    0  501    0  0.00000000000E+00  0.00000000000E+00  0.13248041287E+04  0.13248041287E+04  0.00000000000E+00 0. -1.
         -2   -1    0    0    0  501 -0.00000000000E+00 -0.00000000000E+00 -0.13590566785E+04  0.13590566785E+04  0.00000000000E+00 0.  1.
         23    2    1    2    0    0  0.13216564946E+04 -0.18116438499E+03  0.11187062201E+03  0.13418666174E+04  0.92165931307E+02 0.  0.
         11    1    3    3    0    0  0.89344711667E+03 -0.16211382390E+03  0.58403974386E+02  0.90991190036E+03  0.00000000000E+00 0. -1.
        -11    1    3    3    0    0  0.42820937789E+03 -0.19050561083E+02  0.53466647622E+02  0.43195471707E+03  0.00000000000E+00 0.  1.
         22    1    1    2    0    0 -0.13216564946E+04  0.18116438499E+03 -0.14612317174E+03  0.13419941898E+04  0.00000000000E+00 0.  1.
<mgrwt>
<rscale>  0 0.26836422E+04</rscale>
<asrwt>0</asrwt>
<pdfrwt beam="1">  1        2 0.20381602E+00 0.26836422E+04</pdfrwt>
<pdfrwt beam="2">  1       -2 0.20908564E+00 0.26836422E+04</pdfrwt>
<totfact> 0.16305750E+00</totfact>
</mgrwt>
</event>
<event>
 6    1  0.1014650E-006  0.3735178E+04  0.7818608E-02  0.8060210E-01
          2   -1    0    0  501    0  0.00000000000E+00  0.00000000000E+00  0.31520638961E+04  0.31520638961E+04  0.00000000000E+00 0. -1.
         -2   -1    0    0    0  501 -0.00000000000E+00 -0.00000000000E+00 -0.11065409873E+04  0.11065409873E+04  0.00000000000E+00 0.  1.
         23    2    1    2    0    0  0.81439612724E+02 -0.11278550778E+04 -0.66970877140E+03  0.13173173144E+04  0.90142005991E+02 0.  0.
         11    1    3    3    0    0 -0.10890962126E+02 -0.37310552177E+03 -0.24298965915E+03  0.44538782862E+03  0.00000000000E+00 0. -1.
        -11    1    3    3    0    0  0.92330574850E+02 -0.75474955601E+03 -0.42671911225E+03  0.87192948575E+03  0.00000000000E+00 0.  1.
         22    1    1    2    0    0 -0.81439612724E+02  0.11278550778E+04  0.27152316801E+04  0.29412875690E+04  0.00000000000E+00 0. -1.
<mgrwt>
<rscale>  0 0.37351776E+04</rscale>
<asrwt>0</asrwt>
<pdfrwt beam="1">  1        2 0.48493290E+00 0.37351776E+04</pdfrwt>
<pdfrwt beam="2">  1       -2 0.17023708E+00 0.37351776E+04</pdfrwt>
<totfact> 0.23819929E-01</totfact>
</mgrwt>
</event>
<event>
 6    1  0.1014650E-006  0.5173725E+03  0.7818608E-02  0.1009341E+00
          1   -1    0    0  501    0  0.00000000000E+00  0.00000000000E+00  0.36324832849E+03  0.36324832849E+03  0.00000000000E+00 0. -1.
         -1   -1    0    0    0  501 -0.00000000000E+00 -0.00000000000E+00 -0.18422267600E+03  0.18422267600E+03  0.00000000000E+00 0.  1.
         23    2    1    2    0    0 -0.26769685356E+02  0.67828570176E+02  0.34651225551E+03  0.36479891254E+03  0.87693627953E+02 0.  0.
         11    1    3    3    0    0  0.13569201491E+02  0.70568280032E+02  0.18960151282E+03  0.20276276542E+03  0.00000000000E+00 0.  1.
        -11    1    3    3    0    0 -0.40338886847E+02 -0.27397098564E+01  0.15691074269E+03  0.16203614712E+03  0.00000000000E+00 0. -1.
         22    1    1    2    0    0  0.26769685356E+02 -0.67828570176E+02 -0.16748660302E+03  0.18267209195E+03  0.00000000000E+00 0.  1.
<mgrwt>
<rscale>  0 0.51737251E+03</rscale>
<asrwt>0</asrwt>
<pdfrwt beam="1">  1        1 0.55884358E-01 0.51737251E+03</pdfrwt>
<pdfrwt beam="2">  1       -1 0.28341950E-01 0.51737251E+03</pdfrwt>
<totfact> 0.77336160E+02</totfact>
</mgrwt>
</event>
<event>
 6    1  0.1014650E-006  0.1710239E+04  0.7818608E-02  0.8755546E-01
         -2   -1    0    0    0  501 -0.00000000000E+00  0.00000000000E+00  0.46584466412E+03  0.46584466412E+03  0.00000000000E+00 0.  1.
          2   -1    0    0  501    0  0.00000000000E+00 -0.00000000000E+00 -0.15696855800E+04  0.15696855800E+04  0.00000000000E+00 0. -1.
         23    2    1    2    0    0  0.34202287561E+03 -0.41073388976E+03  0.23736879112E+03  0.59174166757E+03  0.90179168910E+02 0.  0.
         13    1    3    3    0    0  0.38031021677E+02 -0.10140373058E+03  0.44395571741E+02  0.11704717842E+03  0.00000000000E+00 0. -1.
        -13    1    3    3    0    0  0.30399185393E+03 -0.30933015918E+03  0.19297321938E+03  0.47469448915E+03  0.00000000000E+00 0.  1.
         22    1    1    2    0    0 -0.34202287561E+03  0.41073388976E+03 -0.13412097070E+04  0.14437885765E+04  0.00000000000E+00 0. -1.
<mgrwt>
<rscale>  0 0.17102393E+04</rscale>
<asrwt>0</asrwt>
<pdfrwt beam="1">  1        2 0.24149009E+00 0.17102393E+04</pdfrwt>
<pdfrwt beam="2">  1       -2 0.71668410E-01 0.17102393E+04</pdfrwt>
<totfact> 0.19463937E+01</totfact>
</mgrwt>
</event>
<event>
 6    1  0.1014650E-006  0.2542176E+04  0.7818608E-02  0.8388112E-01
          1   -1    0    0  501    0  0.00000000000E+00  0.00000000000E+00  0.80621014275E+03  0.80621014275E+03  0.00000000000E+00 0. -1.
         -1   -1    0    0    0  501 -0.00000000000E+00 -0.00000000000E+00 -0.20040250222E+04  0.20040250222E+04  0.00000000000E+00 0.  1.
         23    2    1    2    0    0 -0.13284800964E+03 -0.50431033651E+03 -0.18790613977E+04  0.19522874231E+04  0.92611752304E+02 0.  0.
         11    1    3    3    0    0 -0.98682161811E+02 -0.30110533772E+03 -0.12855105329E+04  0.13239863759E+04  0.00000000000E+00 0. -1.
        -11    1    3    3    0    0 -0.34165847830E+02 -0.20320499879E+03 -0.59355086479E+03  0.62830104710E+03  0.00000000000E+00 0.  1.
         22    1    1    2    0    0  0.13284800964E+03  0.50431033651E+03  0.68124651826E+03  0.85794774189E+03  0.00000000000E+00 0. -1.
<mgrwt>
<rscale>  0 0.25421765E+04</rscale>
<asrwt>0</asrwt>
<pdfrwt beam="1">  1        1 0.12403233E+00 0.25421765E+04</pdfrwt>
<pdfrwt beam="2">  1       -1 0.30831154E+00 0.25421765E+04</pdfrwt>
<totfact> 0.56375893E-01</totfact>
</mgrwt>
</event>
<event>
 6    1  0.1014650E-006  0.7839779E+03  0.7818608E-02  0.9583502E-01
         -2   -1    0    0    0  501 -0.00000000000E+00  0.00000000000E+00  0.91735598087E+02  0.91735598087E+02  0.00000000000E+00 0.  1.
          2   -1    0    0  501    0  0.00000000000E+00 -0.00000000000E+00 -0.16749803374E+04  0.16749803374E+04  0.00000000000E+00 0. -1.
         23    2    1    2    0    0 -0.20858586837E+03  0.32504756057E+03 -0.82893987119E+03  0.91928463138E+03  0.93696010148E+02 0.  0.
         11    1    3    3    0    0 -0.18790036675E+03  0.32645655217E+03 -0.78378562328E+03  0.86959779872E+03  0.00000000000E+00 0.  1.
        -11    1    3    3    0    0 -0.20685501623E+02 -0.14089916058E+01 -0.45154247912E+02  0.49686832655E+02  0.00000000000E+00 0. -1.
         22    1    1    2    0    0  0.20858586837E+03 -0.32504756057E+03 -0.75430486813E+03  0.84743130412E+03  0.00000000000E+00 0. -1.
<mgrwt>
<rscale>  0 0.78397786E+03</rscale>
<asrwt>0</asrwt>
<pdfrwt beam="1">  1        2 0.25768928E+00 0.78397786E+03</pdfrwt>
<pdfrwt beam="2">  1       -2 0.14113169E-01 0.78397786E+03</pdfrwt>
<totfact> 0.39865863E+02</totfact>
</mgrwt>
</event>
<event>
 6    1  0.1014650E-006  0.1666118E+04  0.7818608E-02  0.8780928E-01
         -1   -1    0    0    0  501 -0.00000000000E+00  0.00000000000E+00  0.45353173067E+03  0.45353173067E+03  0.00000000000E+00 0.  1.
          1   -1    0    0  501    0  0.00000000000E+00 -0.00000000000E+00 -0.15301845885E+04  0.15301845885E+04  0.00000000000E+00 0. -1.
         23    2    1    2    0    0 -0.56491885714E+03  0.40071570275E+03  0.57960744948E+01  0.69864741804E+03  0.91478033796E+02 0.  0.
         13    1    3    3    0    0 -0.29212253207E+03  0.25862652534E+03 -0.14190465012E+02  0.39041596106E+03  0.00000000000E+00 0. -1.
        -13    1    3    3    0    0 -0.27279632507E+03  0.14208917741E+03  0.19986539506E+02  0.30823145697E+03  0.00000000000E+00 0.  1.
         22    1    1    2    0    0  0.56491885714E+03 -0.40071570275E+03 -0.10824489324E+04  0.12850689012E+04  0.00000000000E+00 0. -1.
<mgrwt>
<rscale>  0 0.16661180E+04</rscale>
<asrwt>0</asrwt>
<pdfrwt beam="1">  1        1 0.23541301E+00 0.16661180E+04</pdfrwt>
<pdfrwt beam="2">  1       -1 0.69774112E-01 0.16661180E+04</pdfrwt>
<totfact> 0.12356042E+01</totfact>
</mgrwt>
</event>
<event>
 6    1  0.1014650E-006  0.1975736E+04  0.7818608E-02  0.8618050E-01
          1   -1    0    0  501    0  0.00000000000E+00  0.00000000000E+00  0.72430085953E+03  0.72430085953E+03  0.00000000000E+00 0. -1.
         -1   -1    0    0    0  501 -0.00000000000E+00 -0.00000000000E+00 -0.13473445241E+04  0.13473445241E+04  0.00000000000E+00 0.  1.
         23    2    1    2    0    0  0.58732386670E+03  0.73576112977E+03 -0.59612143814E+01  0.94599689729E+03  0.92632764953E+02 0.  0.
         11    1    3    3    0    0  0.25700411743E+03  0.31048368386E+03  0.42721744393E+02  0.40531022904E+03  0.00000000000E+00 0. -1.
        -11    1    3    3    0    0  0.33031974927E+03  0.42527744591E+03 -0.48682958774E+02  0.54068666826E+03  0.00000000000E+00 0.  1.
         22    1    1    2    0    0 -0.58732386670E+03 -0.73576112977E+03 -0.61708245020E+03  0.11256484863E+04  0.00000000000E+00 0.  1.
<mgrwt>
<rscale>  0 0.19757356E+04</rscale>
<asrwt>0</asrwt>
<pdfrwt beam="1">  1        1 0.11143090E+00 0.19757356E+04</pdfrwt>
<pdfrwt beam="2">  1       -1 0.20728377E+00 0.19757356E+04</pdfrwt>
<totfact> 0.32237407E+00</totfact>
</mgrwt>
</event>
<event>
 6    1  0.1014650E-006  0.2819973E+04  0.7818608E-02  0.8297094E-01
          2   -1    0    0  501    0  0.00000000000E+00  0.00000000000E+00  0.61809900791E+03  0.61809900791E+03  0.00000000000E+00 0. -1.
         -2   -1    0    0    0  501 -0.00000000000E+00 -0.00000000000E+00 -0.32164127872E+04  0.32164127872E+04  0.00000000000E+00 0.  1.
         23    2    1    2    0    0  0.12576987646E+03  0.70245456405E+03 -0.29517123524E+04  0.30381757932E+04  0.92983131163E+02 0.  0.
         11    1    3    3    0    0  0.76815688637E+02  0.34036537326E+03 -0.12575569426E+04  0.13050665505E+04  0.00000000000E+00 0.  1.
        -11    1    3    3    0    0  0.48954187820E+02  0.36208919079E+03 -0.16941554098E+04  0.17331092427E+04  0.00000000000E+00 0. -1.
         22    1    1    2    0    0 -0.12576987646E+03 -0.70245456405E+03  0.35339857316E+03  0.79633600188E+03  0.00000000000E+00 0. -1.
<mgrwt>
<rscale>  0 0.28199727E+04</rscale>
<asrwt>0</asrwt>
<pdfrwt beam="1">  1        2 0.95092154E-01 0.28199727E+04</pdfrwt>
<pdfrwt beam="2">  1       -2 0.49483274E+00 0.28199727E+04</pdfrwt>
<totfact> 0.73584527E-02</totfact>
</mgrwt>
</event>
<event>
 6    1  0.1014650E-006  0.3178119E+04  0.7818608E-02  0.8194620E-01
         -2   -1    0    0    0  501 -0.00000000000E+00  0.00000000000E+00  0.19002381359E+04  0.19002381359E+04  0.00000000000E+00 0.  1.
          2   -1    0    0  501    0  0.00000000000E+00 -0.00000000000E+00 -0.13288388387E+04  0.13288388387E+04  0.00000000000E+00 0. -1.
         23    2    1    2    0    0  0.50974610588E+03 -0.13100284461E+04 -0.46403113803E+03  0.14831869986E+04  0.92212547710E+02 0.  0.
         13    1    3    3    0    0  0.25133300574E+02 -0.36717095401E+02 -0.28549733765E+02  0.52866957454E+02  0.00000000000E+00 0. -1.
        -13    1    3    3    0    0  0.48461280531E+03 -0.12733113507E+04 -0.43548140426E+03  0.14303200412E+04  0.00000000000E+00 0.  1.
         22    1    1    2    0    0 -0.50974610588E+03  0.13100284461E+04  0.10354304352E+04  0.17458899759E+04  0.00000000000E+00 0.  1.
<mgrwt>
<rscale>  0 0.31781191E+04</rscale>
<asrwt>0</asrwt>
<pdfrwt beam="1">  1        2 0.20443675E+00 0.31781191E+04</pdfrwt>
<pdfrwt beam="2">  1       -2 0.29234433E+00 0.31781191E+04</pdfrwt>
<totfact> 0.47494730E-01</totfact>
</mgrwt>
</event>
<event>
 6    1  0.1014650E-006  0.1128898E+04  0.7818608E-02  0.9177475E-01
         -2   -1    0    0    0  501 -0.00000000000E+00  0.00000000000E+00  0.74102567139E+03  0.74102567139E+03  0.00000000000E+00 0.  1.
          2   -1    0    0  501    0  0.00000000000E+00 -0.00000000000E+00 -0.42994814191E+03  0.42994814191E+03  0.00000000000E+00 0. -1.
         23    2    1    2    0    0  0.34799296342E+03 -0.34812203722E+03 -0.12135521631E+03  0.51577450391E+03  0.94911511234E+02 0.  0.
         13    1    3    3    0    0  0.75632936077E+02 -0.42668352538E+02 -0.50456492579E+02  0.10043299742E+03  0.00000000000E+00 0. -1.
        -13    1    3    3    0    0  0.27236002735E+03 -0.30545368468E+03 -0.70898723727E+02  0.41534150648E+03  0.00000000000E+00 0.  1.
         22    1    1    2    0    0 -0.34799296342E+03  0.34812203722E+03  0.43243274579E+03  0.65519930939E+03  0.00000000000E+00 0.  1.
<mgrwt>
<rscale>  0 0.11288979E+04</rscale>
<asrwt>0</asrwt>
<pdfrwt beam="1">  1        2 0.66145868E-01 0.11288979E+04</pdfrwt>
<pdfrwt beam="2">  1       -2 0.11400395E+00 0.11288979E+04</pdfrwt>
<totfact> 0.43730079E+01</totfact>
</mgrwt>
</event>
<event>
 6    1  0.1014650E-006  0.1803270E+04  0.7818608E-02  0.8704562E-01
          1   -1    0    0  501    0  0.00000000000E+00  0.00000000000E+00  0.18650560245E+04  0.18650560245E+04  0.00000000000E+00 0. -1.
         -1   -1    0    0    0  501 -0.00000000000E+00 -0.00000000000E+00 -0.43588286354E+03  0.43588286354E+03  0.00000000000E+00 0.  1.
         23    2    1    2    0    0  0.25099783141E+03  0.92532517512E+02  0.18119912322E+04  0.18339144198E+04  0.91475107139E+02 0.  0.
         11    1    3    3    0    0  0.11490956553E+03  0.76871175879E+02  0.11194837814E+04  0.11279881749E+04  0.00000000000E+00 0.  1.
        -11    1    3    3    0    0  0.13608826589E+03  0.15661341632E+02  0.69250745083E+03  0.70592624487E+03  0.00000000000E+00 0. -1.
         22    1    1    2    0    0 -0.25099783141E+03 -0.92532517512E+02 -0.38281807132E+03  0.46702446821E+03  0.00000000000E+00 0.  1.
<mgrwt>
<rscale>  0 0.18032703E+04</rscale>
<asrwt>0</asrwt>
<pdfrwt beam="1">  1        1 0.28693169E+00 0.18032703E+04</pdfrwt>
<pdfrwt beam="2">  1       -1 0.67058903E-01 0.18032703E+04</pdfrwt>
<totfact> 0.78194971E+00</totfact>
</mgrwt>
</event>
<event>
 6    1  0.1014650E-006  0.3588456E+04  0.7818608E-02  0.8093141E-01
         -2   -1    0    0    0  501 -0.00000000000E+00  0.00000000000E+00  0.13249935170E+04  0.13249935170E+04  0.00000000000E+00 0.  1.
          2   -1    0    0  501    0  0.00000000000E+00 -0.00000000000E+00 -0.24296377418E+04  0.24296377418E+04  0.00000000000E+00 0. -1.
         23    2    1    2    0    0 -0.11005805213E+04 -0.39375659288E+03  0.87001183805E+03  0.14599442857E+04  0.90526133279E+02 0.  0.
         13    1    3    3    0    0 -0.75133963024E+03 -0.28582637699E+03  0.64554479562E+03  0.10309878956E+04  0.00000000000E+00 0. -1.
        -13    1    3    3    0    0 -0.34924089103E+03 -0.10793021588E+03  0.22446704243E+03  0.42895639009E+03  0.00000000000E+00 0.  1.
         22    1    1    2    0    0  0.11005805213E+04  0.39375659288E+03 -0.19746560628E+04  0.22946869731E+04  0.00000000000E+00 0. -1.
<mgrwt>
<rscale>  0 0.35884561E+04</rscale>
<asrwt>0</asrwt>
<pdfrwt beam="1">  1        2 0.37379042E+00 0.35884561E+04</pdfrwt>
<pdfrwt beam="2">  1       -2 0.20384516E+00 0.35884561E+04</pdfrwt>
<totfact> 0.39139931E-01</totfact>
</mgrwt>
</event>
<event>
 6    1  0.1014650E-006  0.3191071E+04  0.7818608E-02  0.8191179E-01
         -2   -1    0    0    0  501 -0.00000000000E+00  0.00000000000E+00  0.72336931085E+03  0.72336931085E+03  0.00000000000E+00 0.  1.
          2   -1    0    0  501    0  0.00000000000E+00 -0.00000000000E+00 -0.35192711425E+04  0.35192711425E+04  0.00000000000E+00 0. -1.
         23    2    1    2    0    0 -0.27859250742E+03  0.12001739666E+04 -0.53965261482E+02  0.12366052756E+04  0.90824132069E+02 0.  0.
         13    1    3    3    0    0 -0.29256353318E+02  0.21457780336E+03  0.18681734985E+02  0.21736737365E+03  0.00000000000E+00 0.  1.
        -13    1    3    3    0    0 -0.24933615410E+03  0.98559616319E+03 -0.72646996467E+02  0.10192379019E+04  0.00000000000E+00 0. -1.
         22    1    1    2    0    0  0.27859250742E+03 -0.12001739666E+04 -0.27419365701E+04  0.30060351777E+04  0.00000000000E+00 0. -1.
<mgrwt>
<rscale>  0 0.31910705E+04</rscale>
<asrwt>0</asrwt>
<pdfrwt beam="1">  1        2 0.54142632E+00 0.31910705E+04</pdfrwt>
<pdfrwt beam="2">  1       -2 0.11128759E+00 0.31910705E+04</pdfrwt>
<totfact> 0.42360737E-01</totfact>
</mgrwt>
</event>
<event>
 6    1  0.1014650E-006  0.1192447E+04  0.7818608E-02  0.9119494E-01
          2   -1    0    0  501    0  0.00000000000E+00  0.00000000000E+00  0.85907939153E+03  0.85907939153E+03  0.00000000000E+00 0. -1.
         -2   -1    0    0    0  501 -0.00000000000E+00 -0.00000000000E+00 -0.41379438328E+03  0.41379438328E+03  0.00000000000E+00 0.  1.
         23    2    1    2    0    0 -0.27330454809E+03 -0.25432363282E+03 -0.26858884600E+03  0.46727352282E+03  0.82635892400E+02 0.  0.
         13    1    3    3    0    0 -0.40252136143E+02 -0.77476343163E+02 -0.85200068693E+02  0.12199126985E+03  0.00000000000E+00 0. -1.
        -13    1    3    3    0    0 -0.23305241194E+03 -0.17684728966E+03 -0.18338877731E+03  0.34528225297E+03  0.00000000000E+00 0.  1.
         22    1    1    2    0    0  0.27330454809E+03  0.25432363282E+03  0.71387385426E+03  0.80560025199E+03  0.00000000000E+00 0. -1.
<mgrwt>
<rscale>  0 0.11924466E+04</rscale>
<asrwt>0</asrwt>
<pdfrwt beam="1">  1        2 0.13216606E+00 0.11924466E+04</pdfrwt>
<pdfrwt beam="2">  1       -2 0.63660674E-01 0.11924466E+04</pdfrwt>
<totfact> 0.70521583E+01</totfact>
</mgrwt>
</event>
<event>
 6    1  0.1014650E-006  0.5890553E+04  0.7818608E-02  0.7704122E-01
          2   -1    0    0  501    0  0.00000000000E+00  0.00000000000E+00  0.28334193278E+04  0.28334193278E+04  0.00000000000E+00 0. -1.
         -2   -1    0    0    0  501 -0.00000000000E+00 -0.00000000000E+00 -0.30615491896E+04  0.30615491896E+04  0.00000000000E+00 0.  1.
         23    2    1    2    0    0  0.12962707572E+04 -0.17854422974E+04 -0.20655280621E+04  0.30237049942E+04  0.90904583420E+02 0.  0.
         11    1    3    3    0    0  0.11303732005E+04 -0.15269559069E+04 -0.17414864250E+04  0.25772296914E+04  0.00000000000E+00 0. -1.
        -11    1    3    3    0    0  0.16589755676E+03 -0.25848639049E+03 -0.32404163708E+03  0.44647530275E+03  0.00000000000E+00 0.  1.
         22    1    1    2    0    0 -0.12962707572E+04  0.17854422974E+04  0.18373982002E+04  0.28712635232E+04  0.00000000000E+00 0. -1.
<mgrwt>
<rscale>  0 0.58905527E+04</rscale>
<asrwt>0</asrwt>
<pdfrwt beam="1">  1        2 0.43591067E+00 0.58905527E+04</pdfrwt>
<pdfrwt beam="2">  1       -2 0.47100756E+00 0.58905527E+04</pdfrwt>
<totfact> 0.38090989E-03</totfact>
</mgrwt>
</event>
<event>
 6    1  0.1014650E-006  0.3092285E+04  0.7818608E-02  0.8217858E-01
         -1   -1    0    0    0  501 -0.00000000000E+00  0.00000000000E+00  0.18665480709E+04  0.18665480709E+04  0.00000000000E+00 0.  1.
          1   -1    0    0  501    0  0.00000000000E+00 -0.00000000000E+00 -0.12807370675E+04  0.12807370675E+04  0.00000000000E+00 0. -1.
         23    2    1    2    0    0 -0.25197685723E+03 -0.15217302146E+04  0.20755755497E+03  0.15591318544E+04  0.93042024006E+02 0.  0.
         11    1    3    3    0    0 -0.11966169845E+03 -0.46162050536E+03  0.58761061925E+02  0.48048441748E+03  0.00000000000E+00 0. -1.
        -11    1    3    3    0    0 -0.13231515878E+03 -0.10601097092E+04  0.14879649304E+03  0.10786474369E+04  0.00000000000E+00 0.  1.
         22    1    1    2    0    0  0.25197685723E+03  0.15217302146E+04  0.37825344842E+03  0.15881532841E+04  0.00000000000E+00 0.  1.
<mgrwt>
<rscale>  0 0.30922854E+04</rscale>
<asrwt>0</asrwt>
<pdfrwt beam="1">  1        1 0.19703647E+00 0.30922854E+04</pdfrwt>
<pdfrwt beam="2">  1       -1 0.28716124E+00 0.30922854E+04</pdfrwt>
<totfact> 0.31535295E-01</totfact>
</mgrwt>
</event>
<event>
 6    1  0.1014650E-006  0.1214775E+04  0.7818608E-02  0.9100022E-01
          2   -1    0    0  501    0  0.00000000000E+00  0.00000000000E+00  0.21776952445E+04  0.21776952445E+04  0.00000000000E+00 0. -1.
         -2   -1    0    0    0  501 -0.00000000000E+00 -0.00000000000E+00 -0.16940814219E+03  0.16940814219E+03  0.00000000000E+00 0.  1.
         23    2    1    2    0    0 -0.16119387878E+03  0.34098568241E+03  0.19212691992E+04  0.19600286941E+04  0.90456860871E+02 0.  0.
         13    1    3    3    0    0 -0.11226673024E+03  0.18199219327E+03  0.12684671008E+04  0.12863645529E+04  0.00000000000E+00 0. -1.
        -13    1    3    3    0    0 -0.48927148543E+02  0.15899348913E+03  0.65280209845E+03  0.67366414124E+03  0.00000000000E+00 0.  1.
         22    1    1    2    0    0  0.16119387878E+03 -0.34098568241E+03  0.87017903072E+02  0.38707469256E+03  0.00000000000E+00 0.  1.
<mgrwt>
<rscale>  0 0.12147746E+04</rscale>
<asrwt>0</asrwt>
<pdfrwt beam="1">  1        2 0.33503002E+00 0.12147746E+04</pdfrwt>
<pdfrwt beam="2">  1       -2 0.26062793E-01 0.12147746E+04</pdfrwt>
<totfact> 0.69863400E+01</totfact>
</mgrwt>
</event>
<event>
 6    1  0.1014650E-006  0.7636905E+03  0.7818608E-02  0.9614114E-01
          2   -1    0    0  501    0  0.00000000000E+00  0.00000000000E+00  0.13091222127E+04  0.13091222127E+04  0.00000000000E+00 0. -1.
         -2   -1    0    0    0  501 -0.00000000000E+00 -0.00000000000E+00 -0.11137676847E+03  0.11137676847E+03  0.00000000000E+00 0.  1.
         23    2    1    2    0    0 -0.34402522465E+03 -0.77906490059E+02  0.84159817855E+03  0.91923692273E+03  0.11084335605E+03 0.  0.
         13    1    3    3    0    0 -0.24977315869E+03 -0.31234387186E+02  0.69205782288E+03  0.73641445393E+03  0.00000000000E+00 0.  1.
        -13    1    3    3    0    0 -0.94252065956E+02 -0.46672102874E+02  0.14954035567E+03  0.18282246880E+03  0.00000000000E+00 0. -1.
         22    1    1    2    0    0  0.34402522465E+03  0.77906490059E+02  0.35614726569E+03  0.50126205845E+03  0.00000000000E+00 0.  1.
<mgrwt>
<rscale>  0 0.76369052E+03</rscale>
<asrwt>0</asrwt>
<pdfrwt beam="1">  1        2 0.20140341E+00 0.76369052E+03</pdfrwt>
<pdfrwt beam="2">  1       -2 0.17134888E-01 0.76369052E+03</pdfrwt>
<totfact> 0.45985639E+02</totfact>
</mgrwt>
</event>
<event>
 6    1  0.1014650E-006  0.6435931E+03  0.7818608E-02  0.9818876E-01
         -1   -1    0    0    0  501 -0.00000000000E+00  0.00000000000E+00  0.76205888527E+02  0.76205888527E+02  0.00000000000E+00 0.  1.
          1   -1    0    0  501    0  0.00000000000E+00 -0.00000000000E+00 -0.13588583473E+04  0.13588583473E+04  0.00000000000E+00 0. -1.
         23    2    1    2    0    0  0.28741713343E+03 -0.45349877180E+02 -0.38246578286E+03  0.48901916743E+03  0.90523207535E+02 0.  0.
         13    1    3    3    0    0  0.16265992851E+03 -0.47204917933E+02 -0.28145106243E+03  0.32848326771E+03  0.00000000000E+00 0. -1.
        -13    1    3    3    0    0  0.12475720492E+03  0.18550407529E+01 -0.10101472043E+03  0.16053589973E+03  0.00000000000E+00 0.  1.
         22    1    1    2    0    0 -0.28741713343E+03  0.45349877180E+02 -0.90018667595E+03  0.94604506844E+03  0.00000000000E+00 0. -1.
<mgrwt>
<rscale>  0 0.64359306E+03</rscale>
<asrwt>0</asrwt>
<pdfrwt beam="1">  1        1 0.20905512E+00 0.64359306E+03</pdfrwt>
<pdfrwt beam="2">  1       -1 0.11723983E-01 0.64359306E+03</pdfrwt>
<totfact> 0.41079498E+02</totfact>
</mgrwt>
</event>
<event>
 6    1  0.1721702E-006  0.3401316E+04  0.7818608E-02  0.8137583E-01
         -1   -1    0    0    0  501 -0.00000000000E+00  0.00000000000E+00  0.16093219562E+04  0.16093219562E+04  0.00000000000E+00 0.  1.
          1   -1    0    0  501    0  0.00000000000E+00 -0.00000000000E+00 -0.17971782387E+04  0.17971782387E+04  0.00000000000E+00 0. -1.
         23    2    1    2    0    0 -0.29084165880E+01 -0.47098830834E+03 -0.17293476105E+04  0.17946584037E+04  0.91198589606E+02 0.  0.
         13    1    3    3    0    0 -0.31738956487E+02 -0.23767085328E+03 -0.74547742691E+03  0.78309092058E+03  0.00000000000E+00 0.  1.
        -13    1    3    3    0    0  0.28830539899E+02 -0.23331745506E+03 -0.98387018355E+03  0.10115674831E+04  0.00000000000E+00 0. -1.
         22    1    1    2    0    0  0.29084165880E+01  0.47098830834E+03  0.15414913280E+04  0.16118417911E+04  0.00000000000E+00 0.  1.
<mgrwt>
<rscale>  0 0.34013165E+04</rscale>
<asrwt>0</asrwt>
<pdfrwt beam="1">  1        1 0.27648896E+00 0.34013165E+04</pdfrwt>
<pdfrwt beam="2">  1       -1 0.24758799E+00 0.34013165E+04</pdfrwt>
<totfact> 0.24338127E-01</totfact>
</mgrwt>
</event>
<event>
 6    1  0.1014650E-006  0.5726414E+04  0.7818608E-02  0.7725280E-01
         -2   -1    0    0    0  501 -0.00000000000E+00  0.00000000000E+00  0.23616801597E+04  0.23616801597E+04  0.00000000000E+00 0.  1.
          2   -1    0    0  501    0  0.00000000000E+00 -0.00000000000E+00 -0.34712385524E+04  0.34712385524E+04  0.00000000000E+00 0. -1.
         23    2    1    2    0    0 -0.74363323133E+03  0.18060537735E+03 -0.33645370264E+04  0.34516297076E+04  0.89607763944E+02 0.  0.
         13    1    3    3    0    0 -0.38686807549E+03  0.83204018977E+02 -0.15433773314E+04  0.15932995336E+04  0.00000000000E+00 0.  1.
        -13    1    3    3    0    0 -0.35676515584E+03  0.97401358370E+02 -0.18211596950E+04  0.18583301740E+04  0.00000000000E+00 0. -1.
         22    1    1    2    0    0  0.74363323133E+03 -0.18060537735E+03  0.22549786336E+04  0.23812890045E+04  0.00000000000E+00 0.  1.
<mgrwt>
<rscale>  0 0.57264143E+04</rscale>
<asrwt>0</asrwt>
<pdfrwt beam="1">  1        2 0.53403670E+00 0.57264143E+04</pdfrwt>
<pdfrwt beam="2">  1       -2 0.36333541E+00 0.57264143E+04</pdfrwt>
<totfact> 0.74831875E-03</totfact>
</mgrwt>
</event>
<event>
 6    1  0.1014650E-006  0.2523109E+04  0.7818608E-02  0.8394799E-01
          2   -1    0    0  501    0  0.00000000000E+00  0.00000000000E+00  0.37746288472E+04  0.37746288472E+04  0.00000000000E+00 0. -1.
         -2   -1    0    0    0  501 -0.00000000000E+00 -0.00000000000E+00 -0.42163609587E+03  0.42163609587E+03  0.00000000000E+00 0.  1.
         23    2    1    2    0    0 -0.12237377292E+04  0.24092909016E+03  0.13823435668E+04  0.18640901930E+04  0.91529528550E+02 0.  0.
         11    1    3    3    0    0 -0.63580088093E+03  0.14724309781E+03  0.66274238741E+03  0.93013480857E+03  0.00000000000E+00 0. -1.
        -11    1    3    3    0    0 -0.58793684827E+03  0.93685992350E+02  0.71960117942E+03  0.93395538445E+03  0.00000000000E+00 0.  1.
         22    1    1    2    0    0  0.12237377292E+04 -0.24092909016E+03  0.19706491845E+04  0.23321747500E+04  0.00000000000E+00 0. -1.
<mgrwt>
<rscale>  0 0.25231090E+04</rscale>
<asrwt>0</asrwt>
<pdfrwt beam="1">  1        2 0.58071211E+00 0.25231090E+04</pdfrwt>
<pdfrwt beam="2">  1       -2 0.64867094E-01 0.25231090E+04</pdfrwt>
<totfact> 0.10042478E+00</totfact>
</mgrwt>
</event>
<event>
 6    1  0.1014650E-006  0.3433245E+04  0.7818608E-02  0.8129795E-01
          2   -1    0    0  501    0  0.00000000000E+00  0.00000000000E+00  0.28372242197E+04  0.28372242197E+04  0.00000000000E+00 0. -1.
         -2   -1    0    0    0  501 -0.00000000000E+00 -0.00000000000E+00 -0.10386182301E+04  0.10386182301E+04  0.00000000000E+00 0.  1.
         23    2    1    2    0    0  0.11343917281E+04  0.86436697579E+03 -0.17615219342E+03  0.14399350741E+04  0.91698204153E+02 0.  0.
         11    1    3    3    0    0  0.58018113148E+03  0.41050163508E+03 -0.49082420672E+02  0.71241197473E+03  0.00000000000E+00 0. -1.
        -11    1    3    3    0    0  0.55421059662E+03  0.45386534071E+03 -0.12706977275E+03  0.72752309932E+03  0.00000000000E+00 0.  1.
         22    1    1    2    0    0 -0.11343917281E+04 -0.86436697579E+03  0.19747581830E+04  0.24359073757E+04  0.00000000000E+00 0. -1.
<mgrwt>
<rscale>  0 0.34332450E+04</rscale>
<asrwt>0</asrwt>
<pdfrwt beam="1">  1        2 0.43649603E+00 0.34332450E+04</pdfrwt>
<pdfrwt beam="2">  1       -2 0.15978742E+00 0.34332450E+04</pdfrwt>
<totfact> 0.45825784E-01</totfact>
</mgrwt>
</event>
<event>
 6    1  0.1014650E-006  0.3841692E+04  0.7818608E-02  0.8037267E-01
          2   -1    0    0  501    0  0.00000000000E+00  0.00000000000E+00  0.38949946574E+04  0.38949946574E+04  0.00000000000E+00 0. -1.
         -2   -1    0    0    0  501 -0.00000000000E+00 -0.00000000000E+00 -0.94727946609E+03  0.94727946609E+03  0.00000000000E+00 0.  1.
         23    2    1    2    0    0  0.10905345283E+04  0.16685214727E+03  0.34550155411E+04  0.36280011553E+04  0.90303914793E+02 0.  0.
         13    1    3    3    0    0  0.25178648567E+03  0.66193374811E+02  0.72894582402E+03  0.77404135006E+03  0.00000000000E+00 0. -1.
        -13    1    3    3    0    0  0.83874804262E+03  0.10065877246E+03  0.27260697171E+04  0.28539598053E+04  0.00000000000E+00 0.  1.
         22    1    1    2    0    0 -0.10905345283E+04 -0.16685214727E+03 -0.50730034979E+03  0.12142729682E+04  0.00000000000E+00 0.  1.
<mgrwt>
<rscale>  0 0.38416915E+04</rscale>
<asrwt>0</asrwt>
<pdfrwt beam="1">  1        2 0.59922994E+00 0.38416915E+04</pdfrwt>
<pdfrwt beam="2">  1       -2 0.14573530E+00 0.38416915E+04</pdfrwt>
<totfact> 0.10685174E-01</totfact>
</mgrwt>
</event>
<event>
 6    1  0.1014650E-006  0.5376540E+04  0.7818608E-02  0.7772909E-01
          2   -1    0    0  501    0  0.00000000000E+00  0.00000000000E+00  0.42329860779E+04  0.42329860779E+04  0.00000000000E+00 0. -1.
         -2   -1    0    0    0  501 -0.00000000000E+00 -0.00000000000E+00 -0.17072572649E+04  0.17072572649E+04  0.00000000000E+00 0.  1.
         23    2    1    2    0    0  0.91743706819E+03  0.17119430099E+04  0.33156265183E+04  0.38434891778E+04  0.81180094855E+02 0.  0.
         13    1    3    3    0    0  0.46020665030E+03  0.94368413119E+03  0.18010988784E+04  0.20847750647E+04  0.00000000000E+00 0. -1.
        -13    1    3    3    0    0  0.45723041788E+03  0.76825887874E+03  0.15145276398E+04  0.17587141131E+04  0.00000000000E+00 0.  1.
         22    1    1    2    0    0 -0.91743706819E+03 -0.17119430099E+04 -0.78989770526E+03  0.20967541649E+04  0.00000000000E+00 0. -1.
<mgrwt>
<rscale>  0 0.53765402E+04</rscale>
<asrwt>0</asrwt>
<pdfrwt beam="1">  1        2 0.65122863E+00 0.53765402E+04</pdfrwt>
<pdfrwt beam="2">  1       -2 0.26265496E+00 0.53765402E+04</pdfrwt>
<totfact> 0.82052823E-03</totfact>
</mgrwt>
</event>
<event>
 6    1  0.1591056E-006  0.3709364E+04  0.7818608E-02  0.8065890E-01
         -1   -1    0    0    0  501 -0.00000000000E+00  0.00000000000E+00  0.12847676487E+04  0.12847676487E+04  0.00000000000E+00 0.  1.
          1   -1    0    0  501    0  0.00000000000E+00 -0.00000000000E+00 -0.26774062665E+04  0.26774062665E+04  0.00000000000E+00 0. -1.
         23    2    1    2    0    0 -0.82152092952E+03  0.12776140011E+04 -0.18311535004E+04  0.23811965353E+04  0.98891981177E+02 0.  0.
         13    1    3    3    0    0 -0.57762852699E+03  0.82142207969E+03 -0.11746012989E+04  0.15453404672E+04  0.00000000000E+00 0. -1.
        -13    1    3    3    0    0 -0.24389240253E+03  0.45619192142E+03 -0.65655220153E+03  0.83585606806E+03  0.00000000000E+00 0.  1.
         22    1    1    2    0    0  0.82152092952E+03 -0.12776140011E+04  0.43851488269E+03  0.15809773799E+04  0.00000000000E+00 0.  1.
<mgrwt>
<rscale>  0 0.37093638E+04</rscale>
<asrwt>0</asrwt>
<pdfrwt beam="1">  1        1 0.41190866E+00 0.37093638E+04</pdfrwt>
<pdfrwt beam="2">  1       -1 0.19765656E+00 0.37093638E+04</pdfrwt>
<totfact> 0.12748428E-01</totfact>
</mgrwt>
</event>
<event>
 6    1  0.1014650E-006  0.3189791E+04  0.7818608E-02  0.8191519E-01
         -2   -1    0    0    0  501 -0.00000000000E+00  0.00000000000E+00  0.93488184811E+03  0.93488184811E+03  0.00000000000E+00 0.  1.
          2   -1    0    0  501    0  0.00000000000E+00 -0.00000000000E+00 -0.27208690223E+04  0.27208690223E+04  0.00000000000E+00 0. -1.
         23    2    1    2    0    0 -0.15145938233E+03 -0.13177047942E+04  0.11834018140E+03  0.13350293131E+04  0.94936816426E+02 0.  0.
         11    1    3    3    0    0 -0.11965386073E+03 -0.80798055712E+03  0.34858641733E+02  0.81753578024E+03  0.00000000000E+00 0.  1.
        -11    1    3    3    0    0 -0.31805521596E+02 -0.50972423710E+03  0.83481539669E+02  0.51749353287E+03  0.00000000000E+00 0. -1.
         22    1    1    2    0    0  0.15145938233E+03  0.13177047942E+04 -0.19043273556E+04  0.23207215573E+04  0.00000000000E+00 0. -1.
<mgrwt>
<rscale>  0 0.31897906E+04</rscale>
<asrwt>0</asrwt>
<pdfrwt beam="1">  1        2 0.41859523E+00 0.31897906E+04</pdfrwt>
<pdfrwt beam="2">  1       -2 0.14382798E+00 0.31897906E+04</pdfrwt>
<totfact> 0.72764229E-01</totfact>
</mgrwt>
</event>
<event>
 6    1  0.1014650E-006  0.2665127E+04  0.7818608E-02  0.8346410E-01
          2   -1    0    0  501    0  0.00000000000E+00  0.00000000000E+00  0.12218045460E+04  0.12218045460E+04  0.00000000000E+00 0. -1.
         -2   -1    0    0    0  501 -0.00000000000E+00 -0.00000000000E+00 -0.14533625288E+04  0.14533625288E+04  0.00000000000E+00 0.  1.
         23    2    1    2    0    0  0.94045766279E+03 -0.63682282772E+03  0.58050305562E+03  0.12789410689E+04  0.93287355133E+02 0.  0.
         13    1    3    3    0    0  0.39472071436E+03 -0.31607520317E+03  0.28333775920E+03  0.57964494493E+03  0.00000000000E+00 0.  1.
        -13    1    3    3    0    0  0.54573694844E+03 -0.32074762455E+03  0.29716529642E+03  0.69929612393E+03  0.00000000000E+00 0. -1.
         22    1    1    2    0    0 -0.94045766279E+03  0.63682282772E+03 -0.81206103850E+03  0.13962260059E+04  0.00000000000E+00 0.  1.
<mgrwt>
<rscale>  0 0.26651266E+04</rscale>
<asrwt>0</asrwt>
<pdfrwt beam="1">  1        2 0.18796993E+00 0.26651266E+04</pdfrwt>
<pdfrwt beam="2">  1       -2 0.22359423E+00 0.26651266E+04</pdfrwt>
<totfact> 0.15169098E+00</totfact>
</mgrwt>
</event>
<event>
 6    1  0.1014650E-006  0.1140317E+04  0.7818608E-02  0.9166763E-01
         -1   -1    0    0    0  501 -0.00000000000E+00  0.00000000000E+00  0.66016080596E+03  0.66016080596E+03  0.00000000000E+00 0.  1.
          1   -1    0    0  501    0  0.00000000000E+00 -0.00000000000E+00 -0.49242695034E+03  0.49242695034E+03  0.00000000000E+00 0. -1.
         23    2    1    2    0    0  0.65571167992E+02 -0.21642622464E+03  0.60959740229E+03  0.65621764976E+03  0.88728361839E+02 0.  0.
         13    1    3    3    0    0  0.32094005014E+02 -0.49140305023E+02  0.26843881666E+03  0.27478026316E+03  0.00000000000E+00 0. -1.
        -13    1    3    3    0    0  0.33477162977E+02 -0.16728591962E+03  0.34115858563E+03  0.38143738660E+03  0.00000000000E+00 0.  1.
         22    1    1    2    0    0 -0.65571167992E+02  0.21642622464E+03 -0.44186354667E+03  0.49637010653E+03  0.00000000000E+00 0. -1.
<mgrwt>
<rscale>  0 0.11403175E+04</rscale>
<asrwt>0</asrwt>
<pdfrwt beam="1">  1        1 0.75757993E-01 0.11403175E+04</pdfrwt>
<pdfrwt beam="2">  1       -1 0.10156320E+00 0.11403175E+04</pdfrwt>
<totfact> 0.41398019E+01</totfact>
</mgrwt>
</event>
<event>
 6    1  0.1014650E-006  0.2061571E+04  0.7818608E-02  0.8578363E-01
          2   -1    0    0  501    0  0.00000000000E+00  0.00000000000E+00  0.16318157799E+04  0.16318157799E+04  0.00000000000E+00 0. -1.
         -2   -1    0    0    0  501 -0.00000000000E+00 -0.00000000000E+00 -0.65112658801E+03  0.65112658801E+03  0.00000000000E+00 0.  1.
         23    2    1    2    0    0 -0.79547838888E+03  0.64304940201E+03  0.62366780947E+03  0.11995390875E+04  0.60283373803E+02 0.  0.
         11    1    3    3    0    0 -0.12318090539E+03  0.11748959181E+03  0.12477914816E+03  0.21106201802E+03  0.00000000000E+00 0. -1.
        -11    1    3    3    0    0 -0.67229748349E+03  0.52555981021E+03  0.49888866131E+03  0.98847706944E+03  0.00000000000E+00 0.  1.
         22    1    1    2    0    0  0.79547838888E+03 -0.64304940201E+03  0.35702138242E+03  0.10834032805E+04  0.00000000000E+00 0.  1.
<mgrwt>
<rscale>  0 0.20615709E+04</rscale>
<asrwt>0</asrwt>
<pdfrwt beam="1">  1        2 0.25104858E+00 0.20615709E+04</pdfrwt>
<pdfrwt beam="2">  1       -2 0.10017332E+00 0.20615709E+04</pdfrwt>
<totfact> 0.81406998E+00</totfact>
</mgrwt>
</event>
<event>
 6    1  0.1014650E-006  0.1899973E+04  0.7818608E-02  0.8654870E-01
         -2   -1    0    0    0  501 -0.00000000000E+00  0.00000000000E+00  0.55768391864E+03  0.55768391864E+03  0.00000000000E+00 0.  1.
          2   -1    0    0  501    0  0.00000000000E+00 -0.00000000000E+00 -0.16182545459E+04  0.16182545459E+04  0.00000000000E+00 0. -1.
         23    2    1    2    0    0 -0.31873123166E+03  0.14452624453E+03 -0.15402492661E+04  0.15821632294E+04  0.91625592664E+02 0.  0.
         13    1    3    3    0    0 -0.22495177777E+03  0.68497318169E+02 -0.87490580785E+03  0.90595549423E+03  0.00000000000E+00 0.  1.
        -13    1    3    3    0    0 -0.93779453896E+02  0.76028926360E+02 -0.66534345825E+03  0.67620773513E+03  0.00000000000E+00 0. -1.
         22    1    1    2    0    0  0.31873123166E+03 -0.14452624453E+03  0.47967863882E+03  0.59377523520E+03  0.00000000000E+00 0.  1.
<mgrwt>
<rscale>  0 0.18999732E+04</rscale>
<asrwt>0</asrwt>
<pdfrwt beam="1">  1        2 0.24896224E+00 0.18999732E+04</pdfrwt>
<pdfrwt beam="2">  1       -2 0.85797526E-01 0.18999732E+04</pdfrwt>
<totfact> 0.12032793E+01</totfact>
</mgrwt>
</event>
<event>
 6    1  0.1014650E-006  0.4442968E+04  0.7818608E-02  0.7920698E-01
         -1   -1    0    0    0  501 -0.00000000000E+00  0.00000000000E+00  0.29802533166E+04  0.29802533166E+04  0.00000000000E+00 0.  1.
          1   -1    0    0  501    0  0.00000000000E+00 -0.00000000000E+00 -0.16558966293E+04  0.16558966293E+04  0.00000000000E+00 0. -1.
         23    2    1    2    0    0  0.87139202921E+03  0.38124562195E+03  0.27562495001E+04  0.29171417086E+04  0.90178426006E+02 0.  0.
         11    1    3    3    0    0  0.30482870469E+03  0.14815183513E+03  0.11101367977E+04  0.11607209893E+04  0.00000000000E+00 0. -1.
        -11    1    3    3    0    0  0.56656332452E+03  0.23309378682E+03  0.16461127024E+04  0.17564207193E+04  0.00000000000E+00 0.  1.
         22    1    1    2    0    0 -0.87139202921E+03 -0.38124562195E+03 -0.14318928128E+04  0.17190082374E+04  0.00000000000E+00 0. -1.
<mgrwt>
<rscale>  0 0.44429681E+04</rscale>
<asrwt>0</asrwt>
<pdfrwt beam="1">  1        1 0.25475333E+00 0.44429681E+04</pdfrwt>
<pdfrwt beam="2">  1       -1 0.45850051E+00 0.44429681E+04</pdfrwt>
<totfact> 0.10919099E-02</totfact>
</mgrwt>
</event>
<event>
 6    1  0.1302743E-006  0.2393204E+04  0.7818608E-02  0.8442052E-01
         -2   -1    0    0    0  501 -0.00000000000E+00  0.00000000000E+00  0.62785633220E+03  0.62785633220E+03  0.00000000000E+00 0.  1.
          2   -1    0    0  501    0  0.00000000000E+00 -0.00000000000E+00 -0.22805478165E+04  0.22805478165E+04  0.00000000000E+00 0. -1.
         23    2    1    2    0    0  0.16061720534E+03 -0.10944855571E+04 -0.13763502496E+04  0.17682019739E+04  0.92204607368E+02 0.  0.
         13    1    3    3    0    0  0.11672782107E+03 -0.63973543087E+03 -0.74507394522E+03  0.98894994291E+03  0.00000000000E+00 0.  1.
        -13    1    3    3    0    0  0.43889384272E+02 -0.45475012622E+03 -0.63127630442E+03  0.77925203104E+03  0.00000000000E+00 0. -1.
         22    1    1    2    0    0 -0.16061720534E+03  0.10944855571E+04 -0.27634123464E+03  0.11402021747E+04  0.00000000000E+00 0.  1.
<mgrwt>
<rscale>  0 0.23932040E+04</rscale>
<asrwt>0</asrwt>
<pdfrwt beam="1">  1        2 0.35085351E+00 0.23932040E+04</pdfrwt>
<pdfrwt beam="2">  1       -2 0.96593282E-01 0.23932040E+04</pdfrwt>
<totfact> 0.37498893E+00</totfact>
</mgrwt>
</event>
<event>
 6    1  0.1014650E-006  0.2768549E+04  0.7818608E-02  0.8313100E-01
         -1   -1    0    0    0  501 -0.00000000000E+00  0.00000000000E+00  0.50195261198E+03  0.50195261198E+03  0.00000000000E+00 0.  1.
          1   -1    0    0  501    0  0.00000000000E+00 -0.00000000000E+00 -0.38175234130E+04  0.38175234130E+04  0.00000000000E+00 0. -1.
         23    2    1    2    0    0 -0.12099059435E+04 -0.86493522607E+02 -0.26958069432E+04  0.29573230376E+04  0.83850773385E+02 0.  0.
         13    1    3    3    0    0 -0.88164133305E+03 -0.49503718580E+02 -0.18746427933E+04  0.20722035761E+04  0.00000000000E+00 0. -1.
        -13    1    3    3    0    0 -0.32826461044E+03 -0.36989804027E+02 -0.82116414988E+03  0.88511946149E+03  0.00000000000E+00 0.  1.
         22    1    1    2    0    0  0.12099059435E+04  0.86493522607E+02 -0.61976385783E+03  0.13621529874E+04  0.00000000000E+00 0.  1.
<mgrwt>
<rscale>  0 0.27685490E+04</rscale>
<asrwt>0</asrwt>
<pdfrwt beam="1">  1        1 0.58731130E+00 0.27685490E+04</pdfrwt>
<pdfrwt beam="2">  1       -1 0.77223477E-01 0.27685490E+04</pdfrwt>
<totfact> 0.20111939E-01</totfact>
</mgrwt>
</event>
<event>
 6    1  0.1014650E-006  0.1694123E+04  0.7818608E-02  0.8764723E-01
          2   -1    0    0  501    0  0.00000000000E+00  0.00000000000E+00  0.15283330606E+04  0.15283330606E+04  0.00000000000E+00 0. -1.
         -2   -1    0    0    0  501 -0.00000000000E+00 -0.00000000000E+00 -0.46947432767E+03  0.46947432767E+03  0.00000000000E+00 0.  1.
         23    2    1    2    0    0 -0.68980849276E+03  0.42329288018E+03  0.81570483924E+03  0.11527414529E+04  0.91792447034E+02 0.  0.
         13    1    3    3    0    0 -0.40746154813E+03  0.30213831416E+03  0.50465816439E+03  0.71553639808E+03  0.00000000000E+00 0.  1.
        -13    1    3    3    0    0 -0.28234694463E+03  0.12115456602E+03  0.31104667485E+03  0.43720505480E+03  0.00000000000E+00 0. -1.
         22    1    1    2    0    0  0.68980849276E+03 -0.42329288018E+03  0.24315389364E+03  0.84506593534E+03  0.00000000000E+00 0.  1.
<mgrwt>
<rscale>  0 0.16941229E+04</rscale>
<asrwt>0</asrwt>
<pdfrwt beam="1">  1        2 0.23512816E+00 0.16941229E+04</pdfrwt>
<pdfrwt beam="2">  1       -2 0.72226820E-01 0.16941229E+04</pdfrwt>
<totfact> 0.20212821E+01</totfact>
</mgrwt>
</event>
<event>
 6    1  0.1014650E-006  0.7432971E+03  0.7818608E-02  0.9645925E-01
          3   -1    0    0  501    0  0.00000000000E+00  0.00000000000E+00  0.13700054374E+04  0.13700054374E+04  0.00000000000E+00 0. -1.
         -3   -1    0    0    0  501 -0.00000000000E+00 -0.00000000000E+00 -0.10081906118E+03  0.10081906118E+03  0.00000000000E+00 0.  1.
         23    2    1    2    0    0 -0.26388128466E+03  0.25150098245E+03  0.57799150248E+03  0.68939220460E+03  0.91111789969E+02 0.  0.
         11    1    3    3    0    0 -0.67732279389E+02  0.10454234179E+03  0.13926292200E+03  0.18684465297E+03  0.00000000000E+00 0. -1.
        -11    1    3    3    0    0 -0.19614900527E+03  0.14695864066E+03  0.43872858048E+03  0.50254755164E+03  0.00000000000E+00 0.  1.
         22    1    1    2    0    0  0.26388128466E+03 -0.25150098245E+03  0.69119487371E+03  0.78143229394E+03  0.00000000000E+00 0. -1.
<mgrwt>
<rscale>  0 0.74329715E+03</rscale>
<asrwt>0</asrwt>
<pdfrwt beam="1">  1        3 0.21077005E+00 0.74329715E+03</pdfrwt>
<pdfrwt beam="2">  1       -3 0.15510626E-01 0.74329715E+03</pdfrwt>
<totfact> 0.12140394E+01</totfact>
</mgrwt>
</event>
<event>
 6    1  0.1014650E-006  0.3288081E+04  0.7818608E-02  0.8165935E-01
         -1   -1    0    0    0  501 -0.00000000000E+00  0.00000000000E+00  0.21168832444E+04  0.21168832444E+04  0.00000000000E+00 0.  1.
          1   -1    0    0  501    0  0.00000000000E+00 -0.00000000000E+00 -0.12768150538E+04  0.12768150538E+04  0.00000000000E+00 0. -1.
         23    2    1    2    0    0  0.15569510265E+04  0.24453590677E+03 -0.57953331582E+02  0.15797696991E+04  0.91757315258E+02 0.  0.
         13    1    3    3    0    0  0.47435809236E+03  0.10781922366E+03  0.88192124854E+01  0.48653711399E+03  0.00000000000E+00 0.  1.
        -13    1    3    3    0    0  0.10825929342E+04  0.13671668311E+03 -0.66772544068E+02  0.10932325851E+04  0.00000000000E+00 0. -1.
         22    1    1    2    0    0 -0.15569510265E+04 -0.24453590677E+03  0.89802152218E+03  0.18139285992E+04  0.00000000000E+00 0.  1.
<mgrwt>
<rscale>  0 0.32880805E+04</rscale>
<asrwt>0</asrwt>
<pdfrwt beam="1">  1        1 0.19643309E+00 0.32880805E+04</pdfrwt>
<pdfrwt beam="2">  1       -1 0.32567434E+00 0.32880805E+04</pdfrwt>
<totfact> 0.17534432E-01</totfact>
</mgrwt>
</event>
<event>
 6    1  0.1014650E-006  0.4612996E+03  0.7818608E-02  0.1024405E+00
          2   -1    0    0  501    0  0.00000000000E+00  0.00000000000E+00  0.49111992816E+03  0.49111992816E+03  0.00000000000E+00 0. -1.
         -2   -1    0    0    0  501 -0.00000000000E+00 -0.00000000000E+00 -0.10832247447E+03  0.10832247447E+03  0.00000000000E+00 0.  1.
         23    2    1    2    0    0  0.19500860928E+03 -0.37380293526E+02  0.70995865724E+02  0.22978597526E+03  0.91299164492E+02 0.  0.
         11    1    3    3    0    0  0.99372779479E+01  0.50528483013E+01 -0.17145889960E+02  0.20451462331E+02  0.00000000000E+00 0.  1.
        -11    1    3    3    0    0  0.18507133133E+03 -0.42433141828E+02  0.88141755684E+02  0.20933451292E+03  0.00000000000E+00 0. -1.
         22    1    1    2    0    0 -0.19500860928E+03  0.37380293526E+02  0.31180158796E+03  0.36965642737E+03  0.00000000000E+00 0. -1.
<mgrwt>
<rscale>  0 0.46129958E+03</rscale>
<asrwt>0</asrwt>
<pdfrwt beam="1">  1        2 0.75556911E-01 0.46129958E+03</pdfrwt>
<pdfrwt beam="2">  1       -2 0.16664996E-01 0.46129958E+03</pdfrwt>
<totfact> 0.18336337E+03</totfact>
</mgrwt>
</event>
<event>
 6    1  0.1014650E-006  0.1899717E+04  0.7818608E-02  0.8654997E-01
         -2   -1    0    0    0  501 -0.00000000000E+00  0.00000000000E+00  0.64432327772E+03  0.64432327772E+03  0.00000000000E+00 0.  1.
          2   -1    0    0  501    0  0.00000000000E+00 -0.00000000000E+00 -0.14002764757E+04  0.14002764757E+04  0.00000000000E+00 0. -1.
         23    2    1    2    0    0 -0.77155424637E+03 -0.44842299589E+03 -0.35573128991E+02  0.89772287157E+03  0.90894269938E+02 0.  0.
         11    1    3    3    0    0 -0.63257762950E+03 -0.36904222797E+03 -0.64078427257E+02  0.73515486001E+03  0.00000000000E+00 0. -1.
        -11    1    3    3    0    0 -0.13897661687E+03 -0.79380767926E+02  0.28505298265E+02  0.16256801156E+03  0.00000000000E+00 0.  1.
         22    1    1    2    0    0  0.77155424637E+03  0.44842299589E+03 -0.72038006898E+03  0.11468768818E+04  0.00000000000E+00 0. -1.
<mgrwt>
<rscale>  0 0.18997165E+04</rscale>
<asrwt>0</asrwt>
<pdfrwt beam="1">  1        2 0.21542715E+00 0.18997165E+04</pdfrwt>
<pdfrwt beam="2">  1       -2 0.99126658E-01 0.18997165E+04</pdfrwt>
<totfact> 0.11427084E+01</totfact>
</mgrwt>
</event>
<event>
 6    1  0.1115104E-006  0.3437391E+04  0.7818608E-02  0.8128790E-01
          1   -1    0    0  501    0  0.00000000000E+00  0.00000000000E+00  0.15716495753E+04  0.15716495753E+04  0.00000000000E+00 0. -1.
         -1   -1    0    0    0  501 -0.00000000000E+00 -0.00000000000E+00 -0.18794990394E+04  0.18794990394E+04  0.00000000000E+00 0.  1.
         23    2    1    2    0    0  0.38122314974E+03 -0.13140245619E+04 -0.11963834479E+04  0.18197430000E+04  0.90219691038E+02 0.  0.
         11    1    3    3    0    0  0.12058705817E+03 -0.56692750928E+03 -0.52508979260E+03  0.78209163764E+03  0.00000000000E+00 0.  1.
        -11    1    3    3    0    0  0.26063609157E+03 -0.74709705261E+03 -0.67129365528E+03  0.10376513624E+04  0.00000000000E+00 0. -1.
         22    1    1    2    0    0 -0.38122314974E+03  0.13140245619E+04  0.88853398374E+03  0.16314056146E+04  0.00000000000E+00 0. -1.
<mgrwt>
<rscale>  0 0.34373908E+04</rscale>
<asrwt>0</asrwt>
<pdfrwt beam="1">  1        1 0.24179224E+00 0.34373908E+04</pdfrwt>
<pdfrwt beam="2">  1       -1 0.28915370E+00 0.34373908E+04</pdfrwt>
<totfact> 0.18583836E-01</totfact>
</mgrwt>
</event>
<event>
 6    1  0.1014650E-006  0.4441922E+04  0.7818608E-02  0.7920884E-01
          2   -1    0    0  501    0  0.00000000000E+00  0.00000000000E+00  0.28120499279E+04  0.28120499279E+04  0.00000000000E+00 0. -1.
         -2   -1    0    0    0  501 -0.00000000000E+00 -0.00000000000E+00 -0.17541181410E+04  0.17541181410E+04  0.00000000000E+00 0.  1.
         23    2    1    2    0    0 -0.90026964073E+03  0.17815478486E+04  0.15278443001E+04  0.25155057532E+04  0.95198878491E+02 0.  0.
         11    1    3    3    0    0 -0.66787856577E+03  0.12310371488E+04  0.10898620029E+04  0.17746305040E+04  0.00000000000E+00 0.  1.
        -11    1    3    3    0    0 -0.23239107497E+03  0.55051069979E+03  0.43798229717E+03  0.74087524924E+03  0.00000000000E+00 0. -1.
         22    1    1    2    0    0  0.90026964073E+03 -0.17815478486E+04 -0.46991251318E+03  0.20506623157E+04  0.00000000000E+00 0.  1.
<mgrwt>
<rscale>  0 0.44419220E+04</rscale>
<asrwt>0</asrwt>
<pdfrwt beam="1">  1        2 0.43262307E+00 0.44419220E+04</pdfrwt>
<pdfrwt beam="2">  1       -2 0.26986433E+00 0.44419220E+04</pdfrwt>
<totfact> 0.84036432E-02</totfact>
</mgrwt>
</event>
<event>
 6    1  0.1014650E-006  0.2383965E+04  0.7818608E-02  0.8445531E-01
          2   -1    0    0  501    0  0.00000000000E+00  0.00000000000E+00  0.29283016097E+04  0.29283016097E+04  0.00000000000E+00 0. -1.
         -2   -1    0    0    0  501 -0.00000000000E+00 -0.00000000000E+00 -0.48520366401E+03  0.48520366401E+03  0.00000000000E+00 0.  1.
         23    2    1    2    0    0  0.40868807391E+03 -0.53412925125E+03 -0.18290541282E+03  0.70274640621E+03  0.89878376671E+02 0.  0.
         13    1    3    3    0    0  0.15570894097E+03 -0.26504380662E+03 -0.10857953783E+03  0.32601075098E+03  0.00000000000E+00 0. -1.
        -13    1    3    3    0    0  0.25297913295E+03 -0.26908544464E+03 -0.74325874998E+02  0.37673565522E+03  0.00000000000E+00 0.  1.
         22    1    1    2    0    0 -0.40868807391E+03  0.53412925125E+03  0.26260033586E+04  0.27107588675E+04  0.00000000000E+00 0. -1.
<mgrwt>
<rscale>  0 0.23839653E+04</rscale>
<asrwt>0</asrwt>
<pdfrwt beam="1">  1        2 0.45050793E+00 0.23839653E+04</pdfrwt>
<pdfrwt beam="2">  1       -2 0.74646719E-01 0.23839653E+04</pdfrwt>
<totfact> 0.28049364E+00</totfact>
</mgrwt>
</event>
<event>
 6    1  0.1014650E-006  0.3042747E+04  0.7818608E-02  0.8231629E-01
          2   -1    0    0  501    0  0.00000000000E+00  0.00000000000E+00  0.20075697420E+04  0.20075697420E+04  0.00000000000E+00 0. -1.
         -2   -1    0    0    0  501 -0.00000000000E+00 -0.00000000000E+00 -0.11529246289E+04  0.11529246289E+04  0.00000000000E+00 0.  1.
         23    2    1    2    0    0 -0.11946250710E+04 -0.68480012706E+03  0.10961605105E+04  0.17624922388E+04  0.93438496340E+02 0.  0.
         13    1    3    3    0    0 -0.64156899055E+03 -0.34977108898E+03  0.63752327233E+03  0.96973527680E+03  0.00000000000E+00 0. -1.
        -13    1    3    3    0    0 -0.55305608046E+03 -0.33502903807E+03  0.45863723822E+03  0.79275696198E+03  0.00000000000E+00 0.  1.
         22    1    1    2    0    0  0.11946250710E+04  0.68480012706E+03 -0.24151539743E+03  0.13980021322E+04  0.00000000000E+00 0.  1.
<mgrwt>
<rscale>  0 0.30427465E+04</rscale>
<asrwt>0</asrwt>
<pdfrwt beam="1">  1        2 0.30885688E+00 0.30427465E+04</pdfrwt>
<pdfrwt beam="2">  1       -2 0.17737302E+00 0.30427465E+04</pdfrwt>
<totfact> 0.10674346E+00</totfact>
</mgrwt>
</event>
<event>
 6    1  0.1014650E-006  0.1003260E+04  0.7818608E-02  0.9304977E-01
         -1   -1    0    0    0  501 -0.00000000000E+00  0.00000000000E+00  0.17106177720E+03  0.17106177720E+03  0.00000000000E+00 0.  1.
          1   -1    0    0  501    0  0.00000000000E+00 -0.00000000000E+00 -0.14710045760E+04  0.14710045760E+04  0.00000000000E+00 0. -1.
         23    2    1    2    0    0  0.16428762931E+03 -0.35940265287E+03 -0.16079731174E+03  0.43632461769E+03  0.91447823931E+02 0.  0.
         13    1    3    3    0    0  0.14730810828E+03 -0.22357606661E+03 -0.12068319192E+03  0.29368413157E+03  0.00000000000E+00 0.  1.
        -13    1    3    3    0    0  0.16979521031E+02 -0.13582658627E+03 -0.40114119819E+02  0.14264048612E+03  0.00000000000E+00 0. -1.
         22    1    1    2    0    0 -0.16428762931E+03  0.35940265287E+03 -0.11391454870E+04  0.12057417355E+04  0.00000000000E+00 0. -1.
<mgrwt>
<rscale>  0 0.10032600E+04</rscale>
<asrwt>0</asrwt>
<pdfrwt beam="1">  1        1 0.22630841E+00 0.10032600E+04</pdfrwt>
<pdfrwt beam="2">  1       -1 0.26317195E-01 0.10032600E+04</pdfrwt>
<totfact> 0.88052074E+01</totfact>
</mgrwt>
</event>
<event>
 6    1  0.1014650E-006  0.3368554E+04  0.7818608E-02  0.8145668E-01
         -1   -1    0    0    0  501 -0.00000000000E+00  0.00000000000E+00  0.16762451263E+04  0.16762451263E+04  0.00000000000E+00 0.  1.
          1   -1    0    0  501    0  0.00000000000E+00 -0.00000000000E+00 -0.16923469159E+04  0.16923469159E+04  0.00000000000E+00 0. -1.
         23    2    1    2    0    0 -0.96480503189E+03 -0.69175955659E+01 -0.13871283360E+04  0.16921045256E+04  0.90532327164E+02 0.  0.
         11    1    3    3    0    0 -0.44155794647E+03 -0.38340711662E+02 -0.58640405299E+03  0.73505995921E+03  0.00000000000E+00 0.  1.
        -11    1    3    3    0    0 -0.52324708541E+03  0.31423116096E+02 -0.80072428302E+03  0.95704456638E+03  0.00000000000E+00 0. -1.
         22    1    1    2    0    0  0.96480503189E+03  0.69175955659E+01  0.13710265464E+04  0.16764875167E+04  0.00000000000E+00 0.  1.
<mgrwt>
<rscale>  0 0.33685536E+04</rscale>
<asrwt>0</asrwt>
<pdfrwt beam="1">  1        1 0.26036106E+00 0.33685536E+04</pdfrwt>
<pdfrwt beam="2">  1       -1 0.25788387E+00 0.33685536E+04</pdfrwt>
<totfact> 0.24643295E-01</totfact>
</mgrwt>
</event>
<event>
 6    1  0.1014650E-006  0.2032232E+04  0.7818608E-02  0.8591698E-01
         -2   -1    0    0    0  501 -0.00000000000E+00  0.00000000000E+00  0.34013905599E+03  0.34013905599E+03  0.00000000000E+00 0.  1.
          2   -1    0    0  501    0  0.00000000000E+00 -0.00000000000E+00 -0.30354983204E+04  0.30354983204E+04  0.00000000000E+00 0. -1.
         23    2    1    2    0    0 -0.59212780525E+03 -0.83149528230E+02 -0.27107509084E+04  0.27775018696E+04  0.93898701426E+02 0.  0.
         11    1    3    3    0    0 -0.40600667270E+03 -0.10001420971E+03 -0.18370560816E+04  0.18840433401E+04  0.00000000000E+00 0.  1.
        -11    1    3    3    0    0 -0.18612113255E+03  0.16864681478E+02 -0.87369482681E+03  0.89345852945E+03  0.00000000000E+00 0. -1.
         22    1    1    2    0    0  0.59212780525E+03  0.83149528230E+02  0.15391644026E+02  0.59813550680E+03  0.00000000000E+00 0.  1.
<mgrwt>
<rscale>  0 0.20322318E+04</rscale>
<asrwt>0</asrwt>
<pdfrwt beam="1">  1        2 0.46699974E+00 0.20322318E+04</pdfrwt>
<pdfrwt beam="2">  1       -2 0.52329086E-01 0.20322318E+04</pdfrwt>
<totfact> 0.52945758E+00</totfact>
</mgrwt>
</event>
<event>
 6    1  0.1014650E-006  0.1175304E+04  0.7818608E-02  0.9134752E-01
         -1   -1    0    0    0  501 -0.00000000000E+00  0.00000000000E+00  0.85785958788E+03  0.85785958788E+03  0.00000000000E+00 0.  1.
          1   -1    0    0  501    0  0.00000000000E+00 -0.00000000000E+00 -0.40255401206E+03  0.40255401206E+03  0.00000000000E+00 0. -1.
         23    2    1    2    0    0  0.46718480900E+03  0.33042808708E+03  0.35441837067E+03  0.67936059490E+03  0.92054711735E+02 0.  0.
         13    1    3    3    0    0  0.27815555562E+03  0.16747330012E+03  0.24554174013E+03  0.40707316974E+03  0.00000000000E+00 0.  1.
        -13    1    3    3    0    0  0.18902925337E+03  0.16295478697E+03  0.10887663054E+03  0.27228742517E+03  0.00000000000E+00 0. -1.
         22    1    1    2    0    0 -0.46718480900E+03 -0.33042808708E+03  0.10088720516E+03  0.58105300503E+03  0.00000000000E+00 0.  1.
<mgrwt>
<rscale>  0 0.11753039E+04</rscale>
<asrwt>0</asrwt>
<pdfrwt beam="1">  1        1 0.61931387E-01 0.11753039E+04</pdfrwt>
<pdfrwt beam="2">  1       -1 0.13197840E+00 0.11753039E+04</pdfrwt>
<totfact> 0.28793889E+01</totfact>
</mgrwt>
</event>
<event>
 6    1  0.1014650E-006  0.1638824E+04  0.7818608E-02  0.8797046E-01
          1   -1    0    0  501    0  0.00000000000E+00  0.00000000000E+00  0.10900973687E+04  0.10900973687E+04  0.00000000000E+00 0. -1.
         -1   -1    0    0    0  501 -0.00000000000E+00 -0.00000000000E+00 -0.61594125254E+03  0.61594125254E+03  0.00000000000E+00 0.  1.
         23    2    1    2    0    0 -0.67594775172E+02 -0.74640922312E+03  0.57591389321E+03  0.94969846816E+03  0.92491005191E+02 0.  0.
         13    1    3    3    0    0 -0.25174486794E+02 -0.50667672510E+03  0.43589222735E+03  0.66884758533E+03  0.00000000000E+00 0.  1.
        -13    1    3    3    0    0 -0.42420288378E+02 -0.23973249802E+03  0.14002166586E+03  0.28085088282E+03  0.00000000000E+00 0. -1.
         22    1    1    2    0    0  0.67594775172E+02  0.74640922312E+03 -0.10175777704E+03  0.75634015309E+03  0.00000000000E+00 0.  1.
<mgrwt>
<rscale>  0 0.16388239E+04</rscale>
<asrwt>0</asrwt>
<pdfrwt beam="1">  1        1 0.16770729E+00 0.16388239E+04</pdfrwt>
<pdfrwt beam="2">  1       -1 0.94760193E-01 0.16388239E+04</pdfrwt>
<totfact> 0.13288135E+01</totfact>
</mgrwt>
</event>
<event>
 6    1  0.1014650E-006  0.1730464E+04  0.7818608E-02  0.8744178E-01
          1   -1    0    0  501    0  0.00000000000E+00  0.00000000000E+00  0.55120539886E+03  0.55120539886E+03  0.00000000000E+00 0. -1.
         -1   -1    0    0    0  501 -0.00000000000E+00 -0.00000000000E+00 -0.13581625332E+04  0.13581625332E+04  0.00000000000E+00 0.  1.
         23    2    1    2    0    0  0.64805836048E+03 -0.51393242416E+03 -0.67511128901E+03  0.10718182308E+04  0.94408114891E+02 0.  0.
         13    1    3    3    0    0  0.61053553173E+03 -0.48334609454E+03 -0.60260676550E+03  0.98463800273E+03  0.00000000000E+00 0. -1.
        -13    1    3    3    0    0  0.37522828751E+02 -0.30586329617E+02 -0.72504523510E+02  0.87180228070E+02  0.00000000000E+00 0.  1.
         22    1    1    2    0    0 -0.64805836048E+03  0.51393242416E+03 -0.13184584536E+03  0.83754970129E+03  0.00000000000E+00 0.  1.
<mgrwt>
<rscale>  0 0.17304641E+04</rscale>
<asrwt>0</asrwt>
<pdfrwt beam="1">  1        1 0.84800832E-01 0.17304641E+04</pdfrwt>
<pdfrwt beam="2">  1       -1 0.20894808E+00 0.17304641E+04</pdfrwt>
<totfact> 0.47963101E+00</totfact>
</mgrwt>
</event>
<event>
 6    1  0.1014650E-006  0.3285618E+04  0.7818608E-02  0.8166564E-01
         -2   -1    0    0    0  501 -0.00000000000E+00  0.00000000000E+00  0.13154235465E+04  0.13154235465E+04  0.00000000000E+00 0.  1.
          2   -1    0    0  501    0  0.00000000000E+00 -0.00000000000E+00 -0.20516752204E+04  0.20516752204E+04  0.00000000000E+00 0. -1.
         23    2    1    2    0    0 -0.96633679915E+03 -0.19460176878E+03 -0.17126639660E+04  0.19796343089E+04  0.11856423916E+03 0.  0.
         13    1    3    3    0    0 -0.22910155578E+03 -0.62210962421E+02 -0.32162212227E+03  0.39974806596E+03  0.00000000000E+00 0. -1.
        -13    1    3    3    0    0 -0.73723524336E+03 -0.13239080636E+03 -0.13910418437E+04  0.15798862430E+04  0.00000000000E+00 0.  1.
         22    1    1    2    0    0  0.96633679915E+03  0.19460176878E+03  0.97641229219E+03  0.13874644580E+04  0.00000000000E+00 0.  1.
<mgrwt>
<rscale>  0 0.32856183E+04</rscale>
<asrwt>0</asrwt>
<pdfrwt beam="1">  1        2 0.31564234E+00 0.32856183E+04</pdfrwt>
<pdfrwt beam="2">  1       -2 0.20237285E+00 0.32856183E+04</pdfrwt>
<totfact> 0.67095020E-01</totfact>
</mgrwt>
</event>
<event>
 6    1  0.1014650E-006  0.3409792E+04  0.7818608E-02  0.8135507E-01
         -1   -1    0    0    0  501 -0.00000000000E+00  0.00000000000E+00  0.17507704895E+04  0.17507704895E+04  0.00000000000E+00 0.  1.
          1   -1    0    0  501    0  0.00000000000E+00 -0.00000000000E+00 -0.16602232277E+04  0.16602232277E+04  0.00000000000E+00 0. -1.
         23    2    1    2    0    0  0.83078493620E+02  0.55670710160E+03 -0.15632153759E+04  0.16640662158E+04  0.93001214248E+02 0.  0.
         11    1    3    3    0    0 -0.18501376340E+01  0.29708408719E+03 -0.78965116369E+03  0.84368912413E+03  0.00000000000E+00 0. -1.
        -11    1    3    3    0    0  0.84928631254E+02  0.25962301440E+03 -0.77356421223E+03  0.82037709163E+03  0.00000000000E+00 0.  1.
         22    1    1    2    0    0 -0.83078493620E+02 -0.55670710160E+03  0.16537626377E+04  0.17469275014E+04  0.00000000000E+00 0.  1.
<mgrwt>
<rscale>  0 0.34097917E+04</rscale>
<asrwt>0</asrwt>
<pdfrwt beam="1">  1        1 0.25541896E+00 0.34097917E+04</pdfrwt>
<pdfrwt beam="2">  1       -1 0.26934930E+00 0.34097917E+04</pdfrwt>
<totfact> 0.21760637E-01</totfact>
</mgrwt>
</event>
<event>
 6    1  0.1014650E-006  0.1943385E+04  0.7818608E-02  0.8633557E-01
         -2   -1    0    0    0  501 -0.00000000000E+00  0.00000000000E+00  0.52402765454E+03  0.52402765454E+03  0.00000000000E+00 0.  1.
          2   -1    0    0  501    0  0.00000000000E+00 -0.00000000000E+00 -0.18017875971E+04  0.18017875971E+04  0.00000000000E+00 0. -1.
         23    2    1    2    0    0  0.61859182316E+03  0.26731420319E+03  0.19381865026E+03  0.70728002442E+03  0.92556128114E+02 0.  0.
         11    1    3    3    0    0  0.13746462651E+03  0.51788186399E+02  0.82437954184E+02  0.16844748761E+03  0.00000000000E+00 0.  1.
        -11    1    3    3    0    0  0.48112719665E+03  0.21552601679E+03  0.11138069608E+03  0.53883253681E+03  0.00000000000E+00 0. -1.
         22    1    1    2    0    0 -0.61859182316E+03 -0.26731420319E+03 -0.14715785928E+04  0.16185352272E+04  0.00000000000E+00 0. -1.
<mgrwt>
<rscale>  0 0.19433852E+04</rscale>
<asrwt>0</asrwt>
<pdfrwt beam="1">  1        2 0.27719810E+00 0.19433852E+04</pdfrwt>
<pdfrwt beam="2">  1       -2 0.80619638E-01 0.19433852E+04</pdfrwt>
<totfact> 0.10914475E+01</totfact>
</mgrwt>
</event>
<event>
 6    1  0.1014650E-006  0.1091009E+04  0.7818608E-02  0.9214000E-01
          1   -1    0    0  501    0  0.00000000000E+00  0.00000000000E+00  0.12406962098E+04  0.12406962098E+04  0.00000000000E+00 0. -1.
         -1   -1    0    0    0  501 -0.00000000000E+00 -0.00000000000E+00 -0.23984530576E+03  0.23984530576E+03  0.00000000000E+00 0.  1.
         23    2    1    2    0    0  0.46625005943E+03  0.22829023744E+03  0.29373983445E+03  0.60332340406E+03  0.90611749351E+02 0.  0.
         13    1    3    3    0    0  0.12330371268E+03  0.10446939206E+03  0.75395096536E+02  0.17833137699E+03  0.00000000000E+00 0. -1.
        -13    1    3    3    0    0  0.34294634675E+03  0.12382084538E+03  0.21834473791E+03  0.42499202707E+03  0.00000000000E+00 0.  1.
         22    1    1    2    0    0 -0.46625005943E+03 -0.22829023744E+03  0.70711106963E+03  0.87721811154E+03  0.00000000000E+00 0.  1.
<mgrwt>
<rscale>  0 0.10910090E+04</rscale>
<asrwt>0</asrwt>
<pdfrwt beam="1">  1        1 0.19087634E+00 0.10910090E+04</pdfrwt>
<pdfrwt beam="2">  1       -1 0.36899279E-01 0.10910090E+04</pdfrwt>
<totfact> 0.70151423E+01</totfact>
</mgrwt>
</event>
<event>
 6    1  0.1014650E-006  0.5703067E+04  0.7818608E-02  0.7728349E-01
         -2   -1    0    0    0  501 -0.00000000000E+00  0.00000000000E+00  0.46191774571E+04  0.46191774571E+04  0.00000000000E+00 0.  1.
          2   -1    0    0  501    0  0.00000000000E+00 -0.00000000000E+00 -0.17603226991E+04  0.17603226991E+04  0.00000000000E+00 0. -1.
         23    2    1    2    0    0  0.33979807430E+03  0.14262880909E+04  0.41646624015E+04  0.44161117454E+04  0.88710648606E+02 0.  0.
         11    1    3    3    0    0  0.25133704863E+03  0.10625377825E+04  0.32138745582E+04  0.33942814449E+04  0.00000000000E+00 0. -1.
        -11    1    3    3    0    0  0.88461025670E+02  0.36375030843E+03  0.95078784334E+03  0.10218303005E+04  0.00000000000E+00 0.  1.
         22    1    1    2    0    0 -0.33979807430E+03 -0.14262880909E+04 -0.13058076436E+04  0.19633884108E+04  0.00000000000E+00 0. -1.
<mgrwt>
<rscale>  0 0.57030669E+04</rscale>
<asrwt>0</asrwt>
<pdfrwt beam="1">  1        2 0.27081888E+00 0.57030669E+04</pdfrwt>
<pdfrwt beam="2">  1       -2 0.71064268E+00 0.57030669E+04</pdfrwt>
<totfact> 0.13198518E-03</totfact>
</mgrwt>
</event>
<event>
 6    1  0.1014650E-006  0.2936007E+04  0.7818608E-02  0.8262244E-01
         -2   -1    0    0    0  501 -0.00000000000E+00  0.00000000000E+00  0.10696545419E+04  0.10696545419E+04  0.00000000000E+00 0.  1.
          2   -1    0    0  501    0  0.00000000000E+00 -0.00000000000E+00 -0.20147009927E+04  0.20147009927E+04  0.00000000000E+00 0. -1.
         23    2    1    2    0    0 -0.88807846532E+03 -0.83987113689E+03  0.37852540631E+03  0.12827147968E+04  0.89492344114E+02 0.  0.
         13    1    3    3    0    0 -0.44272900602E+03 -0.36274343945E+03  0.19618989347E+03  0.60504731215E+03  0.00000000000E+00 0.  1.
        -13    1    3    3    0    0 -0.44534945929E+03 -0.47712769744E+03  0.18233551284E+03  0.67766748468E+03  0.00000000000E+00 0. -1.
         22    1    1    2    0    0  0.88807846532E+03  0.83987113689E+03 -0.13235718571E+04  0.18016407378E+04  0.00000000000E+00 0. -1.
<mgrwt>
<rscale>  0 0.29360069E+04</rscale>
<asrwt>0</asrwt>
<pdfrwt beam="1">  1        2 0.30995400E+00 0.29360069E+04</pdfrwt>
<pdfrwt beam="2">  1       -2 0.16456224E+00 0.29360069E+04</pdfrwt>
<totfact> 0.13159142E+00</totfact>
</mgrwt>
</event>
<event>
 6    1  0.1014650E-006  0.3713213E+04  0.7818608E-02  0.8065040E-01
         -2   -1    0    0    0  501 -0.00000000000E+00  0.00000000000E+00  0.18733918379E+04  0.18733918379E+04  0.00000000000E+00 0.  1.
          2   -1    0    0  501    0  0.00000000000E+00 -0.00000000000E+00 -0.18399712561E+04  0.18399712561E+04  0.00000000000E+00 0. -1.
         23    2    1    2    0    0 -0.17421005297E+04  0.53079023426E+03  0.37194918301E+03  0.18609986207E+04  0.91198373811E+02 0.  0.
         13    1    3    3    0    0 -0.10301117899E+04  0.33703652496E+03  0.18153071690E+03  0.10989437292E+04  0.00000000000E+00 0.  1.
        -13    1    3    3    0    0 -0.71198873977E+03  0.19375370930E+03  0.19041846612E+03  0.76205489150E+03  0.00000000000E+00 0. -1.
         22    1    1    2    0    0  0.17421005297E+04 -0.53079023426E+03 -0.33852860117E+03  0.18523644733E+04  0.00000000000E+00 0. -1.
<mgrwt>
<rscale>  0 0.37132127E+04</rscale>
<asrwt>0</asrwt>
<pdfrwt beam="1">  1        2 0.28307250E+00 0.37132127E+04</pdfrwt>
<pdfrwt beam="2">  1       -2 0.28821413E+00 0.37132127E+04</pdfrwt>
<totfact> 0.24842225E-01</totfact>
</mgrwt>
</event>
<event>
 6    1  0.1014650E-006  0.3893886E+04  0.7818608E-02  0.8026302E-01
          2   -1    0    0  501    0  0.00000000000E+00  0.00000000000E+00  0.22321042283E+04  0.22321042283E+04  0.00000000000E+00 0. -1.
         -2   -1    0    0    0  501 -0.00000000000E+00 -0.00000000000E+00 -0.16982127329E+04  0.16982127329E+04  0.00000000000E+00 0.  1.
         23    2    1    2    0    0  0.12315305506E+04  0.10322205308E+04  0.13747243274E+04  0.21167165166E+04  0.92060384526E+02 0.  0.
         13    1    3    3    0    0  0.99774908454E+03  0.84733417143E+03  0.10726603927E+04  0.16923589311E+04  0.00000000000E+00 0.  1.
        -13    1    3    3    0    0  0.23378146604E+03  0.18488635936E+03  0.30206393470E+03  0.42435758552E+03  0.00000000000E+00 0. -1.
         22    1    1    2    0    0 -0.12315305506E+04 -0.10322205308E+04 -0.84083283192E+03  0.18136004445E+04  0.00000000000E+00 0. -1.
<mgrwt>
<rscale>  0 0.38938864E+04</rscale>
<asrwt>0</asrwt>
<pdfrwt beam="1">  1        2 0.34340065E+00 0.38938864E+04</pdfrwt>
<pdfrwt beam="2">  1       -2 0.26126350E+00 0.38938864E+04</pdfrwt>
<totfact> 0.21601722E-01</totfact>
</mgrwt>
</event>
<event>
 6    1  0.1014650E-006  0.3028394E+04  0.7818608E-02  0.8235669E-01
          4   -1    0    0  501    0  0.00000000000E+00  0.00000000000E+00  0.14459972705E+04  0.14459972705E+04  0.00000000000E+00 0. -1.
         -4   -1    0    0    0  501 -0.00000000000E+00 -0.00000000000E+00 -0.15856129996E+04  0.15856129996E+04  0.00000000000E+00 0.  1.
         23    2    1    2    0    0  0.12073143303E+03 -0.13801969583E+04 -0.67801037054E+03  0.15452090751E+04  0.91941831973E+02 0.  0.
         13    1    3    3    0    0  0.97539787345E+02 -0.75110239299E+03 -0.33346223121E+03  0.82756623573E+03  0.00000000000E+00 0. -1.
        -13    1    3    3    0    0  0.23191645682E+02 -0.62909456534E+03 -0.34454813933E+03  0.71764283936E+03  0.00000000000E+00 0.  1.
         22    1    1    2    0    0 -0.12073143303E+03  0.13801969583E+04  0.53839464137E+03  0.14864011950E+04  0.00000000000E+00 0. -1.
<mgrwt>
<rscale>  0 0.30283937E+04</rscale>
<asrwt>0</asrwt>
<pdfrwt beam="1">  1        4 0.22246112E+00 0.30283937E+04</pdfrwt>
<pdfrwt beam="2">  1       -4 0.24394046E+00 0.30283937E+04</pdfrwt>
<totfact> 0.10980647E-02</totfact>
</mgrwt>
</event>
<event>
 6    1  0.1014650E-006  0.4417558E+04  0.7818608E-02  0.7925231E-01
         -1   -1    0    0    0  501 -0.00000000000E+00  0.00000000000E+00  0.25214200151E+04  0.25214200151E+04  0.00000000000E+00 0.  1.
          1   -1    0    0  501    0  0.00000000000E+00 -0.00000000000E+00 -0.19349035852E+04  0.19349035852E+04  0.00000000000E+00 0. -1.
         23    2    1    2    0    0 -0.20468181555E+04  0.55774578909E+03 -0.32361841332E+03  0.21478846560E+04  0.90192520966E+02 0.  0.
         13    1    3    3    0    0 -0.85326409949E+03  0.26305646340E+03 -0.16994037685E+03  0.90892137069E+03  0.00000000000E+00 0. -1.
        -13    1    3    3    0    0 -0.11935540560E+04  0.29468932570E+03 -0.15367803647E+03  0.12389632853E+04  0.00000000000E+00 0.  1.
         22    1    1    2    0    0  0.20468181555E+04 -0.55774578909E+03  0.91013484321E+03  0.23084389444E+04  0.00000000000E+00 0.  1.
<mgrwt>
<rscale>  0 0.44175580E+04</rscale>
<asrwt>0</asrwt>
<pdfrwt beam="1">  1        1 0.29767747E+00 0.44175580E+04</pdfrwt>
<pdfrwt beam="2">  1       -1 0.38791077E+00 0.44175580E+04</pdfrwt>
<totfact> 0.21577196E-02</totfact>
</mgrwt>
</event>
<event>
 6    1  0.1014650E-006  0.2540158E+04  0.7818608E-02  0.8388817E-01
         -1   -1    0    0    0  501 -0.00000000000E+00  0.00000000000E+00  0.81706382607E+03  0.81706382607E+03  0.00000000000E+00 0.  1.
          1   -1    0    0  501    0  0.00000000000E+00 -0.00000000000E+00 -0.19742647560E+04  0.19742647560E+04  0.00000000000E+00 0. -1.
         23    2    1    2    0    0 -0.68190717845E+03 -0.25556373579E+03 -0.17205977423E+04  0.18706081081E+04  0.91694493440E+02 0.  0.
         13    1    3    3    0    0 -0.24451621573E+03 -0.13435426643E+03 -0.70539368153E+03  0.75856410053E+03  0.00000000000E+00 0.  1.
        -13    1    3    3    0    0 -0.43739096272E+03 -0.12120946936E+03 -0.10152040608E+04  0.11120440076E+04  0.00000000000E+00 0. -1.
         22    1    1    2    0    0  0.68190717845E+03  0.25556373579E+03  0.56339681235E+03  0.92072047400E+03  0.00000000000E+00 0.  1.
<mgrwt>
<rscale>  0 0.25401577E+04</rscale>
<asrwt>0</asrwt>
<pdfrwt beam="1">  1        1 0.30373304E+00 0.25401577E+04</pdfrwt>
<pdfrwt beam="2">  1       -1 0.12570213E+00 0.25401577E+04</pdfrwt>
<totfact> 0.15154735E+00</totfact>
</mgrwt>
</event>
<event>
 6    1  0.1014650E-006  0.4392768E+04  0.7818608E-02  0.7929684E-01
         -1   -1    0    0    0  501 -0.00000000000E+00  0.00000000000E+00  0.23135173897E+04  0.23135173897E+04  0.00000000000E+00 0.  1.
          1   -1    0    0  501    0  0.00000000000E+00 -0.00000000000E+00 -0.20851810036E+04  0.20851810036E+04  0.00000000000E+00 0. -1.
         23    2    1    2    0    0  0.15521713061E+04 -0.87561193566E+03 -0.11697711375E+04  0.21336075180E+04  0.89356035487E+02 0.  0.
         13    1    3    3    0    0  0.12530870689E+04 -0.73010500319E+03 -0.98483201382E+03  0.17530472365E+04  0.00000000000E+00 0. -1.
        -13    1    3    3    0    0  0.29908423724E+03 -0.14550693248E+03 -0.18493912370E+03  0.38056028148E+03  0.00000000000E+00 0.  1.
         22    1    1    2    0    0 -0.15521713061E+04  0.87561193566E+03  0.13981075237E+04  0.22650908753E+04  0.00000000000E+00 0.  1.
<mgrwt>
<rscale>  0 0.43927679E+04</rscale>
<asrwt>0</asrwt>
<pdfrwt beam="1">  1        1 0.32079708E+00 0.43927679E+04</pdfrwt>
<pdfrwt beam="2">  1       -1 0.35592575E+00 0.43927679E+04</pdfrwt>
<totfact> 0.28052560E-02</totfact>
</mgrwt>
</event>
<event>
 6    1  0.1014650E-006  0.3144945E+04  0.7818608E-02  0.8203510E-01
          2   -1    0    0  501    0  0.00000000000E+00  0.00000000000E+00  0.70294559657E+03  0.70294559657E+03  0.00000000000E+00 0. -1.
         -2   -1    0    0    0  501 -0.00000000000E+00 -0.00000000000E+00 -0.35175824121E+04  0.35175824121E+04  0.00000000000E+00 0.  1.
         23    2    1    2    0    0 -0.15391674438E+04  0.26264460172E+03 -0.16427858360E+04  0.22682848565E+04  0.91390811520E+02 0.  0.
         13    1    3    3    0    0 -0.10404942881E+04  0.13482893148E+03 -0.10898855270E+04  0.15128310105E+04  0.00000000000E+00 0.  1.
        -13    1    3    3    0    0 -0.49867315575E+03  0.12781567023E+03 -0.55290030894E+03  0.75545384601E+03  0.00000000000E+00 0. -1.
         22    1    1    2    0    0  0.15391674438E+04 -0.26264460172E+03 -0.11718509796E+04  0.19522431522E+04  0.00000000000E+00 0. -1.
<mgrwt>
<rscale>  0 0.31449446E+04</rscale>
<asrwt>0</asrwt>
<pdfrwt beam="1">  1        2 0.10814548E+00 0.31449446E+04</pdfrwt>
<pdfrwt beam="2">  1       -2 0.54116652E+00 0.31449446E+04</pdfrwt>
<totfact> 0.32567633E-02</totfact>
</mgrwt>
</event>
<event>
 6    1  0.1014650E-006  0.4306444E+04  0.7818608E-02  0.7945428E-01
          2   -1    0    0  501    0  0.00000000000E+00  0.00000000000E+00  0.17941372492E+04  0.17941372492E+04  0.00000000000E+00 0. -1.
         -2   -1    0    0    0  501 -0.00000000000E+00 -0.00000000000E+00 -0.25841748824E+04  0.25841748824E+04  0.00000000000E+00 0.  1.
         23    2    1    2    0    0  0.13234200649E+04 -0.24521788651E+03  0.13123176088E+04  0.18820208739E+04  0.90843729730E+02 0.  0.
         11    1    3    3    0    0  0.63751487109E+03 -0.16275060432E+03  0.62385853770E+03  0.90670416627E+03  0.00000000000E+00 0.  1.
        -11    1    3    3    0    0  0.68590519386E+03 -0.82467282195E+02  0.68845907106E+03  0.97531670760E+03  0.00000000000E+00 0. -1.
         22    1    1    2    0    0 -0.13234200649E+04  0.24521788651E+03 -0.21023552419E+04  0.24962912577E+04  0.00000000000E+00 0.  1.
<mgrwt>
<rscale>  0 0.43064437E+04</rscale>
<asrwt>0</asrwt>
<pdfrwt beam="1">  1        2 0.27602112E+00 0.43064437E+04</pdfrwt>
<pdfrwt beam="2">  1       -2 0.39756537E+00 0.43064437E+04</pdfrwt>
<totfact> 0.51509979E-02</totfact>
</mgrwt>
</event>
<event>
 6    1  0.1014650E-006  0.1616334E+04  0.7818608E-02  0.8810576E-01
         -1   -1    0    0    0  501 -0.00000000000E+00  0.00000000000E+00  0.89486986150E+03  0.89486986150E+03  0.00000000000E+00 0.  1.
          1   -1    0    0  501    0  0.00000000000E+00 -0.00000000000E+00 -0.72986441336E+03  0.72986441336E+03  0.00000000000E+00 0. -1.
         23    2    1    2    0    0 -0.16833436179E+03  0.45504655099E+03  0.72922616767E+03  0.88059125011E+03  0.90919333580E+02 0.  0.
         13    1    3    3    0    0 -0.10065850054E+03  0.30693000642E+03  0.55466201547E+03  0.64186300250E+03  0.00000000000E+00 0.  1.
        -13    1    3    3    0    0 -0.67675861251E+02  0.14811654457E+03  0.17456415220E+03  0.23872824761E+03  0.00000000000E+00 0. -1.
         22    1    1    2    0    0  0.16833436179E+03 -0.45504655099E+03 -0.56422071953E+03  0.74414302475E+03  0.00000000000E+00 0. -1.
<mgrwt>
<rscale>  0 0.16163337E+04</rscale>
<asrwt>0</asrwt>
<pdfrwt beam="1">  1        1 0.11228683E+00 0.16163337E+04</pdfrwt>
<pdfrwt beam="2">  1       -1 0.13767229E+00 0.16163337E+04</pdfrwt>
<totfact> 0.10723805E+01</totfact>
</mgrwt>
</event>
<event>
 6    1  0.1014650E-006  0.3686495E+04  0.7818608E-02  0.8070961E-01
          2   -1    0    0  501    0  0.00000000000E+00  0.00000000000E+00  0.29215146491E+04  0.29215146491E+04  0.00000000000E+00 0. -1.
         -2   -1    0    0    0  501 -0.00000000000E+00 -0.00000000000E+00 -0.11629453122E+04  0.11629453122E+04  0.00000000000E+00 0.  1.
         23    2    1    2    0    0 -0.15759910976E+04 -0.78234036971E+03  0.27547448000E+03  0.17832918344E+04  0.91865029898E+02 0.  0.
         11    1    3    3    0    0 -0.64801024872E+03 -0.32641683651E+03  0.15923508578E+03  0.74284658319E+03  0.00000000000E+00 0. -1.
        -11    1    3    3    0    0 -0.92798084884E+03 -0.45592353320E+03  0.11623939422E+03  0.10404452512E+04  0.00000000000E+00 0.  1.
         22    1    1    2    0    0  0.15759910976E+04  0.78234036971E+03  0.14830948569E+04  0.23011681269E+04  0.00000000000E+00 0. -1.
<mgrwt>
<rscale>  0 0.36864952E+04</rscale>
<asrwt>0</asrwt>
<pdfrwt beam="1">  1        2 0.44946379E+00 0.36864952E+04</pdfrwt>
<pdfrwt beam="2">  1       -2 0.17891466E+00 0.36864952E+04</pdfrwt>
<totfact> 0.29078163E-01</totfact>
</mgrwt>
</event>
<event>
 6    1  0.1014650E-006  0.1870533E+04  0.7818608E-02  0.8669665E-01
          1   -1    0    0  501    0  0.00000000000E+00  0.00000000000E+00  0.14344947625E+04  0.14344947625E+04  0.00000000000E+00 0. -1.
         -1   -1    0    0    0  501 -0.00000000000E+00 -0.00000000000E+00 -0.60977776905E+03  0.60977776905E+03  0.00000000000E+00 0.  1.
         23    2    1    2    0    0  0.74145836682E+03 -0.22844999288E+03  0.97971707907E+03  0.12530867534E+04  0.91820191827E+02 0.  0.
         11    1    3    3    0    0  0.41493710026E+03 -0.80795987698E+02  0.54377245605E+03  0.68875922699E+03  0.00000000000E+00 0. -1.
        -11    1    3    3    0    0  0.32652126656E+03 -0.14765400518E+03  0.43594462302E+03  0.56432752644E+03  0.00000000000E+00 0.  1.
         22    1    1    2    0    0 -0.74145836682E+03  0.22844999288E+03 -0.15500008561E+03  0.79118577813E+03  0.00000000000E+00 0.  1.
<mgrwt>
<rscale>  0 0.18705326E+04</rscale>
<asrwt>0</asrwt>
<pdfrwt beam="1">  1        1 0.22069150E+00 0.18705326E+04</pdfrwt>
<pdfrwt beam="2">  1       -1 0.93811965E-01 0.18705326E+04</pdfrwt>
<totfact> 0.75069895E+00</totfact>
</mgrwt>
</event>
<event>
 6    1  0.1014650E-006  0.3521787E+04  0.7818608E-02  0.8108646E-01
          2   -1    0    0  501    0  0.00000000000E+00  0.00000000000E+00  0.25725368452E+04  0.25725368452E+04  0.00000000000E+00 0. -1.
         -2   -1    0    0    0  501 -0.00000000000E+00 -0.00000000000E+00 -0.12053261180E+04  0.12053261180E+04  0.00000000000E+00 0.  1.
         23    2    1    2    0    0 -0.13697243256E+04  0.78563436688E+03  0.15174286157E+04  0.21916941510E+04  0.86991731995E+02 0.  0.
         13    1    3    3    0    0 -0.20274697458E+03  0.15179366488E+03  0.25450857853E+03  0.35905747303E+03  0.00000000000E+00 0. -1.
        -13    1    3    3    0    0 -0.11669773510E+04  0.63384070200E+03  0.12629200371E+04  0.18326366780E+04  0.00000000000E+00 0.  1.
         22    1    1    2    0    0  0.13697243256E+04 -0.78563436688E+03 -0.15021788842E+03  0.15861688121E+04  0.00000000000E+00 0.  1.
<mgrwt>
<rscale>  0 0.35217870E+04</rscale>
<asrwt>0</asrwt>
<pdfrwt beam="1">  1        2 0.39577490E+00 0.35217870E+04</pdfrwt>
<pdfrwt beam="2">  1       -2 0.18543479E+00 0.35217870E+04</pdfrwt>
<totfact> 0.43103118E-01</totfact>
</mgrwt>
</event>
<event>
 6    1  0.1014650E-006  0.2840517E+04  0.7818608E-02  0.8290799E-01
         -2   -1    0    0    0  501 -0.00000000000E+00  0.00000000000E+00  0.11976795765E+04  0.11976795765E+04  0.00000000000E+00 0.  1.
          2   -1    0    0  501    0  0.00000000000E+00 -0.00000000000E+00 -0.16842020833E+04  0.16842020833E+04  0.00000000000E+00 0. -1.
         23    2    1    2    0    0 -0.65793420862E+03  0.93577437955E+03  0.60793054764E+03  0.12987270240E+04  0.92526859842E+02 0.  0.
         11    1    3    3    0    0 -0.12417921869E+03  0.23952049054E+03  0.16024078220E+03  0.31379555768E+03  0.00000000000E+00 0. -1.
        -11    1    3    3    0    0 -0.53375498993E+03  0.69625388901E+03  0.44768976544E+03  0.98493146630E+03  0.00000000000E+00 0.  1.
         22    1    1    2    0    0  0.65793420862E+03 -0.93577437955E+03 -0.10944530545E+04  0.15831546358E+04  0.00000000000E+00 0. -1.
<mgrwt>
<rscale>  0 0.28405172E+04</rscale>
<asrwt>0</asrwt>
<pdfrwt beam="1">  1        2 0.25910801E+00 0.28405172E+04</pdfrwt>
<pdfrwt beam="2">  1       -2 0.18425840E+00 0.28405172E+04</pdfrwt>
<totfact> 0.14714864E+00</totfact>
</mgrwt>
</event>
<event>
 6    1  0.1014650E-006  0.2394867E+04  0.7818608E-02  0.8441428E-01
          2   -1    0    0  501    0  0.00000000000E+00  0.00000000000E+00  0.20233460898E+04  0.20233460898E+04  0.00000000000E+00 0. -1.
         -2   -1    0    0    0  501 -0.00000000000E+00 -0.00000000000E+00 -0.70865119212E+03  0.70865119212E+03  0.00000000000E+00 0.  1.
         23    2    1    2    0    0 -0.33839415283E+03  0.65286637563E+03  0.17338370626E+04  0.18855782004E+04  0.92027620902E+02 0.  0.
         13    1    3    3    0    0 -0.14549418042E+03  0.18750635140E+03  0.55474278975E+03  0.60337944209E+03  0.00000000000E+00 0. -1.
        -13    1    3    3    0    0 -0.19289997241E+03  0.46536002423E+03  0.11790942729E+04  0.12821987583E+04  0.00000000000E+00 0.  1.
         22    1    1    2    0    0  0.33839415283E+03 -0.65286637563E+03 -0.41914216495E+03  0.84641908151E+03  0.00000000000E+00 0.  1.
<mgrwt>
<rscale>  0 0.23948667E+04</rscale>
<asrwt>0</asrwt>
<pdfrwt beam="1">  1        2 0.31128401E+00 0.23948667E+04</pdfrwt>
<pdfrwt beam="2">  1       -2 0.10902326E+00 0.23948667E+04</pdfrwt>
<totfact> 0.39160373E+00</totfact>
</mgrwt>
</event>
<event>
 6    1  0.1014650E-006  0.3432826E+04  0.7818608E-02  0.8129896E-01
         -1   -1    0    0    0  501 -0.00000000000E+00  0.00000000000E+00  0.12577197517E+04  0.12577197517E+04  0.00000000000E+00 0.  1.
          1   -1    0    0  501    0  0.00000000000E+00 -0.00000000000E+00 -0.23423933746E+04  0.23423933746E+04  0.00000000000E+00 0. -1.
         23    2    1    2    0    0 -0.11429390531E+03 -0.41584226697E+03 -0.22837290410E+04  0.23258597043E+04  0.90648462791E+02 0.  0.
         11    1    3    3    0    0 -0.38659704033E+01 -0.11096618411E+03 -0.43738073897E+03  0.45125419728E+03  0.00000000000E+00 0. -1.
        -11    1    3    3    0    0 -0.11042793491E+03 -0.30487608287E+03 -0.18463483020E+04  0.18746055070E+04  0.00000000000E+00 0.  1.
         22    1    1    2    0    0  0.11429390531E+03  0.41584226697E+03  0.11990554181E+04  0.12742534220E+04  0.00000000000E+00 0.  1.
<mgrwt>
<rscale>  0 0.34328265E+04</rscale>
<asrwt>0</asrwt>
<pdfrwt beam="1">  1        1 0.36036821E+00 0.34328265E+04</pdfrwt>
<pdfrwt beam="2">  1       -1 0.19349535E+00 0.34328265E+04</pdfrwt>
<totfact> 0.23847717E-01</totfact>
</mgrwt>
</event>
<event>
 6    1  0.1014650E-006  0.2647812E+04  0.7818608E-02  0.8352140E-01
         -2   -1    0    0    0  501 -0.00000000000E+00  0.00000000000E+00  0.88834804444E+03  0.88834804444E+03  0.00000000000E+00 0.  1.
          2   -1    0    0  501    0  0.00000000000E+00 -0.00000000000E+00 -0.19730180399E+04  0.19730180399E+04  0.00000000000E+00 0. -1.
         23    2    1    2    0    0 -0.72628085476E+03  0.17224029783E+03  0.63661926699E+03  0.98520315826E+03  0.90501777690E+02 0.  0.
         11    1    3    3    0    0 -0.43394811827E+03  0.11983591448E+03  0.32887232056E+03  0.55752006150E+03  0.00000000000E+00 0. -1.
        -11    1    3    3    0    0 -0.29233273649E+03  0.52404383355E+02  0.30774694643E+03  0.42768309676E+03  0.00000000000E+00 0.  1.
         22    1    1    2    0    0  0.72628085476E+03 -0.17224029783E+03 -0.17212892624E+04  0.18761629260E+04  0.00000000000E+00 0. -1.
<mgrwt>
<rscale>  0 0.26478117E+04</rscale>
<asrwt>0</asrwt>
<pdfrwt beam="1">  1        2 0.30354123E+00 0.26478117E+04</pdfrwt>
<pdfrwt beam="2">  1       -2 0.13666893E+00 0.26478117E+04</pdfrwt>
<totfact> 0.23296957E+00</totfact>
</mgrwt>
</event>
<event>
 6    1  0.1014650E-006  0.1416207E+04  0.7818608E-02  0.8942170E-01
         -2   -1    0    0    0  501 -0.00000000000E+00  0.00000000000E+00  0.21798156059E+03  0.21798156059E+03  0.00000000000E+00 0.  1.
          2   -1    0    0  501    0  0.00000000000E+00 -0.00000000000E+00 -0.23002427107E+04  0.23002427107E+04  0.00000000000E+00 0. -1.
         23    2    1    2    0    0 -0.52776937866E+03 -0.28192754129E+03 -0.38181520934E+03  0.71557620440E+03  0.90789837727E+02 0.  0.
         11    1    3    3    0    0 -0.25349939459E+03 -0.89707552756E+02 -0.19407962645E+03  0.33162673216E+03  0.00000000000E+00 0.  1.
        -11    1    3    3    0    0 -0.27426998407E+03 -0.19221998853E+03 -0.18773558289E+03  0.38394947224E+03  0.00000000000E+00 0. -1.
         22    1    1    2    0    0  0.52776937866E+03  0.28192754129E+03 -0.17004459408E+04  0.18026480669E+04  0.00000000000E+00 0. -1.
<mgrwt>
<rscale>  0 0.14162069E+04</rscale>
<asrwt>0</asrwt>
<pdfrwt beam="1">  1        2 0.35388351E+00 0.14162069E+04</pdfrwt>
<pdfrwt beam="2">  1       -2 0.33535623E-01 0.14162069E+04</pdfrwt>
<totfact> 0.36698417E+01</totfact>
</mgrwt>
</event>
<event>
 6    1  0.1014650E-006  0.2502755E+04  0.7818608E-02  0.8402005E-01
          1   -1    0    0  501    0  0.00000000000E+00  0.00000000000E+00  0.26525134529E+04  0.26525134529E+04  0.00000000000E+00 0. -1.
         -1   -1    0    0    0  501 -0.00000000000E+00 -0.00000000000E+00 -0.59036309710E+03  0.59036309710E+03  0.00000000000E+00 0.  1.
         23    2    1    2    0    0 -0.10601877253E+04 -0.23690146371E+03  0.23173944978E+03  0.11143736956E+04  0.89472031198E+02 0.  0.
         13    1    3    3    0    0 -0.48962297037E+03 -0.13634812017E+03  0.14521038166E+03  0.52859012281E+03  0.00000000000E+00 0. -1.
        -13    1    3    3    0    0 -0.57056475494E+03 -0.10055334353E+03  0.86529068122E+02  0.58578357276E+03  0.00000000000E+00 0.  1.
         22    1    1    2    0    0  0.10601877253E+04  0.23690146371E+03  0.18304109060E+04  0.21285028544E+04  0.00000000000E+00 0. -1.
<mgrwt>
<rscale>  0 0.25027553E+04</rscale>
<asrwt>0</asrwt>
<pdfrwt beam="1">  1        1 0.40807899E+00 0.25027553E+04</pdfrwt>
<pdfrwt beam="2">  1       -1 0.90825093E-01 0.25027553E+04</pdfrwt>
<totfact> 0.11141959E+00</totfact>
</mgrwt>
</event>
<event>
 6    1  0.1014650E-006  0.1035456E+04  0.7818608E-02  0.9270490E-01
          3   -1    0    0  501    0  0.00000000000E+00  0.00000000000E+00  0.51829512075E+03  0.51829512075E+03  0.00000000000E+00 0. -1.
         -3   -1    0    0    0  501 -0.00000000000E+00 -0.00000000000E+00 -0.51716188590E+03  0.51716188590E+03  0.00000000000E+00 0.  1.
         23    2    1    2    0    0 -0.61169848540E+02  0.36628602419E+03 -0.35493974913E+03  0.52097166011E+03  0.86729713680E+02 0.  0.
         13    1    3    3    0    0 -0.33777969140E+02  0.27603436338E+03 -0.21185301853E+03  0.34959637073E+03  0.00000000000E+00 0.  1.
        -13    1    3    3    0    0 -0.27391879400E+02  0.90251660811E+02 -0.14308673060E+03  0.17137528938E+03  0.00000000000E+00 0. -1.
         22    1    1    2    0    0  0.61169848540E+02 -0.36628602419E+03  0.35607298398E+03  0.51448534654E+03  0.00000000000E+00 0. -1.
<mgrwt>
<rscale>  0 0.10354564E+04</rscale>
<asrwt>0</asrwt>
<pdfrwt beam="1">  1        3 0.79737711E-01 0.10354564E+04</pdfrwt>
<pdfrwt beam="2">  1       -3 0.79563367E-01 0.10354564E+04</pdfrwt>
<totfact> 0.56359770E+00</totfact>
</mgrwt>
</event>
<event>
 6    1  0.1014650E-006  0.1119772E+04  0.7818608E-02  0.9186133E-01
          1   -1    0    0  501    0  0.00000000000E+00  0.00000000000E+00  0.12019836633E+04  0.12019836633E+04  0.00000000000E+00 0. -1.
         -1   -1    0    0    0  501 -0.00000000000E+00 -0.00000000000E+00 -0.26079563693E+03  0.26079563693E+03  0.00000000000E+00 0.  1.
         23    2    1    2    0    0  0.16902256856E+03 -0.10673490905E+03  0.11515629862E+04  0.11725749012E+04  0.94199885247E+02 0.  0.
         11    1    3    3    0    0  0.11206287405E+03 -0.44394261162E+02  0.87913127201E+03  0.88735603429E+03  0.00000000000E+00 0.  1.
        -11    1    3    3    0    0  0.56959694504E+02 -0.62340647889E+02  0.27243171417E+03  0.28521886695E+03  0.00000000000E+00 0. -1.
         22    1    1    2    0    0 -0.16902256856E+03  0.10673490905E+03 -0.21037495980E+03  0.29020439901E+03  0.00000000000E+00 0.  1.
<mgrwt>
<rscale>  0 0.11197716E+04</rscale>
<asrwt>0</asrwt>
<pdfrwt beam="1">  1        1 0.18492056E+00 0.11197716E+04</pdfrwt>
<pdfrwt beam="2">  1       -1 0.40122406E-01 0.11197716E+04</pdfrwt>
<totfact> 0.64153786E+01</totfact>
</mgrwt>
</event>
<event>
 6    1  0.1014650E-006  0.2894183E+04  0.7818608E-02  0.8274610E-01
          2   -1    0    0  501    0  0.00000000000E+00  0.00000000000E+00  0.38348181063E+04  0.38348181063E+04  0.00000000000E+00 0. -1.
         -2   -1    0    0    0  501 -0.00000000000E+00 -0.00000000000E+00 -0.54606845641E+03  0.54606845641E+03  0.00000000000E+00 0.  1.
         23    2    1    2    0    0 -0.13099312054E+04 -0.24956682872E+03  0.80060888159E+03  0.15579363598E+04  0.89374241296E+02 0.  0.
         11    1    3    3    0    0 -0.11146193579E+04 -0.24048975954E+03  0.66537776765E+03  0.13202042309E+04  0.00000000000E+00 0.  1.
        -11    1    3    3    0    0 -0.19531184753E+03 -0.90770691768E+01  0.13523111394E+03  0.23773212898E+03  0.00000000000E+00 0. -1.
         22    1    1    2    0    0  0.13099312054E+04  0.24956682872E+03  0.24881407683E+04  0.28229502028E+04  0.00000000000E+00 0. -1.
<mgrwt>
<rscale>  0 0.28941826E+04</rscale>
<asrwt>0</asrwt>
<pdfrwt beam="1">  1        2 0.58997200E+00 0.28941826E+04</pdfrwt>
<pdfrwt beam="2">  1       -2 0.84010534E-01 0.28941826E+04</pdfrwt>
<totfact> 0.49346966E-01</totfact>
</mgrwt>
</event>
<event>
 6    1  0.1014650E-006  0.2780345E+04  0.7818608E-02  0.8309396E-01
         -2   -1    0    0    0  501 -0.00000000000E+00  0.00000000000E+00  0.11038323283E+04  0.11038323283E+04  0.00000000000E+00 0.  1.
          2   -1    0    0  501    0  0.00000000000E+00 -0.00000000000E+00 -0.17507911244E+04  0.17507911244E+04  0.00000000000E+00 0. -1.
         23    2    1    2    0    0  0.13488398661E+04 -0.23439179194E+03 -0.85432659982E+02  0.13748869567E+04  0.93310812716E+02 0.  0.
         13    1    3    3    0    0  0.11349463064E+04 -0.16383260115E+03 -0.81845162584E+02  0.11496272745E+04  0.00000000000E+00 0. -1.
        -13    1    3    3    0    0  0.21389355968E+03 -0.70559190797E+02 -0.35874973974E+01  0.22525968218E+03  0.00000000000E+00 0.  1.
         22    1    1    2    0    0 -0.13488398661E+04  0.23439179194E+03 -0.56152613612E+03  0.14797364961E+04  0.00000000000E+00 0. -1.
<mgrwt>
<rscale>  0 0.27803452E+04</rscale>
<asrwt>0</asrwt>
<pdfrwt beam="1">  1        2 0.26935248E+00 0.27803452E+04</pdfrwt>
<pdfrwt beam="2">  1       -2 0.16982036E+00 0.27803452E+04</pdfrwt>
<totfact> 0.17122804E+00</totfact>
</mgrwt>
</event>
<event>
 6    1  0.1014650E-006  0.1442815E+04  0.7818608E-02  0.8923397E-01
          2   -1    0    0  501    0  0.00000000000E+00  0.00000000000E+00  0.33511675865E+04  0.33511675865E+04  0.00000000000E+00 0. -1.
         -2   -1    0    0    0  501 -0.00000000000E+00 -0.00000000000E+00 -0.15529784897E+03  0.15529784897E+03  0.00000000000E+00 0.  1.
         23    2    1    2    0    0  0.35920386834E+03 -0.56160266583E+03  0.22560003415E+04  0.23541723066E+04  0.90358923179E+02 0.  0.
         11    1    3    3    0    0  0.16368003126E+03 -0.29433822271E+03  0.12778959665E+04  0.13215310224E+04  0.00000000000E+00 0. -1.
        -11    1    3    3    0    0  0.19552383708E+03 -0.26726444311E+03  0.97810437499E+03  0.10326412842E+04  0.00000000000E+00 0.  1.
         22    1    1    2    0    0 -0.35920386834E+03  0.56160266583E+03  0.93986939609E+03  0.11522931289E+04  0.00000000000E+00 0. -1.
<mgrwt>
<rscale>  0 0.14428155E+04</rscale>
<asrwt>0</asrwt>
<pdfrwt beam="1">  1        2 0.51556419E+00 0.14428155E+04</pdfrwt>
<pdfrwt beam="2">  1       -2 0.23891979E-01 0.14428155E+04</pdfrwt>
<totfact> 0.15758829E+01</totfact>
</mgrwt>
</event>
<event>
 6    1  0.1014650E-006  0.1494600E+04  0.7818608E-02  0.8888052E-01
          1   -1    0    0  501    0  0.00000000000E+00  0.00000000000E+00  0.24873817001E+04  0.24873817001E+04  0.00000000000E+00 0. -1.
         -1   -1    0    0    0  501 -0.00000000000E+00 -0.00000000000E+00 -0.22451607073E+03  0.22451607073E+03  0.00000000000E+00 0.  1.
         23    2    1    2    0    0  0.28787807298E+03 -0.44061293630E+03  0.17966240798E+03  0.56323558096E+03  0.89118989444E+02 0.  0.
         13    1    3    3    0    0  0.15174718642E+03 -0.23740244846E+03  0.49190353198E+02  0.28601891890E+03  0.00000000000E+00 0.  1.
        -13    1    3    3    0    0  0.13613088655E+03 -0.20321048784E+03  0.13047205478E+03  0.27721666206E+03  0.00000000000E+00 0. -1.
         22    1    1    2    0    0 -0.28787807298E+03  0.44061293630E+03  0.20832032214E+04  0.21486621899E+04  0.00000000000E+00 0. -1.
<mgrwt>
<rscale>  0 0.14945998E+04</rscale>
<asrwt>0</asrwt>
<pdfrwt beam="1">  1        1 0.38267409E+00 0.14945998E+04</pdfrwt>
<pdfrwt beam="2">  1       -1 0.34540936E-01 0.14945998E+04</pdfrwt>
<totfact> 0.10657574E+01</totfact>
</mgrwt>
</event>
<event>
 6    1  0.1014650E-006  0.2460600E+04  0.7818608E-02  0.8417158E-01
          2   -1    0    0  501    0  0.00000000000E+00  0.00000000000E+00  0.14064058680E+04  0.14064058680E+04  0.00000000000E+00 0. -1.
         -2   -1    0    0    0  501 -0.00000000000E+00 -0.00000000000E+00 -0.10762454187E+04  0.10762454187E+04  0.00000000000E+00 0.  1.
         23    2    1    2    0    0 -0.19655676287E+03 -0.58125972836E+03  0.12391368615E+04  0.13859582802E+04  0.94460362881E+02 0.  0.
         13    1    3    3    0    0 -0.38183368164E+02 -0.40020471505E+02  0.14153958335E+03  0.15196401350E+03  0.00000000000E+00 0.  1.
        -13    1    3    3    0    0 -0.15837339471E+03 -0.54123925686E+03  0.10975972781E+04  0.12339942667E+04  0.00000000000E+00 0. -1.
         22    1    1    2    0    0  0.19655676287E+03  0.58125972836E+03 -0.90897641214E+03  0.10966930066E+04  0.00000000000E+00 0.  1.
<mgrwt>
<rscale>  0 0.24605998E+04</rscale>
<asrwt>0</asrwt>
<pdfrwt beam="1">  1        2 0.21637013E+00 0.24605998E+04</pdfrwt>
<pdfrwt beam="2">  1       -2 0.16557622E+00 0.24605998E+04</pdfrwt>
<totfact> 0.29444126E+00</totfact>
</mgrwt>
</event>
<event>
 6    1  0.1014650E-006  0.2241394E+04  0.7818608E-02  0.8501394E-01
          1   -1    0    0  501    0  0.00000000000E+00  0.00000000000E+00  0.20285263957E+04  0.20285263957E+04  0.00000000000E+00 0. -1.
         -1   -1    0    0    0  501 -0.00000000000E+00 -0.00000000000E+00 -0.61914999038E+03  0.61914999038E+03  0.00000000000E+00 0.  1.
         23    2    1    2    0    0 -0.56443670178E+03 -0.85820815228E+03  0.12298955329E+04  0.16049283789E+04  0.89677513881E+02 0.  0.
         13    1    3    3    0    0 -0.44482548940E+03 -0.66795792042E+03  0.90090291765E+03  0.12065088340E+04  0.00000000000E+00 0.  1.
        -13    1    3    3    0    0 -0.11961121238E+03 -0.19025023186E+03  0.32899261526E+03  0.39841954489E+03  0.00000000000E+00 0. -1.
         22    1    1    2    0    0  0.56443670178E+03  0.85820815228E+03  0.17948087241E+03  0.10427480072E+04  0.00000000000E+00 0.  1.
<mgrwt>
<rscale>  0 0.22413943E+04</rscale>
<asrwt>0</asrwt>
<pdfrwt beam="1">  1        1 0.31208098E+00 0.22413943E+04</pdfrwt>
<pdfrwt beam="2">  1       -1 0.95253845E-01 0.22413943E+04</pdfrwt>
<totfact> 0.27552121E+00</totfact>
</mgrwt>
</event>
<event>
 6    1  0.1014650E-006  0.3125994E+04  0.7818608E-02  0.8208640E-01
         -1   -1    0    0    0  501 -0.00000000000E+00  0.00000000000E+00  0.73388660283E+03  0.73388660283E+03  0.00000000000E+00 0.  1.
          1   -1    0    0  501    0  0.00000000000E+00 -0.00000000000E+00 -0.33287966457E+04  0.33287966457E+04  0.00000000000E+00 0. -1.
         23    2    1    2    0    0 -0.76742522986E+03 -0.98826869770E+03 -0.25129372993E+04  0.28087550078E+04  0.92921049277E+02 0.  0.
         11    1    3    3    0    0 -0.20221205032E+03 -0.32835162035E+03 -0.79497013873E+03  0.88356212083E+03  0.00000000000E+00 0.  1.
        -11    1    3    3    0    0 -0.56521317954E+03 -0.65991707735E+03 -0.17179671606E+04  0.19251928870E+04  0.00000000000E+00 0. -1.
         22    1    1    2    0    0  0.76742522986E+03  0.98826869770E+03 -0.81972743597E+02  0.12539282408E+04  0.00000000000E+00 0.  1.
<mgrwt>
<rscale>  0 0.31259938E+04</rscale>
<asrwt>0</asrwt>
<pdfrwt beam="1">  1        1 0.51212257E+00 0.31259938E+04</pdfrwt>
<pdfrwt beam="2">  1       -1 0.11290563E+00 0.31259938E+04</pdfrwt>
<totfact> 0.20480760E-01</totfact>
</mgrwt>
</event>
<event>
 6    1  0.1014650E-006  0.3938084E+04  0.7818608E-02  0.8017155E-01
          2   -1    0    0  501    0  0.00000000000E+00  0.00000000000E+00  0.13365758604E+04  0.13365758604E+04  0.00000000000E+00 0. -1.
         -2   -1    0    0    0  501 -0.00000000000E+00 -0.00000000000E+00 -0.29007903906E+04  0.29007903906E+04  0.00000000000E+00 0.  1.
         23    2    1    2    0    0 -0.69814629005E+03  0.91606975835E+03 -0.24995181064E+04  0.27536598029E+04  0.91975549449E+02 0.  0.
         11    1    3    3    0    0 -0.27187528653E+03  0.42977333916E+03 -0.10737668923E+04  0.11881063224E+04  0.00000000000E+00 0.  1.
        -11    1    3    3    0    0 -0.42627100352E+03  0.48629641918E+03 -0.14257512141E+04  0.15655534805E+04  0.00000000000E+00 0. -1.
         22    1    1    2    0    0  0.69814629005E+03 -0.91606975835E+03  0.93530357618E+03  0.14837064481E+04  0.00000000000E+00 0. -1.
<mgrwt>
<rscale>  0 0.39380840E+04</rscale>
<asrwt>0</asrwt>
<pdfrwt beam="1">  1        2 0.20562706E+00 0.39380840E+04</pdfrwt>
<pdfrwt beam="2">  1       -2 0.44627544E+00 0.39380840E+04</pdfrwt>
<totfact> 0.45833815E-02</totfact>
</mgrwt>
</event>
<event>
 6    1  0.1014650E-006  0.2573060E+04  0.7818608E-02  0.8377410E-01
         -1   -1    0    0    0  501 -0.00000000000E+00  0.00000000000E+00  0.16760726535E+04  0.16760726535E+04  0.00000000000E+00 0.  1.
          1   -1    0    0  501    0  0.00000000000E+00 -0.00000000000E+00 -0.98752236269E+03  0.98752236269E+03  0.00000000000E+00 0. -1.
         23    2    1    2    0    0  0.85482912168E+02  0.10600717860E+04  0.10912009880E+04  0.15264111684E+04  0.90288088656E+02 0.  0.
         13    1    3    3    0    0  0.82184744872E+02  0.76955920177E+03  0.74215810405E+03  0.10722753139E+04  0.00000000000E+00 0. -1.
        -13    1    3    3    0    0  0.32981672954E+01  0.29051258422E+03  0.34904288400E+03  0.45413585453E+03  0.00000000000E+00 0.  1.
         22    1    1    2    0    0 -0.85482912168E+02 -0.10600717860E+04 -0.40265069724E+03  0.11371838478E+04  0.00000000000E+00 0. -1.
<mgrwt>
<rscale>  0 0.25730598E+04</rscale>
<asrwt>0</asrwt>
<pdfrwt beam="1">  1        1 0.15192652E+00 0.25730598E+04</pdfrwt>
<pdfrwt beam="2">  1       -1 0.25785733E+00 0.25730598E+04</pdfrwt>
<totfact> 0.84645793E-01</totfact>
</mgrwt>
</event>
<event>
 6    1  0.1014650E-006  0.2649498E+04  0.7818608E-02  0.8351580E-01
         -1   -1    0    0    0  501 -0.00000000000E+00  0.00000000000E+00  0.73724049744E+03  0.73724049744E+03  0.00000000000E+00 0.  1.
          1   -1    0    0  501    0  0.00000000000E+00 -0.00000000000E+00 -0.23804439954E+04  0.23804439954E+04  0.00000000000E+00 0. -1.
         23    2    1    2    0    0  0.99301402076E+03  0.87059073286E+03 -0.91940957056E+03  0.16117353838E+04  0.91498194024E+02 0.  0.
         11    1    3    3    0    0  0.69221932872E+03  0.58327102852E+03 -0.58223634002E+03  0.10762768451E+04  0.00000000000E+00 0.  1.
        -11    1    3    3    0    0  0.30079469204E+03  0.28731970434E+03 -0.33717323054E+03  0.53545853869E+03  0.00000000000E+00 0. -1.
         22    1    1    2    0    0 -0.99301402076E+03 -0.87059073286E+03 -0.72379392740E+03  0.15059491090E+04  0.00000000000E+00 0. -1.
<mgrwt>
<rscale>  0 0.26494979E+04</rscale>
<asrwt>0</asrwt>
<pdfrwt beam="1">  1        1 0.36622215E+00 0.26494979E+04</pdfrwt>
<pdfrwt beam="2">  1       -1 0.11342162E+00 0.26494979E+04</pdfrwt>
<totfact> 0.10193110E+00</totfact>
</mgrwt>
</event>
<event>
 6    1  0.1014650E-006  0.1116911E+04  0.7818608E-02  0.9188864E-01
          1   -1    0    0  501    0  0.00000000000E+00  0.00000000000E+00  0.63764611847E+03  0.63764611847E+03  0.00000000000E+00 0. -1.
         -1   -1    0    0    0  501 -0.00000000000E+00 -0.00000000000E+00 -0.48910006505E+03  0.48910006505E+03  0.00000000000E+00 0.  1.
         23    2    1    2    0    0  0.48358577031E+03 -0.50502808618E+02 -0.19476844756E+03  0.53153985164E+03  0.90521460389E+02 0.  0.
         11    1    3    3    0    0  0.29317354167E+03  0.81954491142E+01 -0.92219681554E+02  0.30744489033E+03  0.00000000000E+00 0.  1.
        -11    1    3    3    0    0  0.19041222864E+03 -0.58698257733E+02 -0.10254876601E+03  0.22409496131E+03  0.00000000000E+00 0. -1.
         22    1    1    2    0    0 -0.48358577031E+03  0.50502808618E+02  0.34331450098E+03  0.59520633188E+03  0.00000000000E+00 0. -1.
<mgrwt>
<rscale>  0 0.11169114E+04</rscale>
<asrwt>0</asrwt>
<pdfrwt beam="1">  1        1 0.98099403E-01 0.11169114E+04</pdfrwt>
<pdfrwt beam="2">  1       -1 0.75246164E-01 0.11169114E+04</pdfrwt>
<totfact> 0.55407954E+01</totfact>
</mgrwt>
</event>
<event>
 6    1  0.1014650E-006  0.2948785E+04  0.7818608E-02  0.8258509E-01
          1   -1    0    0  501    0  0.00000000000E+00  0.00000000000E+00  0.19076484598E+04  0.19076484598E+04  0.00000000000E+00 0. -1.
         -1   -1    0    0    0  501 -0.00000000000E+00 -0.00000000000E+00 -0.11395353955E+04  0.11395353955E+04  0.00000000000E+00 0.  1.
         23    2    1    2    0    0 -0.10589793054E+04 -0.10146068751E+04  0.24209777746E+03  0.14891221228E+04  0.89493478014E+02 0.  0.
         11    1    3    3    0    0 -0.30475102998E+03 -0.32811140026E+03  0.10630336001E+03  0.46025067692E+03  0.00000000000E+00 0. -1.
        -11    1    3    3    0    0 -0.75422827539E+03 -0.68649547487E+03  0.13579441745E+03  0.10288714459E+04  0.00000000000E+00 0.  1.
         22    1    1    2    0    0  0.10589793054E+04  0.10146068751E+04  0.52601528684E+03  0.15580617325E+04  0.00000000000E+00 0.  1.
<mgrwt>
<rscale>  0 0.29487848E+04</rscale>
<asrwt>0</asrwt>
<pdfrwt beam="1">  1        1 0.29348438E+00 0.29487848E+04</pdfrwt>
<pdfrwt beam="2">  1       -1 0.17531314E+00 0.29487848E+04</pdfrwt>
<totfact> 0.66214285E-01</totfact>
</mgrwt>
</event>
<event>
 6    1  0.1014650E-006  0.1518425E+04  0.7818608E-02  0.8872292E-01
          2   -1    0    0  501    0  0.00000000000E+00  0.00000000000E+00  0.71509830913E+03  0.71509830913E+03  0.00000000000E+00 0. -1.
         -2   -1    0    0    0  501 -0.00000000000E+00 -0.00000000000E+00 -0.80604838714E+03  0.80604838714E+03  0.00000000000E+00 0.  1.
         23    2    1    2    0    0 -0.31198160759E+03  0.15023085379E+03 -0.71937467921E+03  0.80363759369E+03  0.91823853102E+02 0.  0.
         13    1    3    3    0    0 -0.73509610762E+02  0.81907678105E+02 -0.23048474263E+03  0.25541289551E+03  0.00000000000E+00 0.  1.
        -13    1    3    3    0    0 -0.23847199682E+03  0.68323175685E+02 -0.48888993657E+03  0.54822469818E+03  0.00000000000E+00 0. -1.
         22    1    1    2    0    0  0.31198160759E+03 -0.15023085379E+03  0.62842460120E+03  0.71750910259E+03  0.00000000000E+00 0. -1.
<mgrwt>
<rscale>  0 0.15184253E+04</rscale>
<asrwt>0</asrwt>
<pdfrwt beam="1">  1        2 0.11001512E+00 0.15184253E+04</pdfrwt>
<pdfrwt beam="2">  1       -2 0.12400744E+00 0.15184253E+04</pdfrwt>
<totfact> 0.18816784E+01</totfact>
</mgrwt>
</event>
<event>
 6    1  0.1014650E-006  0.1996865E+04  0.7818608E-02  0.8608088E-01
          1   -1    0    0  501    0  0.00000000000E+00  0.00000000000E+00  0.23482601821E+04  0.23482601821E+04  0.00000000000E+00 0. -1.
         -1   -1    0    0    0  501 -0.00000000000E+00 -0.00000000000E+00 -0.42451314566E+03  0.42451314566E+03  0.00000000000E+00 0.  1.
         23    2    1    2    0    0  0.53168161545E+02  0.46402807633E+03 -0.25815351384E+03  0.54144212860E+03  0.91473673165E+02 0.  0.
         11    1    3    3    0    0 -0.17003533875E+02  0.10121406984E+03 -0.29117326140E+02  0.10668283264E+03  0.00000000000E+00 0. -1.
        -11    1    3    3    0    0  0.70171695420E+02  0.36281400649E+03 -0.22903618770E+03  0.43475929596E+03  0.00000000000E+00 0.  1.
         22    1    1    2    0    0 -0.53168161545E+02 -0.46402807633E+03  0.21819005503E+04  0.22313311992E+04  0.00000000000E+00 0. -1.
<mgrwt>
<rscale>  0 0.19968649E+04</rscale>
<asrwt>0</asrwt>
<pdfrwt beam="1">  1        1 0.36127079E+00 0.19968649E+04</pdfrwt>
<pdfrwt beam="2">  1       -1 0.65309716E-01 0.19968649E+04</pdfrwt>
<totfact> 0.38040470E+00</totfact>
</mgrwt>
</event>
<event>
 6    1  0.1014650E-006  0.3614504E+04  0.7818608E-02  0.8087177E-01
         -1   -1    0    0    0  501 -0.00000000000E+00  0.00000000000E+00  0.13876607523E+04  0.13876607523E+04  0.00000000000E+00 0.  1.
          1   -1    0    0  501    0  0.00000000000E+00 -0.00000000000E+00 -0.23537169031E+04  0.23537169031E+04  0.00000000000E+00 0. -1.
         23    2    1    2    0    0 -0.12541406193E+04  0.10208974265E+04  0.34918696971E+03  0.16569197608E+04  0.91385477159E+02 0.  0.
         13    1    3    3    0    0 -0.29925361621E+03  0.20737313716E+03  0.52277677169E+02  0.36781693865E+03  0.00000000000E+00 0. -1.
        -13    1    3    3    0    0 -0.95488700311E+03  0.81352428934E+03  0.29690929255E+03  0.12891028221E+04  0.00000000000E+00 0.  1.
         22    1    1    2    0    0  0.12541406193E+04 -0.10208974265E+04 -0.13152431205E+04  0.20844578946E+04  0.00000000000E+00 0. -1.
<mgrwt>
<rscale>  0 0.36145044E+04</rscale>
<asrwt>0</asrwt>
<pdfrwt beam="1">  1        1 0.36211029E+00 0.36145044E+04</pdfrwt>
<pdfrwt beam="2">  1       -1 0.21348627E+00 0.36145044E+04</pdfrwt>
<totfact> 0.16819672E-01</totfact>
</mgrwt>
</event>
<event>
 6    1  0.1014650E-006  0.2566046E+04  0.7818608E-02  0.8379827E-01
          1   -1    0    0  501    0  0.00000000000E+00  0.00000000000E+00  0.82757611235E+03  0.82757611235E+03  0.00000000000E+00 0. -1.
         -1   -1    0    0    0  501 -0.00000000000E+00 -0.00000000000E+00 -0.19891205211E+04  0.19891205211E+04  0.00000000000E+00 0.  1.
         23    2    1    2    0    0  0.18182866920E+03  0.12490541681E+04 -0.34214314047E+03  0.13118323810E+04  0.10317115507E+03 0.  0.
         13    1    3    3    0    0  0.18298475808E+03  0.11060975245E+04 -0.32825546563E+03  0.11681981022E+04  0.00000000000E+00 0.  1.
        -13    1    3    3    0    0 -0.11560888806E+01  0.14295664370E+03 -0.13887674842E+02  0.14363427875E+03  0.00000000000E+00 0. -1.
         22    1    1    2    0    0 -0.18182866920E+03 -0.12490541681E+04 -0.81940126825E+03  0.15048642525E+04  0.00000000000E+00 0. -1.
<mgrwt>
<rscale>  0 0.25660465E+04</rscale>
<asrwt>0</asrwt>
<pdfrwt beam="1">  1        1 0.12731940E+00 0.25660465E+04</pdfrwt>
<pdfrwt beam="2">  1       -1 0.30601854E+00 0.25660465E+04</pdfrwt>
<totfact> 0.55801058E-01</totfact>
</mgrwt>
</event>
<event>
 6    1  0.1014650E-006  0.1711856E+04  0.7818608E-02  0.8754631E-01
         -1   -1    0    0    0  501 -0.00000000000E+00  0.00000000000E+00  0.46338858188E+03  0.46338858188E+03  0.00000000000E+00 0.  1.
          1   -1    0    0  501    0  0.00000000000E+00 -0.00000000000E+00 -0.15809896055E+04  0.15809896055E+04  0.00000000000E+00 0. -1.
         23    2    1    2    0    0  0.48072334286E+03  0.66253816588E+03 -0.27128198149E+03  0.86696251113E+03  0.89321490197E+02 0.  0.
         13    1    3    3    0    0  0.68835012601E+02  0.14865132229E+03 -0.36937131612E+02  0.16792803896E+03  0.00000000000E+00 0. -1.
        -13    1    3    3    0    0  0.41188833026E+03  0.51388684360E+03 -0.23434484987E+03  0.69903447217E+03  0.00000000000E+00 0.  1.
         22    1    1    2    0    0 -0.48072334286E+03 -0.66253816588E+03 -0.84631904214E+03  0.11774156763E+04  0.00000000000E+00 0. -1.
<mgrwt>
<rscale>  0 0.17118558E+04</rscale>
<asrwt>0</asrwt>
<pdfrwt beam="1">  1        1 0.24322917E+00 0.17118558E+04</pdfrwt>
<pdfrwt beam="2">  1       -1 0.71290550E-01 0.17118558E+04</pdfrwt>
<totfact> 0.10862076E+01</totfact>
</mgrwt>
</event>
<event>
 6    1  0.1014650E-006  0.4869324E+04  0.7818608E-02  0.7848988E-01
         -2   -1    0    0    0  501 -0.00000000000E+00  0.00000000000E+00  0.21255174758E+04  0.21255174758E+04  0.00000000000E+00 0.  1.
          2   -1    0    0  501    0  0.00000000000E+00 -0.00000000000E+00 -0.27887694950E+04  0.27887694950E+04  0.00000000000E+00 0. -1.
         23    2    1    2    0    0 -0.23555114301E+04 -0.19237432265E+03 -0.91856068572E+03  0.25371827467E+04  0.90003218076E+02 0.  0.
         13    1    3    3    0    0 -0.17752531697E+04 -0.15823501188E+03 -0.73146265588E+03  0.19265512588E+04  0.00000000000E+00 0. -1.
        -13    1    3    3    0    0 -0.58025826035E+03 -0.34139310765E+02 -0.18709802984E+03  0.61063148790E+03  0.00000000000E+00 0.  1.
         22    1    1    2    0    0  0.23555114301E+04  0.19237432265E+03  0.25530866643E+03  0.23771042241E+04  0.00000000000E+00 0.  1.
<mgrwt>
<rscale>  0 0.48693237E+04</rscale>
<asrwt>0</asrwt>
<pdfrwt beam="1">  1        2 0.42904146E+00 0.48693237E+04</pdfrwt>
<pdfrwt beam="2">  1       -2 0.32700269E+00 0.48693237E+04</pdfrwt>
<totfact> 0.37432992E-02</totfact>
</mgrwt>
</event>
<event>
 6    1  0.1014650E-006  0.1932313E+04  0.7818608E-02  0.8638937E-01
          2   -1    0    0  501    0  0.00000000000E+00  0.00000000000E+00  0.57772538292E+03  0.57772538292E+03  0.00000000000E+00 0. -1.
         -2   -1    0    0    0  501 -0.00000000000E+00 -0.00000000000E+00 -0.16157482774E+04  0.16157482774E+04  0.00000000000E+00 0.  1.
         23    2    1    2    0    0  0.66654115420E+03 -0.69601546956E+03 -0.49130258856E+03  0.10854945373E+04  0.90584286177E+02 0.  0.
         11    1    3    3    0    0  0.49098110956E+03 -0.50828975973E+03 -0.31442504214E+03  0.77348822675E+03  0.00000000000E+00 0. -1.
        -11    1    3    3    0    0  0.17556004464E+03 -0.18772570983E+03 -0.17687754643E+03  0.31200631057E+03  0.00000000000E+00 0.  1.
         22    1    1    2    0    0 -0.66654115420E+03  0.69601546956E+03 -0.54672030591E+03  0.11079791230E+04  0.00000000000E+00 0.  1.
<mgrwt>
<rscale>  0 0.19323134E+04</rscale>
<asrwt>0</asrwt>
<pdfrwt beam="1">  1        2 0.88880828E-01 0.19323134E+04</pdfrwt>
<pdfrwt beam="2">  1       -2 0.24857666E+00 0.19323134E+04</pdfrwt>
<totfact> 0.31791978E+00</totfact>
</mgrwt>
</event>
<event>
 6    1  0.1014650E-006  0.1382402E+04  0.7818608E-02  0.8966656E-01
         -1   -1    0    0    0  501 -0.00000000000E+00  0.00000000000E+00  0.42258949453E+03  0.42258949453E+03  0.00000000000E+00 0.  1.
          1   -1    0    0  501    0  0.00000000000E+00 -0.00000000000E+00 -0.11305503798E+04  0.11305503798E+04  0.00000000000E+00 0. -1.
         23    2    1    2    0    0  0.14393543985E+03 -0.33115783207E+03 -0.10141080631E+04  0.10797383374E+04  0.83885594685E+02 0.  0.
         13    1    3    3    0    0  0.61369247446E+02 -0.82733184175E+02 -0.20660153816E+03  0.23085744490E+03  0.00000000000E+00 0. -1.
        -13    1    3    3    0    0  0.82566192404E+02 -0.24842464790E+03 -0.80750652497E+03  0.84888089252E+03  0.00000000000E+00 0.  1.
         22    1    1    2    0    0 -0.14393543985E+03  0.33115783207E+03  0.30614717790E+03  0.47340153688E+03  0.00000000000E+00 0.  1.
<mgrwt>
<rscale>  0 0.13824018E+04</rscale>
<asrwt>0</asrwt>
<pdfrwt beam="1">  1        1 0.17393083E+00 0.13824018E+04</pdfrwt>
<pdfrwt beam="2">  1       -1 0.65013768E-01 0.13824018E+04</pdfrwt>
<totfact> 0.28168375E+01</totfact>
</mgrwt>
</event>
<event>
 6    1  0.1014650E-006  0.2015568E+04  0.7818608E-02  0.8599377E-01
         -2   -1    0    0    0  501 -0.00000000000E+00  0.00000000000E+00  0.33217491267E+03  0.33217491267E+03  0.00000000000E+00 0.  1.
          2   -1    0    0  501    0  0.00000000000E+00 -0.00000000000E+00 -0.30575100102E+04  0.30575100102E+04  0.00000000000E+00 0. -1.
         23    2    1    2    0    0 -0.63045993540E+03 -0.68601974945E+03 -0.72848028223E+03  0.11861577549E+04  0.90464750292E+02 0.  0.
         11    1    3    3    0    0 -0.56540921583E+03 -0.59759768324E+03 -0.60667488101E+03  0.10221863742E+04  0.00000000000E+00 0. -1.
        -11    1    3    3    0    0 -0.65050719578E+02 -0.88422066202E+02 -0.12180540122E+03  0.16397138066E+03  0.00000000000E+00 0.  1.
         22    1    1    2    0    0  0.63045993540E+03  0.68601974945E+03 -0.19968548153E+04  0.22035271680E+04  0.00000000000E+00 0. -1.
<mgrwt>
<rscale>  0 0.20155675E+04</rscale>
<asrwt>0</asrwt>
<pdfrwt beam="1">  1        2 0.47038618E+00 0.20155675E+04</pdfrwt>
<pdfrwt beam="2">  1       -2 0.51103830E-01 0.20155675E+04</pdfrwt>
<totfact> 0.53919158E+00</totfact>
</mgrwt>
</event>
<event>
 6    1  0.1014650E-006  0.3126387E+04  0.7818608E-02  0.8208533E-01
         -2   -1    0    0    0  501 -0.00000000000E+00  0.00000000000E+00  0.15670448232E+04  0.15670448232E+04  0.00000000000E+00 0.  1.
          2   -1    0    0  501    0  0.00000000000E+00 -0.00000000000E+00 -0.15593518201E+04  0.15593518201E+04  0.00000000000E+00 0. -1.
         23    2    1    2    0    0  0.37691544640E+03  0.12934926440E+04  0.79373428887E+03  0.15665731351E+04  0.94598058291E+02 0.  0.
         11    1    3    3    0    0  0.28996239909E+03  0.99817463666E+03  0.65741681151E+03  0.12298892886E+04  0.00000000000E+00 0. -1.
        -11    1    3    3    0    0  0.86953047306E+02  0.29531800731E+03  0.13631747736E+03  0.33668384653E+03  0.00000000000E+00 0.  1.
         22    1    1    2    0    0 -0.37691544640E+03 -0.12934926440E+04 -0.78604128578E+03  0.15598235082E+04  0.00000000000E+00 0. -1.
<mgrwt>
<rscale>  0 0.31263872E+04</rscale>
<asrwt>0</asrwt>
<pdfrwt beam="1">  1        2 0.23990028E+00 0.31263872E+04</pdfrwt>
<pdfrwt beam="2">  1       -2 0.24108382E+00 0.31263872E+04</pdfrwt>
<totfact> 0.72628090E-01</totfact>
</mgrwt>
</event>
<event>
 6    1  0.1014650E-006  0.9742782E+03  0.7818608E-02  0.9337215E-01
         -2   -1    0    0    0  501 -0.00000000000E+00  0.00000000000E+00  0.39852102104E+03  0.39852102104E+03  0.00000000000E+00 0.  1.
          2   -1    0    0  501    0  0.00000000000E+00 -0.00000000000E+00 -0.59546297652E+03  0.59546297652E+03  0.00000000000E+00 0. -1.
         23    2    1    2    0    0  0.42043660479E+03 -0.46530926883E+02 -0.33706927264E+03  0.54837460491E+03  0.90371162129E+02 0.  0.
         13    1    3    3    0    0  0.34256856195E+03 -0.54206898276E+02 -0.23159692350E+03  0.41704765007E+03  0.00000000000E+00 0. -1.
        -13    1    3    3    0    0  0.77868042841E+02  0.76759713929E+01 -0.10547234914E+03  0.13132695484E+03  0.00000000000E+00 0.  1.
         22    1    1    2    0    0 -0.42043660479E+03  0.46530926883E+02  0.14012731717E+03  0.44560939265E+03  0.00000000000E+00 0.  1.
<mgrwt>
<rscale>  0 0.97427822E+03</rscale>
<asrwt>0</asrwt>
<pdfrwt beam="1">  1        2 0.91609689E-01 0.97427822E+03</pdfrwt>
<pdfrwt beam="2">  1       -2 0.61310926E-01 0.97427822E+03</pdfrwt>
<totfact> 0.12387137E+02</totfact>
</mgrwt>
</event>
<event>
 6    1  0.1014650E-006  0.1191278E+04  0.7818608E-02  0.9120526E-01
          1   -1    0    0  501    0  0.00000000000E+00  0.00000000000E+00  0.19576481081E+04  0.19576481081E+04  0.00000000000E+00 0. -1.
         -1   -1    0    0    0  501 -0.00000000000E+00 -0.00000000000E+00 -0.18123051719E+03  0.18123051719E+03  0.00000000000E+00 0.  1.
         23    2    1    2    0    0 -0.11737843294E+03  0.58011150331E+03  0.86696547927E+03  0.10537932848E+04  0.92434257865E+02 0.  0.
         11    1    3    3    0    0 -0.67301703927E+02  0.15959394926E+03  0.21073078390E+03  0.27277685253E+03  0.00000000000E+00 0.  1.
        -11    1    3    3    0    0 -0.50076729011E+02  0.42051755405E+03  0.65623469537E+03  0.78101643226E+03  0.00000000000E+00 0. -1.
         22    1    1    2    0    0  0.11737843294E+03 -0.58011150331E+03  0.90945211164E+03  0.10850853405E+04  0.00000000000E+00 0.  1.
<mgrwt>
<rscale>  0 0.11912776E+04</rscale>
<asrwt>0</asrwt>
<pdfrwt beam="1">  1        1 0.30117662E+00 0.11912776E+04</pdfrwt>
<pdfrwt beam="2">  1       -1 0.27881619E-01 0.11912776E+04</pdfrwt>
<totfact> 0.36634493E+01</totfact>
</mgrwt>
</event>
<event>
 6    1  0.1014650E-006  0.3997874E+04  0.7818608E-02  0.8004976E-01
         -2   -1    0    0    0  501 -0.00000000000E+00  0.00000000000E+00  0.23550755457E+04  0.23550755457E+04  0.00000000000E+00 0.  1.
          2   -1    0    0  501    0  0.00000000000E+00 -0.00000000000E+00 -0.16966545979E+04  0.16966545979E+04  0.00000000000E+00 0. -1.
         23    2    1    2    0    0  0.99053450987E+03  0.77082705534E+03  0.19048354808E+04  0.22828654928E+04  0.87998210226E+02 0.  0.
         13    1    3    3    0    0  0.65141741544E+03  0.46384937597E+03  0.11655056928E+04  0.14134724662E+04  0.00000000000E+00 0. -1.
        -13    1    3    3    0    0  0.33911709442E+03  0.30697767937E+03  0.73932978800E+03  0.86939302665E+03  0.00000000000E+00 0.  1.
         22    1    1    2    0    0 -0.99053450987E+03 -0.77082705534E+03 -0.12464145331E+04  0.17688646508E+04  0.00000000000E+00 0. -1.
<mgrwt>
<rscale>  0 0.39978743E+04</rscale>
<asrwt>0</asrwt>
<pdfrwt beam="1">  1        2 0.26102378E+00 0.39978743E+04</pdfrwt>
<pdfrwt beam="2">  1       -2 0.36231932E+00 0.39978743E+04</pdfrwt>
<totfact> 0.10097662E-01</totfact>
</mgrwt>
</event>
<event>
 6    1  0.1014650E-006  0.6487007E+03  0.7818608E-02  0.9809220E-01
         -3   -1    0    0    0  501 -0.00000000000E+00  0.00000000000E+00  0.83789474588E+03  0.83789474588E+03  0.00000000000E+00 0.  1.
          3   -1    0    0  501    0  0.00000000000E+00 -0.00000000000E+00 -0.12555650745E+03  0.12555650745E+03  0.00000000000E+00 0. -1.
         23    2    1    2    0    0 -0.10748521442E+03  0.12975324890E+03 -0.37295494000E+02  0.19511557817E+03  0.91050305068E+02 0.  0.
         13    1    3    3    0    0 -0.68178708498E+02  0.57235966684E+02 -0.62612356506E+02  0.10883289651E+03  0.00000000000E+00 0.  1.
        -13    1    3    3    0    0 -0.39306505924E+02  0.72517282221E+02  0.25316862506E+02  0.86282681668E+02  0.00000000000E+00 0. -1.
         22    1    1    2    0    0  0.10748521442E+03 -0.12975324890E+03  0.74963373243E+03  0.76833567516E+03  0.00000000000E+00 0.  1.
<mgrwt>
<rscale>  0 0.64870066E+03</rscale>
<asrwt>0</asrwt>
<pdfrwt beam="1">  1        3 0.19316386E-01 0.64870066E+03</pdfrwt>
<pdfrwt beam="2">  1       -3 0.12890688E+00 0.64870066E+03</pdfrwt>
<totfact> 0.30545774E+01</totfact>
</mgrwt>
</event>
<event>
 6    1  0.1014650E-006  0.3952764E+04  0.7818608E-02  0.8014144E-01
         -1   -1    0    0    0  501 -0.00000000000E+00  0.00000000000E+00  0.11520318004E+04  0.11520318004E+04  0.00000000000E+00 0.  1.
          1   -1    0    0  501    0  0.00000000000E+00 -0.00000000000E+00 -0.33906065407E+04  0.33906065407E+04  0.00000000000E+00 0. -1.
         23    2    1    2    0    0  0.12943668525E+04 -0.66175316629E+01  0.59514380626E+03  0.14272908256E+04  0.86796371365E+02 0.  0.
         13    1    3    3    0    0  0.14596559484E+03  0.25401982398E+02  0.77581204257E+02  0.16724251505E+03  0.00000000000E+00 0.  1.
        -13    1    3    3    0    0  0.11484012577E+04 -0.32019514061E+02  0.51756260200E+03  0.12600483106E+04  0.00000000000E+00 0. -1.
         22    1    1    2    0    0 -0.12943668525E+04  0.66175316629E+01 -0.28337185466E+04  0.31153475155E+04  0.00000000000E+00 0. -1.
<mgrwt>
<rscale>  0 0.39527644E+04</rscale>
<asrwt>0</asrwt>
<pdfrwt beam="1">  1        1 0.52163178E+00 0.39527644E+04</pdfrwt>
<pdfrwt beam="2">  1       -1 0.17723566E+00 0.39527644E+04</pdfrwt>
<totfact> 0.52016015E-02</totfact>
</mgrwt>
</event>
<event>
 6    1  0.1014650E-006  0.1902784E+04  0.7818608E-02  0.8653472E-01
         -1   -1    0    0    0  501 -0.00000000000E+00  0.00000000000E+00  0.38367840833E+03  0.38367840833E+03  0.00000000000E+00 0.  1.
          1   -1    0    0  501    0  0.00000000000E+00 -0.00000000000E+00 -0.23591290982E+04  0.23591290982E+04  0.00000000000E+00 0. -1.
         23    2    1    2    0    0 -0.74064692261E+03  0.41041287687E+03 -0.16083960731E+04  0.18199176511E+04  0.90364459052E+02 0.  0.
         11    1    3    3    0    0 -0.65554402258E+03  0.34899651131E+03 -0.14617199949E+04  0.16395614883E+04  0.00000000000E+00 0.  1.
        -11    1    3    3    0    0 -0.85102900033E+02  0.61416365558E+02 -0.14667607819E+03  0.18035616281E+03  0.00000000000E+00 0. -1.
         22    1    1    2    0    0  0.74064692261E+03 -0.41041287687E+03 -0.36705461675E+03  0.92288985537E+03  0.00000000000E+00 0.  1.
<mgrwt>
<rscale>  0 0.19027842E+04</rscale>
<asrwt>0</asrwt>
<pdfrwt beam="1">  1        1 0.36294294E+00 0.19027842E+04</pdfrwt>
<pdfrwt beam="2">  1       -1 0.59027448E-01 0.19027842E+04</pdfrwt>
<totfact> 0.46146215E+00</totfact>
</mgrwt>
</event>
<event>
 6    1  0.1014650E-006  0.1912488E+04  0.7818608E-02  0.8648665E-01
         -1   -1    0    0    0  501 -0.00000000000E+00  0.00000000000E+00  0.22626560516E+04  0.22626560516E+04  0.00000000000E+00 0.  1.
          1   -1    0    0  501    0  0.00000000000E+00 -0.00000000000E+00 -0.40412812743E+03  0.40412812743E+03  0.00000000000E+00 0. -1.
         23    2    1    2    0    0 -0.87993044064E+03  0.93857066961E+02  0.14286377100E+04  0.16829689903E+04  0.91061443293E+02 0.  0.
         13    1    3    3    0    0 -0.51078683577E+03  0.44488673745E+02  0.90935987244E+03  0.10439433947E+04  0.00000000000E+00 0.  1.
        -13    1    3    3    0    0 -0.36914360487E+03  0.49368393216E+02  0.51927783758E+03  0.63902559563E+03  0.00000000000E+00 0. -1.
         22    1    1    2    0    0  0.87993044064E+03 -0.93857066961E+02  0.42989021419E+03  0.98381518876E+03  0.00000000000E+00 0. -1.
<mgrwt>
<rscale>  0 0.19124884E+04</rscale>
<asrwt>0</asrwt>
<pdfrwt beam="1">  1        1 0.62173559E-01 0.19124884E+04</pdfrwt>
<pdfrwt beam="2">  1       -1 0.34810092E+00 0.19124884E+04</pdfrwt>
<totfact> 0.88633989E-01</totfact>
</mgrwt>
</event>
<event>
 6    1  0.1014650E-006  0.6770603E+03  0.7818608E-02  0.9757287E-01
         -2   -1    0    0    0  501 -0.00000000000E+00  0.00000000000E+00  0.21046779736E+03  0.21046779736E+03  0.00000000000E+00 0.  1.
          2   -1    0    0  501    0  0.00000000000E+00 -0.00000000000E+00 -0.54451404182E+03  0.54451404182E+03  0.00000000000E+00 0. -1.
         23    2    1    2    0    0  0.37221827556E+02  0.16472592431E+03 -0.48926542600E+03  0.52560640696E+03  0.91440381549E+02 0.  0.
         11    1    3    3    0    0 -0.25249609511E+02  0.49011326037E+02 -0.93256763824E+02  0.10833502139E+03  0.00000000000E+00 0. -1.
        -11    1    3    3    0    0  0.62471437067E+02  0.11571459827E+03 -0.39600866217E+03  0.41727138557E+03  0.00000000000E+00 0.  1.
         22    1    1    2    0    0 -0.37221827556E+02 -0.16472592431E+03  0.15521918154E+03  0.22937543221E+03  0.00000000000E+00 0.  1.
<mgrwt>
<rscale>  0 0.67706033E+03</rscale>
<asrwt>0</asrwt>
<pdfrwt beam="1">  1        2 0.83771390E-01 0.67706033E+03</pdfrwt>
<pdfrwt beam="2">  1       -2 0.32379662E-01 0.67706033E+03</pdfrwt>
<totfact> 0.49818763E+02</totfact>
</mgrwt>
</event>
<event>
 6    1  0.1014650E-006  0.1706335E+04  0.7818608E-02  0.8757759E-01
         -2   -1    0    0    0  501 -0.00000000000E+00  0.00000000000E+00  0.70675217923E+03  0.70675217923E+03  0.00000000000E+00 0.  1.
          2   -1    0    0  501    0  0.00000000000E+00 -0.00000000000E+00 -0.10299154672E+04  0.10299154672E+04  0.00000000000E+00 0. -1.
         23    2    1    2    0    0  0.46694213769E+03  0.61262159690E+03 -0.52973060079E+03  0.93916514765E+03  0.89869261712E+02 0.  0.
         13    1    3    3    0    0  0.32108717954E+03  0.41015560244E+03 -0.40725471911E+03  0.66119664346E+03  0.00000000000E+00 0. -1.
        -13    1    3    3    0    0  0.14585495815E+03  0.20246599445E+03 -0.12247588168E+03  0.27796850418E+03  0.00000000000E+00 0.  1.
         22    1    1    2    0    0 -0.46694213769E+03 -0.61262159690E+03  0.20656731278E+03  0.79750249883E+03  0.00000000000E+00 0.  1.
<mgrwt>
<rscale>  0 0.17063353E+04</rscale>
<asrwt>0</asrwt>
<pdfrwt beam="1">  1        2 0.15844853E+00 0.17063353E+04</pdfrwt>
<pdfrwt beam="2">  1       -2 0.10873110E+00 0.17063353E+04</pdfrwt>
<totfact> 0.15492956E+01</totfact>
</mgrwt>
</event>
<event>
 6    1  0.1014650E-006  0.2612095E+04  0.7818608E-02  0.8364104E-01
          4   -1    0    0  501    0  0.00000000000E+00  0.00000000000E+00  0.15063400594E+04  0.15063400594E+04  0.00000000000E+00 0. -1.
         -4   -1    0    0    0  501 -0.00000000000E+00 -0.00000000000E+00 -0.11323870128E+04  0.11323870128E+04  0.00000000000E+00 0.  1.
         23    2    1    2    0    0 -0.90144898094E+03  0.76671782561E+03 -0.36704652397E+03  0.12424653300E+04  0.92360468393E+02 0.  0.
         11    1    3    3    0    0 -0.47153383417E+03  0.35620590991E+03 -0.15046565552E+03  0.60980875732E+03  0.00000000000E+00 0.  1.
        -11    1    3    3    0    0 -0.42991514677E+03  0.41051191570E+03 -0.21658086845E+03  0.63265657267E+03  0.00000000000E+00 0. -1.
         22    1    1    2    0    0  0.90144898094E+03 -0.76671782561E+03  0.74099957050E+03  0.13962617422E+04  0.00000000000E+00 0. -1.
<mgrwt>
<rscale>  0 0.26120949E+04</rscale>
<asrwt>0</asrwt>
<pdfrwt beam="1">  1        4 0.23174463E+00 0.26120949E+04</pdfrwt>
<pdfrwt beam="2">  1       -4 0.17421339E+00 0.26120949E+04</pdfrwt>
<totfact> 0.28559309E-02</totfact>
</mgrwt>
</event>
<event>
 6    1  0.1014650E-006  0.3618974E+04  0.7818608E-02  0.8086159E-01
          1   -1    0    0  501    0  0.00000000000E+00  0.00000000000E+00  0.38983869051E+04  0.38983869051E+04  0.00000000000E+00 0. -1.
         -1   -1    0    0    0  501 -0.00000000000E+00 -0.00000000000E+00 -0.83989683405E+03  0.83989683405E+03  0.00000000000E+00 0.  1.
         23    2    1    2    0    0  0.10023148469E+04  0.82642323764E+03 -0.11674502956E+03  0.13075799682E+04  0.92333911948E+02 0.  0.
         13    1    3    3    0    0  0.81950953621E+03  0.71780330708E+03 -0.87347275265E+02  0.10929167462E+04  0.00000000000E+00 0. -1.
        -13    1    3    3    0    0  0.18280531066E+03  0.10861993056E+03 -0.29397754299E+02  0.21466322200E+03  0.00000000000E+00 0.  1.
         22    1    1    2    0    0 -0.10023148469E+04 -0.82642323764E+03  0.31752351006E+04  0.34307037710E+04  0.00000000000E+00 0. -1.
<mgrwt>
<rscale>  0 0.36189738E+04</rscale>
<asrwt>0</asrwt>
<pdfrwt beam="1">  1        1 0.59975182E+00 0.36189738E+04</pdfrwt>
<pdfrwt beam="2">  1       -1 0.12921490E+00 0.36189738E+04</pdfrwt>
<totfact> 0.48796479E-02</totfact>
</mgrwt>
</event>
<event>
 6    1  0.1014650E-006  0.2858344E+04  0.7818608E-02  0.8285380E-01
         -1   -1    0    0    0  501 -0.00000000000E+00  0.00000000000E+00  0.98671990569E+03  0.98671990569E+03  0.00000000000E+00 0.  1.
          1   -1    0    0  501    0  0.00000000000E+00 -0.00000000000E+00 -0.20700229593E+04  0.20700229593E+04  0.00000000000E+00 0. -1.
         23    2    1    2    0    0  0.11131689107E+04 -0.18726856395E+03  0.39271483321E+03  0.11985600588E+04  0.90037412252E+02 0.  0.
         11    1    3    3    0    0  0.37011385342E+03 -0.33238699763E+02  0.16228285960E+03  0.40549328252E+03  0.00000000000E+00 0. -1.
        -11    1    3    3    0    0  0.74305505729E+03 -0.15402986419E+03  0.23043197361E+03  0.79306677631E+03  0.00000000000E+00 0.  1.
         22    1    1    2    0    0 -0.11131689107E+04  0.18726856395E+03 -0.14760178868E+04  0.18581828061E+04  0.00000000000E+00 0. -1.
<mgrwt>
<rscale>  0 0.28583442E+04</rscale>
<asrwt>0</asrwt>
<pdfrwt beam="1">  1        1 0.31846507E+00 0.28583442E+04</pdfrwt>
<pdfrwt beam="2">  1       -1 0.15180306E+00 0.28583442E+04</pdfrwt>
<totfact> 0.77709430E-01</totfact>
</mgrwt>
</event>
<event>
 6    1  0.1014650E-006  0.2005075E+04  0.7818608E-02  0.8604252E-01
          1   -1    0    0  501    0  0.00000000000E+00  0.00000000000E+00  0.30005182651E+04  0.30005182651E+04  0.00000000000E+00 0. -1.
         -1   -1    0    0    0  501 -0.00000000000E+00 -0.00000000000E+00 -0.33496931965E+03  0.33496931965E+03  0.00000000000E+00 0.  1.
         23    2    1    2    0    0 -0.37758169812E+03  0.82960342202E+03  0.20218395393E+04  0.22196150221E+04  0.89699202356E+02 0.  0.
         13    1    3    3    0    0 -0.25559356564E+03  0.49208370325E+03  0.11462092495E+04  0.12732910450E+04  0.00000000000E+00 0. -1.
        -13    1    3    3    0    0 -0.12198813248E+03  0.33751971877E+03  0.87563028984E+03  0.94632397703E+03  0.00000000000E+00 0.  1.
         22    1    1    2    0    0  0.37758169812E+03 -0.82960342202E+03  0.64370940614E+03  0.11158725627E+04  0.00000000000E+00 0.  1.
<mgrwt>
<rscale>  0 0.20050751E+04</rscale>
<asrwt>0</asrwt>
<pdfrwt beam="1">  1        1 0.46161818E+00 0.20050751E+04</pdfrwt>
<pdfrwt beam="2">  1       -1 0.51533743E-01 0.20050751E+04</pdfrwt>
<totfact> 0.21019063E+00</totfact>
</mgrwt>
</event>
<event>
 6    1  0.1014650E-006  0.2002249E+04  0.7818608E-02  0.8605570E-01
         -2   -1    0    0    0  501 -0.00000000000E+00  0.00000000000E+00  0.36559418902E+03  0.36559418902E+03  0.00000000000E+00 0.  1.
          2   -1    0    0  501    0  0.00000000000E+00 -0.00000000000E+00 -0.27414270006E+04  0.27414270006E+04  0.00000000000E+00 0. -1.
         23    2    1    2    0    0  0.79897726417E+03  0.71495206036E+02 -0.21141076490E+04  0.22632343126E+04  0.96447753328E+02 0.  0.
         11    1    3    3    0    0  0.43192023667E+03 -0.65743044116E+01 -0.10838858259E+04  0.11667933819E+04  0.00000000000E+00 0. -1.
        -11    1    3    3    0    0  0.36705702749E+03  0.78069510448E+02 -0.10302218230E+04  0.10964409307E+04  0.00000000000E+00 0.  1.
         22    1    1    2    0    0 -0.79897726417E+03 -0.71495206036E+02 -0.26172516264E+03  0.84378687706E+03  0.00000000000E+00 0.  1.
<mgrwt>
<rscale>  0 0.20022485E+04</rscale>
<asrwt>0</asrwt>
<pdfrwt beam="1">  1        2 0.42175801E+00 0.20022485E+04</pdfrwt>
<pdfrwt beam="2">  1       -2 0.56245259E-01 0.20022485E+04</pdfrwt>
<totfact> 0.69218534E+00</totfact>
</mgrwt>
</event>
<event>
 6    1  0.1014650E-006  0.1580904E+04  0.7818608E-02  0.8832366E-01
          1   -1    0    0  501    0  0.00000000000E+00  0.00000000000E+00  0.12501803346E+04  0.12501803346E+04  0.00000000000E+00 0. -1.
         -1   -1    0    0    0  501 -0.00000000000E+00 -0.00000000000E+00 -0.49977936769E+03  0.49977936769E+03  0.00000000000E+00 0.  1.
         23    2    1    2    0    0 -0.93177089751E+02  0.48228577105E+03 -0.30526795939E+03  0.58560648399E+03  0.92004847992E+02 0.  0.
         11    1    3    3    0    0 -0.15600832279E+02  0.31428201434E+03 -0.19520437731E+03  0.37029895953E+03  0.00000000000E+00 0.  1.
        -11    1    3    3    0    0 -0.77576257472E+02  0.16800375671E+03 -0.11006358208E+03  0.21530752446E+03  0.00000000000E+00 0. -1.
         22    1    1    2    0    0  0.93177089751E+02 -0.48228577105E+03  0.10556689263E+04  0.11643532183E+04  0.00000000000E+00 0. -1.
<mgrwt>
<rscale>  0 0.15809040E+04</rscale>
<asrwt>0</asrwt>
<pdfrwt beam="1">  1        1 0.19233543E+00 0.15809040E+04</pdfrwt>
<pdfrwt beam="2">  1       -1 0.76889134E-01 0.15809040E+04</pdfrwt>
<totfact> 0.16020505E+01</totfact>
</mgrwt>
</event>
<event>
 6    1  0.1014650E-006  0.4421345E+04  0.7818608E-02  0.7924554E-01
          2   -1    0    0  501    0  0.00000000000E+00  0.00000000000E+00  0.29189858580E+04  0.29189858580E+04  0.00000000000E+00 0. -1.
         -2   -1    0    0    0  501 -0.00000000000E+00 -0.00000000000E+00 -0.16742363600E+04  0.16742363600E+04  0.00000000000E+00 0.  1.
         23    2    1    2    0    0  0.20267509670E+04 -0.86151211889E+03  0.81106719255E+03  0.23486726071E+04  0.92251891457E+02 0.  0.
         13    1    3    3    0    0  0.13956419970E+04 -0.62099117518E+03  0.52598091729E+03  0.16155811799E+04  0.00000000000E+00 0. -1.
        -13    1    3    3    0    0  0.63110896995E+03 -0.24052094371E+03  0.28508627526E+03  0.73309142722E+03  0.00000000000E+00 0.  1.
         22    1    1    2    0    0 -0.20267509670E+04  0.86151211889E+03  0.43368230547E+03  0.22445496108E+04  0.00000000000E+00 0.  1.
<mgrwt>
<rscale>  0 0.44213447E+04</rscale>
<asrwt>0</asrwt>
<pdfrwt beam="1">  1        2 0.44907475E+00 0.44213447E+04</pdfrwt>
<pdfrwt beam="2">  1       -2 0.25757483E+00 0.44213447E+04</pdfrwt>
<totfact> 0.86058753E-02</totfact>
</mgrwt>
</event>
<event>
 6    1  0.1014650E-006  0.2084590E+04  0.7818608E-02  0.8568062E-01
         -1   -1    0    0    0  501 -0.00000000000E+00  0.00000000000E+00  0.57600827630E+03  0.57600827630E+03  0.00000000000E+00 0.  1.
          1   -1    0    0  501    0  0.00000000000E+00 -0.00000000000E+00 -0.18860481079E+04  0.18860481079E+04  0.00000000000E+00 0. -1.
         23    2    1    2    0    0  0.74216543961E+03 -0.63940966133E+03 -0.24300149349E+03  0.10135312482E+04  0.92420833160E+02 0.  0.
         11    1    3    3    0    0  0.45558669522E+03 -0.44292729762E+03 -0.13416216489E+03  0.64941767324E+03  0.00000000000E+00 0.  1.
        -11    1    3    3    0    0  0.28657874439E+03 -0.19648236372E+03 -0.10883932860E+03  0.36411357491E+03  0.00000000000E+00 0. -1.
         22    1    1    2    0    0 -0.74216543961E+03  0.63940966133E+03 -0.10670383382E+04  0.14485251361E+04  0.00000000000E+00 0. -1.
<mgrwt>
<rscale>  0 0.20845904E+04</rscale>
<asrwt>0</asrwt>
<pdfrwt beam="1">  1        1 0.29016125E+00 0.20845904E+04</pdfrwt>
<pdfrwt beam="2">  1       -1 0.88616657E-01 0.20845904E+04</pdfrwt>
<totfact> 0.40982709E+00</totfact>
</mgrwt>
</event>
<event>
 6    1  0.1014650E-006  0.1428668E+04  0.7818608E-02  0.8933324E-01
          1   -1    0    0  501    0  0.00000000000E+00  0.00000000000E+00  0.24499849476E+04  0.24499849476E+04  0.00000000000E+00 0. -1.
         -1   -1    0    0    0  501 -0.00000000000E+00 -0.00000000000E+00 -0.20827613516E+03  0.20827613516E+03  0.00000000000E+00 0.  1.
         23    2    1    2    0    0 -0.73339307196E+02 -0.48702639404E+03  0.17021759152E+03  0.52902430852E+03  0.91210350676E+02 0.  0.
         11    1    3    3    0    0  0.14197638974E+02 -0.11975398886E+03  0.17973096133E+02  0.12192466110E+03  0.00000000000E+00 0. -1.
        -11    1    3    3    0    0 -0.87536946170E+02 -0.36727240518E+03  0.15224449539E+03  0.40709964741E+03  0.00000000000E+00 0.  1.
         22    1    1    2    0    0  0.73339307196E+02  0.48702639404E+03  0.20714912209E+04  0.21292367743E+04  0.00000000000E+00 0. -1.
<mgrwt>
<rscale>  0 0.14286685E+04</rscale>
<asrwt>0</asrwt>
<pdfrwt beam="1">  1        1 0.37692074E+00 0.14286685E+04</pdfrwt>
<pdfrwt beam="2">  1       -1 0.32042484E-01 0.14286685E+04</pdfrwt>
<totfact> 0.13004954E+01</totfact>
</mgrwt>
</event>
<event>
 6    1  0.1014650E-006  0.1186392E+04  0.7818608E-02  0.9124852E-01
         -2   -1    0    0    0  501 -0.00000000000E+00  0.00000000000E+00  0.47566708513E+03  0.47566708513E+03  0.00000000000E+00 0.  1.
          2   -1    0    0  501    0  0.00000000000E+00 -0.00000000000E+00 -0.73976436240E+03  0.73976436240E+03  0.00000000000E+00 0. -1.
         23    2    1    2    0    0  0.44214312267E+03  0.37530312085E+03 -0.24092571555E+02  0.58778088216E+03  0.92536155053E+02 0.  0.
         13    1    3    3    0    0  0.16445964588E+03  0.87485597898E+02 -0.24203670610E+02  0.18784707246E+03  0.00000000000E+00 0. -1.
        -13    1    3    3    0    0  0.27768347679E+03  0.28781752295E+03  0.11109905459E+00  0.39993380970E+03  0.00000000000E+00 0.  1.
         22    1    1    2    0    0 -0.44214312267E+03 -0.37530312085E+03 -0.24000470571E+03  0.62765056537E+03  0.00000000000E+00 0. -1.
<mgrwt>
<rscale>  0 0.11863921E+04</rscale>
<asrwt>0</asrwt>
<pdfrwt beam="1">  1        2 0.11380990E+00 0.11863921E+04</pdfrwt>
<pdfrwt beam="2">  1       -2 0.73179551E-01 0.11863921E+04</pdfrwt>
<totfact> 0.63598643E+01</totfact>
</mgrwt>
</event>
<event>
 6    1  0.1014650E-006  0.3773568E+04  0.7818608E-02  0.8051851E-01
         -2   -1    0    0    0  501 -0.00000000000E+00  0.00000000000E+00  0.17105535581E+04  0.17105535581E+04  0.00000000000E+00 0.  1.
          2   -1    0    0  501    0  0.00000000000E+00 -0.00000000000E+00 -0.20811702030E+04  0.20811702030E+04  0.00000000000E+00 0. -1.
         23    2    1    2    0    0 -0.12021568451E+04  0.50516027941E+03 -0.15541353592E+04  0.20307341146E+04  0.90423124610E+02 0.  0.
         11    1    3    3    0    0 -0.54726843795E+03  0.18233184000E+03 -0.67144270258E+03  0.88520220622E+03  0.00000000000E+00 0. -1.
        -11    1    3    3    0    0 -0.65488840712E+03  0.32282843941E+03 -0.88269265660E+03  0.11455319084E+04  0.00000000000E+00 0.  1.
         22    1    1    2    0    0  0.12021568451E+04 -0.50516027941E+03  0.11835187143E+04  0.17609896465E+04  0.00000000000E+00 0.  1.
<mgrwt>
<rscale>  0 0.37735676E+04</rscale>
<asrwt>0</asrwt>
<pdfrwt beam="1">  1        2 0.32018003E+00 0.37735676E+04</pdfrwt>
<pdfrwt beam="2">  1       -2 0.26316209E+00 0.37735676E+04</pdfrwt>
<totfact> 0.25815249E-01</totfact>
</mgrwt>
</event>
<event>
 6    1  0.1014650E-006  0.5545046E+04  0.7818608E-02  0.7749521E-01
          1   -1    0    0  501    0  0.00000000000E+00  0.00000000000E+00  0.28713569487E+04  0.28713569487E+04  0.00000000000E+00 0. -1.
         -1   -1    0    0    0  501 -0.00000000000E+00 -0.00000000000E+00 -0.26770912939E+04  0.26770912939E+04  0.00000000000E+00 0.  1.
         23    2    1    2    0    0 -0.89706927415E+03 -0.12993802458E+04 -0.21823290024E+04  0.26951476152E+04  0.90213565011E+02 0.  0.
         13    1    3    3    0    0 -0.67710927966E+03 -0.10147333785E+04 -0.17393983009E+04  0.21245393042E+04  0.00000000000E+00 0. -1.
        -13    1    3    3    0    0 -0.21995999449E+03 -0.28464686734E+03 -0.44293070151E+03  0.57060831102E+03  0.00000000000E+00 0.  1.
         22    1    1    2    0    0  0.89706927415E+03  0.12993802458E+04  0.23765946572E+04  0.28533006274E+04  0.00000000000E+00 0. -1.
<mgrwt>
<rscale>  0 0.55450463E+04</rscale>
<asrwt>0</asrwt>
<pdfrwt beam="1">  1        1 0.44174722E+00 0.55450463E+04</pdfrwt>
<pdfrwt beam="2">  1       -1 0.41186020E+00 0.55450463E+04</pdfrwt>
<totfact> 0.30435529E-03</totfact>
</mgrwt>
</event>
<event>
 6    1  0.1014650E-006  0.1562416E+04  0.7818608E-02  0.8843976E-01
         -1   -1    0    0    0  501 -0.00000000000E+00  0.00000000000E+00  0.11699979203E+04  0.11699979203E+04  0.00000000000E+00 0.  1.
          1   -1    0    0  501    0  0.00000000000E+00 -0.00000000000E+00 -0.52161305081E+03  0.52161305081E+03  0.00000000000E+00 0. -1.
         23    2    1    2    0    0  0.17753901683E+03  0.93201545203E+02  0.11396958252E+04  0.11609575195E+04  0.93322866991E+02 0.  0.
         11    1    3    3    0    0  0.85568287947E+02  0.43352278887E+02  0.79418874404E+03  0.79996069475E+03  0.00000000000E+00 0. -1.
        -11    1    3    3    0    0  0.91970728887E+02  0.49849266317E+02  0.34550708119E+03  0.36099682475E+03  0.00000000000E+00 0.  1.
         22    1    1    2    0    0 -0.17753901683E+03 -0.93201545203E+02 -0.49131095572E+03  0.53065345164E+03  0.00000000000E+00 0. -1.
<mgrwt>
<rscale>  0 0.15624163E+04</rscale>
<asrwt>0</asrwt>
<pdfrwt beam="1">  1        1 0.80248162E-01 0.15624163E+04</pdfrwt>
<pdfrwt beam="2">  1       -1 0.17999968E+00 0.15624163E+04</pdfrwt>
<totfact> 0.83695368E+00</totfact>
</mgrwt>
</event>
<event>
 6    1  0.1014650E-006  0.1516115E+04  0.7818608E-02  0.8873807E-01
         -2   -1    0    0    0  501 -0.00000000000E+00  0.00000000000E+00  0.42035252633E+03  0.42035252633E+03  0.00000000000E+00 0.  1.
          2   -1    0    0  501    0  0.00000000000E+00 -0.00000000000E+00 -0.13670700684E+04  0.13670700684E+04  0.00000000000E+00 0. -1.
         23    2    1    2    0    0 -0.31192617913E+02  0.64045212586E+03 -0.94576485780E+03  0.11462106075E+04  0.90419497623E+02 0.  0.
         13    1    3    3    0    0 -0.84401262398E+01  0.60383266842E+03 -0.89387011315E+03  0.10787441339E+04  0.00000000000E+00 0. -1.
        -13    1    3    3    0    0 -0.22752491673E+02  0.36619457442E+02 -0.51894744651E+02  0.67466473623E+02  0.00000000000E+00 0.  1.
         22    1    1    2    0    0  0.31192617913E+02 -0.64045212586E+03 -0.95268423358E+00  0.64121198720E+03  0.00000000000E+00 0. -1.
<mgrwt>
<rscale>  0 0.15161152E+04</rscale>
<asrwt>0</asrwt>
<pdfrwt beam="1">  1        2 0.21031847E+00 0.15161152E+04</pdfrwt>
<pdfrwt beam="2">  1       -2 0.64669621E-01 0.15161152E+04</pdfrwt>
<totfact> 0.32193727E+01</totfact>
</mgrwt>
</event>
<event>
 6    1  0.1014650E-006  0.3325865E+04  0.7818608E-02  0.8156345E-01
         -1   -1    0    0    0  501 -0.00000000000E+00  0.00000000000E+00  0.23582437850E+04  0.23582437850E+04  0.00000000000E+00 0.  1.
          1   -1    0    0  501    0  0.00000000000E+00 -0.00000000000E+00 -0.11726288912E+04  0.11726288912E+04  0.00000000000E+00 0. -1.
         23    2    1    2    0    0 -0.15584382444E+04 -0.51767993856E+03  0.32409061827E+03  0.16764330417E+04  0.93116776752E+02 0.  0.
         13    1    3    3    0    0 -0.76019741440E+03 -0.30106430479E+03  0.15424754570E+03  0.83206497933E+03  0.00000000000E+00 0.  1.
        -13    1    3    3    0    0 -0.79824083002E+03 -0.21661563378E+03  0.16984307258E+03  0.84436806240E+03  0.00000000000E+00 0. -1.
         22    1    1    2    0    0  0.15584382444E+04  0.51767993856E+03  0.86152427560E+03  0.18544396345E+04  0.00000000000E+00 0.  1.
<mgrwt>
<rscale>  0 0.33258652E+04</rscale>
<asrwt>0</asrwt>
<pdfrwt beam="1">  1        1 0.18040444E+00 0.33258652E+04</pdfrwt>
<pdfrwt beam="2">  1       -1 0.36280674E+00 0.33258652E+04</pdfrwt>
<totfact> 0.11822947E-01</totfact>
</mgrwt>
</event>
<event>
 6    1  0.1014650E-006  0.2769192E+04  0.7818608E-02  0.8312897E-01
         -1   -1    0    0    0  501 -0.00000000000E+00  0.00000000000E+00  0.80859757626E+03  0.80859757626E+03  0.00000000000E+00 0.  1.
          1   -1    0    0  501    0  0.00000000000E+00 -0.00000000000E+00 -0.23709031851E+04  0.23709031851E+04  0.00000000000E+00 0. -1.
         23    2    1    2    0    0  0.10571999161E+04 -0.89119007741E+03 -0.82850600509E+03  0.16141403316E+04  0.84471255116E+02 0.  0.
         11    1    3    3    0    0  0.87405740624E+03 -0.71013435541E+03 -0.70377321699E+03  0.13279924296E+04  0.00000000000E+00 0. -1.
        -11    1    3    3    0    0  0.18314250984E+03 -0.18105572200E+03 -0.12473278811E+03  0.28614790199E+03  0.00000000000E+00 0.  1.
         22    1    1    2    0    0 -0.10571999161E+04  0.89119007741E+03 -0.73379960375E+03  0.15653604298E+04  0.00000000000E+00 0. -1.
<mgrwt>
<rscale>  0 0.27691924E+04</rscale>
<asrwt>0</asrwt>
<pdfrwt beam="1">  1        1 0.36475434E+00 0.27691924E+04</pdfrwt>
<pdfrwt beam="2">  1       -1 0.12439963E+00 0.27691924E+04</pdfrwt>
<totfact> 0.81763511E-01</totfact>
</mgrwt>
</event>
<event>
 6    1  0.1014650E-006  0.3530299E+04  0.7818608E-02  0.8106647E-01
         -1   -1    0    0    0  501 -0.00000000000E+00  0.00000000000E+00  0.16233893778E+04  0.16233893778E+04  0.00000000000E+00 0.  1.
          1   -1    0    0  501    0  0.00000000000E+00 -0.00000000000E+00 -0.19192881423E+04  0.19192881423E+04  0.00000000000E+00 0. -1.
         23    2    1    2    0    0 -0.11383745180E+04  0.44898892260E+03 -0.14230701727E+04  0.18789458772E+04  0.88438097043E+02 0.  0.
         13    1    3    3    0    0 -0.14094555910E+03  0.42068660253E+02 -0.13353284029E+03  0.19866162751E+03  0.00000000000E+00 0. -1.
        -13    1    3    3    0    0 -0.99742895891E+03  0.40692026235E+03 -0.12895373324E+04  0.16802842497E+04  0.00000000000E+00 0.  1.
         22    1    1    2    0    0  0.11383745180E+04 -0.44898892260E+03  0.11271714083E+04  0.16637316429E+04  0.00000000000E+00 0.  1.
<mgrwt>
<rscale>  0 0.35302986E+04</rscale>
<asrwt>0</asrwt>
<pdfrwt beam="1">  1        1 0.29527510E+00 0.35302986E+04</pdfrwt>
<pdfrwt beam="2">  1       -1 0.24975221E+00 0.35302986E+04</pdfrwt>
<totfact> 0.19253229E-01</totfact>
</mgrwt>
</event>
<event>
 6    1  0.1014650E-006  0.2645924E+04  0.7818608E-02  0.8352767E-01
         -2   -1    0    0    0  501 -0.00000000000E+00  0.00000000000E+00  0.11815713155E+04  0.11815713155E+04  0.00000000000E+00 0.  1.
          2   -1    0    0  501    0  0.00000000000E+00 -0.00000000000E+00 -0.14812722810E+04  0.14812722810E+04  0.00000000000E+00 0. -1.
         23    2    1    2    0    0 -0.98761297614E+03  0.25870441848E+03  0.69423583813E+03  0.12379865031E+04  0.91322593794E+02 0.  0.
         13    1    3    3    0    0 -0.36366602687E+03  0.55982274816E+02  0.27598262592E+03  0.45994934939E+03  0.00000000000E+00 0. -1.
        -13    1    3    3    0    0 -0.62394694926E+03  0.20272214366E+03  0.41825321221E+03  0.77803715371E+03  0.00000000000E+00 0.  1.
         22    1    1    2    0    0  0.98761297614E+03 -0.25870441848E+03 -0.99393680363E+03  0.14248570933E+04  0.00000000000E+00 0. -1.
<mgrwt>
<rscale>  0 0.26459243E+04</rscale>
<asrwt>0</asrwt>
<pdfrwt beam="1">  1        2 0.22788804E+00 0.26459243E+04</pdfrwt>
<pdfrwt beam="2">  1       -2 0.18178020E+00 0.26459243E+04</pdfrwt>
<totfact> 0.20207678E+00</totfact>
</mgrwt>
</event>
<event>
 6    1  0.1014650E-006  0.7201900E+04  0.7818608E-02  0.7556964E-01
         -2   -1    0    0    0  501 -0.00000000000E+00  0.00000000000E+00  0.44831213067E+04  0.44831213067E+04  0.00000000000E+00 0.  1.
          2   -1    0    0  501    0  0.00000000000E+00 -0.00000000000E+00 -0.28923692024E+04  0.28923692024E+04  0.00000000000E+00 0. -1.
         23    2    1    2    0    0  0.10500220733E+04 -0.46815003028E+03 -0.26985961865E+04  0.29347451251E+04  0.92718748472E+02 0.  0.
         13    1    3    3    0    0  0.44993143939E+03 -0.16022258363E+03 -0.11878121193E+04  0.12802371683E+04  0.00000000000E+00 0. -1.
        -13    1    3    3    0    0  0.60009063390E+03 -0.30792744665E+03 -0.15107840673E+04  0.16545079568E+04  0.00000000000E+00 0.  1.
         22    1    1    2    0    0 -0.10500220733E+04  0.46815003028E+03  0.42893482908E+04  0.44407453840E+04  0.00000000000E+00 0.  1.
<mgrwt>
<rscale>  0 0.72019003E+04</rscale>
<asrwt>0</asrwt>
<pdfrwt beam="1">  1        2 0.44497988E+00 0.72019003E+04</pdfrwt>
<pdfrwt beam="2">  1       -2 0.68971097E+00 0.72019003E+04</pdfrwt>
<totfact> 0.31715057E-04</totfact>
</mgrwt>
</event>
<event>
 6    1  0.1014650E-006  0.2573654E+04  0.7818608E-02  0.8377206E-01
          2   -1    0    0  501    0  0.00000000000E+00  0.00000000000E+00  0.14463842566E+04  0.14463842566E+04  0.00000000000E+00 0. -1.
         -2   -1    0    0    0  501 -0.00000000000E+00 -0.00000000000E+00 -0.11448715836E+04  0.11448715836E+04  0.00000000000E+00 0.  1.
         23    2    1    2    0    0 -0.11983526434E+04  0.26259338198E+03 -0.23438072523E+03  0.12525302982E+04  0.94305256624E+02 0.  0.
         11    1    3    3    0    0 -0.52533395388E+03  0.10070566647E+03 -0.14764551875E+03  0.55490232795E+03  0.00000000000E+00 0.  1.
        -11    1    3    3    0    0 -0.67301868954E+03  0.16188771551E+03 -0.86735206484E+02  0.69762797030E+03  0.00000000000E+00 0. -1.
         22    1    1    2    0    0  0.11983526434E+04 -0.26259338198E+03  0.53589339828E+03  0.13387255419E+04  0.00000000000E+00 0.  1.
<mgrwt>
<rscale>  0 0.25736544E+04</rscale>
<asrwt>0</asrwt>
<pdfrwt beam="1">  1        2 0.22252066E+00 0.25736544E+04</pdfrwt>
<pdfrwt beam="2">  1       -2 0.17613409E+00 0.25736544E+04</pdfrwt>
<totfact> 0.23285798E+00</totfact>
</mgrwt>
</event>
<event>
 6    1  0.1014650E-006  0.4376710E+04  0.7818608E-02  0.7932584E-01
          2   -1    0    0  501    0  0.00000000000E+00  0.00000000000E+00  0.23197369972E+04  0.23197369972E+04  0.00000000000E+00 0. -1.
         -2   -1    0    0    0  501 -0.00000000000E+00 -0.00000000000E+00 -0.20644139462E+04  0.20644139462E+04  0.00000000000E+00 0.  1.
         23    2    1    2    0    0 -0.10936402268E+04 -0.10133782903E+04  0.17310031618E+04  0.22863863488E+04  0.90587442132E+02 0.  0.
         11    1    3    3    0    0 -0.78000302173E+03 -0.72490689528E+03  0.11722873400E+04  0.15837147244E+04  0.00000000000E+00 0.  1.
        -11    1    3    3    0    0 -0.31363720509E+03 -0.28847139501E+03  0.55871582183E+03  0.70267162439E+03  0.00000000000E+00 0. -1.
         22    1    1    2    0    0  0.10936402268E+04  0.10133782903E+04 -0.14756801108E+04  0.20977645946E+04  0.00000000000E+00 0.  1.
<mgrwt>
<rscale>  0 0.43767099E+04</rscale>
<asrwt>0</asrwt>
<pdfrwt beam="1">  1        2 0.35688262E+00 0.43767099E+04</pdfrwt>
<pdfrwt beam="2">  1       -2 0.31760215E+00 0.43767099E+04</pdfrwt>
<totfact> 0.83764586E-02</totfact>
</mgrwt>
</event>
<event>
 6    1  0.1014650E-006  0.4376065E+04  0.7818608E-02  0.7932701E-01
          2   -1    0    0  501    0  0.00000000000E+00  0.00000000000E+00  0.26183529038E+04  0.26183529038E+04  0.00000000000E+00 0. -1.
         -2   -1    0    0    0  501 -0.00000000000E+00 -0.00000000000E+00 -0.18284342579E+04  0.18284342579E+04  0.00000000000E+00 0.  1.
         23    2    1    2    0    0  0.63578475267E+03  0.97851816273E+03  0.22747011846E+04  0.25583223795E+04  0.95015112293E+02 0.  0.
         13    1    3    3    0    0  0.34951387743E+03  0.59919935943E+03  0.14205006601E+04  0.15808295127E+04  0.00000000000E+00 0.  1.
        -13    1    3    3    0    0  0.28627087525E+03  0.37931880330E+03  0.85420052455E+03  0.97749286683E+03  0.00000000000E+00 0. -1.
         22    1    1    2    0    0 -0.63578475267E+03 -0.97851816273E+03 -0.14847825386E+04  0.18884647822E+04  0.00000000000E+00 0.  1.
<mgrwt>
<rscale>  0 0.43760650E+04</rscale>
<asrwt>0</asrwt>
<pdfrwt beam="1">  1        2 0.40282352E+00 0.43760650E+04</pdfrwt>
<pdfrwt beam="2">  1       -2 0.28129758E+00 0.43760650E+04</pdfrwt>
<totfact> 0.93940555E-02</totfact>
</mgrwt>
</event>
<event>
 6    1  0.1014650E-006  0.3216965E+04  0.7818608E-02  0.8184351E-01
          1   -1    0    0  501    0  0.00000000000E+00  0.00000000000E+00  0.11881847204E+04  0.11881847204E+04  0.00000000000E+00 0. -1.
         -1   -1    0    0    0  501 -0.00000000000E+00 -0.00000000000E+00 -0.21774524251E+04  0.21774524251E+04  0.00000000000E+00 0.  1.
         23    2    1    2    0    0 -0.10239532495E+04 -0.33124716820E+03 -0.17438182640E+04  0.20512736150E+04  0.92824363440E+02 0.  0.
         11    1    3    3    0    0 -0.21619054978E+03 -0.11015578609E+03 -0.38109386145E+03  0.45178001533E+03  0.00000000000E+00 0. -1.
        -11    1    3    3    0    0 -0.80776269975E+03 -0.22109138211E+03 -0.13627244025E+04  0.15994935997E+04  0.00000000000E+00 0.  1.
         22    1    1    2    0    0  0.10239532495E+04  0.33124716820E+03  0.75455055930E+03  0.13143635305E+04  0.00000000000E+00 0. -1.
<mgrwt>
<rscale>  0 0.32169648E+04</rscale>
<asrwt>0</asrwt>
<pdfrwt beam="1">  1        1 0.18279765E+00 0.32169648E+04</pdfrwt>
<pdfrwt beam="2">  1       -1 0.33499268E+00 0.32169648E+04</pdfrwt>
<totfact> 0.17772307E-01</totfact>
</mgrwt>
</event>
<event>
 6    1  0.1014650E-006  0.2018598E+04  0.7818608E-02  0.8597974E-01
          2   -1    0    0  501    0  0.00000000000E+00  0.00000000000E+00  0.16681485277E+04  0.16681485277E+04  0.00000000000E+00 0. -1.
         -2   -1    0    0    0  501 -0.00000000000E+00 -0.00000000000E+00 -0.61066782092E+03  0.61066782092E+03  0.00000000000E+00 0.  1.
         23    2    1    2    0    0  0.65729156025E+03 -0.58679632418E+03 -0.20831407854E+02  0.88629376789E+03  0.93384014692E+02 0.  0.
         13    1    3    3    0    0  0.20827237438E+03 -0.20304915664E+03 -0.48960934156E+02  0.29496358253E+03  0.00000000000E+00 0.  1.
        -13    1    3    3    0    0  0.44901918587E+03 -0.38374716754E+03  0.28129526302E+02  0.59133018536E+03  0.00000000000E+00 0. -1.
         22    1    1    2    0    0 -0.65729156025E+03  0.58679632418E+03  0.10783121146E+04  0.13925225807E+04  0.00000000000E+00 0. -1.
<mgrwt>
<rscale>  0 0.20185982E+04</rscale>
<asrwt>0</asrwt>
<pdfrwt beam="1">  1        2 0.25663823E+00 0.20185982E+04</pdfrwt>
<pdfrwt beam="2">  1       -2 0.93948896E-01 0.20185982E+04</pdfrwt>
<totfact> 0.90653707E+00</totfact>
</mgrwt>
</event>
<event>
 6    1  0.1014650E-006  0.2130268E+04  0.7818608E-02  0.8548026E-01
          1   -1    0    0  501    0  0.00000000000E+00  0.00000000000E+00  0.13668703174E+04  0.13668703174E+04  0.00000000000E+00 0. -1.
         -1   -1    0    0    0  501 -0.00000000000E+00 -0.00000000000E+00 -0.83000615420E+03  0.83000615420E+03  0.00000000000E+00 0.  1.
         23    2    1    2    0    0 -0.54324350488E+03  0.72463768468E+02  0.12085127963E+04  0.13299990928E+04  0.89609735247E+02 0.  0.
         11    1    3    3    0    0 -0.12384897296E+03  0.35846489620E+02  0.36832516673E+03  0.39023962814E+03  0.00000000000E+00 0. -1.
        -11    1    3    3    0    0 -0.41939453191E+03  0.36617278848E+02  0.84018762959E+03  0.93975946467E+03  0.00000000000E+00 0.  1.
         22    1    1    2    0    0  0.54324350488E+03 -0.72463768468E+02 -0.67164863318E+03  0.86687737874E+03  0.00000000000E+00 0. -1.
<mgrwt>
<rscale>  0 0.21302683E+04</rscale>
<asrwt>0</asrwt>
<pdfrwt beam="1">  1        1 0.21028774E+00 0.21302683E+04</pdfrwt>
<pdfrwt beam="2">  1       -1 0.12769326E+00 0.21302683E+04</pdfrwt>
<totfact> 0.39457621E+00</totfact>
</mgrwt>
</event>
<event>
 6    1  0.1014650E-006  0.2108575E+04  0.7818608E-02  0.8557475E-01
          2   -1    0    0  501    0  0.00000000000E+00  0.00000000000E+00  0.14065962362E+04  0.14065962362E+04  0.00000000000E+00 0. -1.
         -2   -1    0    0    0  501 -0.00000000000E+00 -0.00000000000E+00 -0.79022146305E+03  0.79022146305E+03  0.00000000000E+00 0.  1.
         23    2    1    2    0    0  0.13334238068E+03  0.44156659533E+03  0.12937232561E+04  0.13773287023E+04  0.10272897472E+03 0.  0.
         13    1    3    3    0    0  0.31483910003E+02  0.17893677706E+03  0.64469327038E+03  0.66980521022E+03  0.00000000000E+00 0. -1.
        -13    1    3    3    0    0  0.10185847067E+03  0.26262981827E+03  0.64902998576E+03  0.70752349212E+03  0.00000000000E+00 0.  1.
         22    1    1    2    0    0 -0.13334238068E+03 -0.44156659533E+03 -0.67734848300E+03  0.81948899688E+03  0.00000000000E+00 0.  1.
<mgrwt>
<rscale>  0 0.21085754E+04</rscale>
<asrwt>0</asrwt>
<pdfrwt beam="1">  1        2 0.21639942E+00 0.21085754E+04</pdfrwt>
<pdfrwt beam="2">  1       -2 0.12157253E+00 0.21085754E+04</pdfrwt>
<totfact> 0.67921700E+00</totfact>
</mgrwt>
</event>
<event>
 6    1  0.1014650E-006  0.7868038E+04  0.7818608E-02  0.7493988E-01
          1   -1    0    0  501    0  0.00000000000E+00  0.00000000000E+00  0.33863194813E+04  0.33863194813E+04  0.00000000000E+00 0. -1.
         -1   -1    0    0    0  501 -0.00000000000E+00 -0.00000000000E+00 -0.45703026295E+04  0.45703026295E+04  0.00000000000E+00 0.  1.
         23    2    1    2    0    0  0.19762626588E+04 -0.25466119349E+04  0.16875320500E+04  0.36396270937E+04  0.90964377606E+02 0.  0.
         11    1    3    3    0    0  0.15187717162E+04 -0.19048970747E+04  0.13002918803E+04  0.27615320684E+04  0.00000000000E+00 0. -1.
        -11    1    3    3    0    0  0.45749094265E+03 -0.64171486022E+03  0.38724016973E+03  0.87809502531E+03  0.00000000000E+00 0.  1.
         22    1    1    2    0    0 -0.19762626588E+04  0.25466119349E+04 -0.28715151982E+04  0.43169950170E+04  0.00000000000E+00 0. -1.
<mgrwt>
<rscale>  0 0.78680378E+04</rscale>
<asrwt>0</asrwt>
<pdfrwt beam="1">  1        1 0.52097223E+00 0.78680378E+04</pdfrwt>
<pdfrwt beam="2">  1       -1 0.70312347E+00 0.78680378E+04</pdfrwt>
<totfact> 0.35898494E-05</totfact>
</mgrwt>
</event>
<event>
 6    1  0.1014650E-006  0.5786003E+04  0.7818608E-02  0.7717516E-01
          1   -1    0    0  501    0  0.00000000000E+00  0.00000000000E+00  0.28131662179E+04  0.28131662179E+04  0.00000000000E+00 0. -1.
         -1   -1    0    0    0  501 -0.00000000000E+00 -0.00000000000E+00 -0.29751022449E+04  0.29751022449E+04  0.00000000000E+00 0.  1.
         23    2    1    2    0    0  0.26949224448E+04 -0.71904610271E+03 -0.84665729843E+03  0.29162521849E+04  0.89799461059E+02 0.  0.
         13    1    3    3    0    0  0.45601673155E+03 -0.87746717486E+02 -0.14778072456E+03  0.48732934289E+03  0.00000000000E+00 0. -1.
        -13    1    3    3    0    0  0.22389057133E+04 -0.63129938522E+03 -0.69887657388E+03  0.24289228420E+04  0.00000000000E+00 0.  1.
         22    1    1    2    0    0 -0.26949224448E+04  0.71904610271E+03  0.68472127147E+03  0.28720162780E+04  0.00000000000E+00 0. -1.
<mgrwt>
<rscale>  0 0.57860028E+04</rscale>
<asrwt>0</asrwt>
<pdfrwt beam="1">  1        1 0.43279480E+00 0.57860028E+04</pdfrwt>
<pdfrwt beam="2">  1       -1 0.45770804E+00 0.57860028E+04</pdfrwt>
<totfact> 0.15928187E-03</totfact>
</mgrwt>
</event>
<event>
 6    1  0.1014650E-006  0.2664527E+04  0.7818608E-02  0.8346607E-01
         -2   -1    0    0    0  501 -0.00000000000E+00  0.00000000000E+00  0.15466458578E+04  0.15466458578E+04  0.00000000000E+00 0.  1.
          2   -1    0    0  501    0  0.00000000000E+00 -0.00000000000E+00 -0.11475969058E+04  0.11475969058E+04  0.00000000000E+00 0. -1.
         23    2    1    2    0    0  0.15646328463E+03  0.28943178601E+03  0.15035565569E+04  0.15417721275E+04  0.90152399614E+02 0.  0.
         11    1    3    3    0    0  0.10864758082E+03  0.16254377186E+03  0.10626294293E+04  0.10804656767E+04  0.00000000000E+00 0. -1.
        -11    1    3    3    0    0  0.47815703815E+02  0.12688801415E+03  0.44092712758E+03  0.46130645074E+03  0.00000000000E+00 0.  1.
         22    1    1    2    0    0 -0.15646328463E+03 -0.28943178601E+03 -0.11045076048E+04  0.11524706362E+04  0.00000000000E+00 0. -1.
<mgrwt>
<rscale>  0 0.26645270E+04</rscale>
<asrwt>0</asrwt>
<pdfrwt beam="1">  1        2 0.17655337E+00 0.26645270E+04</pdfrwt>
<pdfrwt beam="2">  1       -2 0.23794552E+00 0.26645270E+04</pdfrwt>
<totfact> 0.13671498E+00</totfact>
</mgrwt>
</event>
<event>
 6    1  0.1014650E-006  0.1266328E+04  0.7818608E-02  0.9056702E-01
         -1   -1    0    0    0  501 -0.00000000000E+00  0.00000000000E+00  0.48675718961E+03  0.48675718961E+03  0.00000000000E+00 0.  1.
          1   -1    0    0  501    0  0.00000000000E+00 -0.00000000000E+00 -0.82360767430E+03  0.82360767430E+03  0.00000000000E+00 0. -1.
         23    2    1    2    0    0  0.58766921655E+02 -0.17320100801E+03 -0.79297324836E+03  0.81893825107E+03  0.91657766664E+02 0.  0.
         13    1    3    3    0    0  0.24197833822E+02 -0.99324378429E+02 -0.25355144218E+03  0.27338471271E+03  0.00000000000E+00 0.  1.
        -13    1    3    3    0    0  0.34569087833E+02 -0.73876629584E+02 -0.53942180618E+03  0.54555353836E+03  0.00000000000E+00 0. -1.
         22    1    1    2    0    0 -0.58766921655E+02  0.17320100801E+03  0.45612276368E+03  0.49142661283E+03  0.00000000000E+00 0.  1.
<mgrwt>
<rscale>  0 0.12663285E+04</rscale>
<asrwt>0</asrwt>
<pdfrwt beam="1">  1        1 0.12670887E+00 0.12663285E+04</pdfrwt>
<pdfrwt beam="2">  1       -1 0.74885723E-01 0.12663285E+04</pdfrwt>
<totfact> 0.37276387E+01</totfact>
</mgrwt>
</event>
<event>
 6    1  0.1014650E-006  0.4932465E+03  0.7818608E-02  0.1015557E+00
          4   -1    0    0  501    0  0.00000000000E+00  0.00000000000E+00  0.59480626116E+03  0.59480626116E+03  0.00000000000E+00 0. -1.
         -4   -1    0    0    0  501 -0.00000000000E+00 -0.00000000000E+00 -0.10225685944E+03  0.10225685944E+03  0.00000000000E+00 0.  1.
         23    2    1    2    0    0  0.52040948374E+02  0.23042935241E+03  0.30749912574E+03  0.39698054630E+03  0.85040549431E+02 0.  0.
         11    1    3    3    0    0  0.21946938947E+02  0.16108974009E+03  0.26321144695E+03  0.30937329927E+03  0.00000000000E+00 0. -1.
        -11    1    3    3    0    0  0.30094009426E+02  0.69339612320E+02  0.44287678786E+02  0.87607247030E+02  0.00000000000E+00 0.  1.
         22    1    1    2    0    0 -0.52040948374E+02 -0.23042935241E+03  0.18505027598E+03  0.30008257430E+03  0.00000000000E+00 0.  1.
<mgrwt>
<rscale>  0 0.49324647E+03</rscale>
<asrwt>0</asrwt>
<pdfrwt beam="1">  1        4 0.91508653E-01 0.49324647E+03</pdfrwt>
<pdfrwt beam="2">  1       -4 0.15731825E-01 0.49324647E+03</pdfrwt>
<totfact> 0.70908048E+01</totfact>
</mgrwt>
</event>
<event>
 6    1  0.1014650E-006  0.1777530E+04  0.7818608E-02  0.8718341E-01
         -1   -1    0    0    0  501 -0.00000000000E+00  0.00000000000E+00  0.47662929382E+03  0.47662929382E+03  0.00000000000E+00 0.  1.
          1   -1    0    0  501    0  0.00000000000E+00 -0.00000000000E+00 -0.16572689084E+04  0.16572689084E+04  0.00000000000E+00 0. -1.
         23    2    1    2    0    0  0.12488422872E+03 -0.33931722659E+03 -0.15635310632E+04  0.16072691940E+04  0.89177495078E+02 0.  0.
         11    1    3    3    0    0  0.37789868582E+02 -0.19708905733E+03 -0.98202558791E+03  0.10023205206E+04  0.00000000000E+00 0. -1.
        -11    1    3    3    0    0  0.87094360135E+02 -0.14222816926E+03 -0.58150547529E+03  0.60494867343E+03  0.00000000000E+00 0.  1.
         22    1    1    2    0    0 -0.12488422872E+03  0.33931722659E+03  0.38289144863E+03  0.52662900820E+03  0.00000000000E+00 0.  1.
<mgrwt>
<rscale>  0 0.17775296E+04</rscale>
<asrwt>0</asrwt>
<pdfrwt beam="1">  1        1 0.25496444E+00 0.17775296E+04</pdfrwt>
<pdfrwt beam="2">  1       -1 0.73327585E-01 0.17775296E+04</pdfrwt>
<totfact> 0.90315147E+00</totfact>
</mgrwt>
</event>
<event>
 6    1  0.1014650E-006  0.2593338E+04  0.7818608E-02  0.8370468E-01
         -1   -1    0    0    0  501 -0.00000000000E+00  0.00000000000E+00  0.73343750258E+03  0.73343750258E+03  0.00000000000E+00 0.  1.
          1   -1    0    0  501    0  0.00000000000E+00 -0.00000000000E+00 -0.22924243383E+04  0.22924243383E+04  0.00000000000E+00 0. -1.
         23    2    1    2    0    0  0.11031657861E+04  0.67841813504E+03 -0.78083563827E+03  0.15149861995E+04  0.90845875360E+02 0.  0.
         13    1    3    3    0    0  0.76835996570E+03  0.48488947185E+03 -0.59394199060E+03  0.10854777404E+04  0.00000000000E+00 0. -1.
        -13    1    3    3    0    0  0.33480582041E+03  0.19352866319E+03 -0.18689364768E+03  0.42950845906E+03  0.00000000000E+00 0.  1.
         22    1    1    2    0    0 -0.11031657861E+04 -0.67841813504E+03 -0.77815119744E+03  0.15108756414E+04  0.00000000000E+00 0.  1.
<mgrwt>
<rscale>  0 0.25933376E+04</rscale>
<asrwt>0</asrwt>
<pdfrwt beam="1">  1        1 0.35268066E+00 0.25933376E+04</pdfrwt>
<pdfrwt beam="2">  1       -1 0.11283654E+00 0.25933376E+04</pdfrwt>
<totfact> 0.11919820E+00</totfact>
</mgrwt>
</event>
<event>
 6    1  0.1014650E-006  0.1824015E+04  0.7818608E-02  0.8693632E-01
          2   -1    0    0  501    0  0.00000000000E+00  0.00000000000E+00  0.15222462124E+04  0.15222462124E+04  0.00000000000E+00 0. -1.
         -2   -1    0    0    0  501 -0.00000000000E+00 -0.00000000000E+00 -0.54640176994E+03  0.54640176994E+03  0.00000000000E+00 0.  1.
         23    2    1    2    0    0 -0.59691869692E+03 -0.53760790143E+03  0.49106654222E+01  0.80847077821E+03  0.90921384543E+02 0.  0.
         11    1    3    3    0    0 -0.22410074598E+03 -0.15617021938E+03  0.28116541233E+02  0.27459210051E+03  0.00000000000E+00 0.  1.
        -11    1    3    3    0    0 -0.37281795094E+03 -0.38143768205E+03 -0.23205875811E+02  0.53387867770E+03  0.00000000000E+00 0. -1.
         22    1    1    2    0    0  0.59691869692E+03  0.53760790143E+03  0.97093377701E+03  0.12601772041E+04  0.00000000000E+00 0.  1.
<mgrwt>
<rscale>  0 0.18240154E+04</rscale>
<asrwt>0</asrwt>
<pdfrwt beam="1">  1        2 0.23419172E+00 0.18240154E+04</pdfrwt>
<pdfrwt beam="2">  1       -2 0.84061811E-01 0.18240154E+04</pdfrwt>
<totfact> 0.14359337E+01</totfact>
</mgrwt>
</event>
<event>
 6    1  0.1014650E-006  0.3651249E+04  0.7818608E-02  0.8078852E-01
         -2   -1    0    0    0  501 -0.00000000000E+00  0.00000000000E+00  0.16903686638E+04  0.16903686638E+04  0.00000000000E+00 0.  1.
          2   -1    0    0  501    0  0.00000000000E+00 -0.00000000000E+00 -0.19717032499E+04  0.19717032499E+04  0.00000000000E+00 0. -1.
         23    2    1    2    0    0  0.62971735565E+03  0.11169371763E+04 -0.14425176922E+04  0.19322052108E+04  0.92016741417E+02 0.  0.
         11    1    3    3    0    0  0.44534841613E+03  0.84832911976E+03 -0.10336040380E+04  0.14093739087E+04  0.00000000000E+00 0. -1.
        -11    1    3    3    0    0  0.18436893951E+03  0.26860805649E+03 -0.40891365422E+03  0.52283130212E+03  0.00000000000E+00 0.  1.
         22    1    1    2    0    0 -0.62971735565E+03 -0.11169371763E+04  0.11611831062E+04  0.17298667029E+04  0.00000000000E+00 0.  1.
<mgrwt>
<rscale>  0 0.36512493E+04</rscale>
<asrwt>0</asrwt>
<pdfrwt beam="1">  1        2 0.30333896E+00 0.36512493E+04</pdfrwt>
<pdfrwt beam="2">  1       -2 0.26005672E+00 0.36512493E+04</pdfrwt>
<totfact> 0.31348248E-01</totfact>
</mgrwt>
</event>
<event>
 6    1  0.1014650E-006  0.2581235E+04  0.7818608E-02  0.8374603E-01
         -1   -1    0    0    0  501 -0.00000000000E+00  0.00000000000E+00  0.11013998150E+04  0.11013998150E+04  0.00000000000E+00 0.  1.
          1   -1    0    0  501    0  0.00000000000E+00 -0.00000000000E+00 -0.15123426227E+04  0.15123426227E+04  0.00000000000E+00 0. -1.
         23    2    1    2    0    0  0.78874141718E+03  0.10114095635E+04 -0.76769531535E+02  0.12883239729E+04  0.93929601292E+02 0.  0.
         13    1    3    3    0    0  0.56422991912E+03  0.67597614698E+03 -0.85011955340E+02  0.88460510143E+03  0.00000000000E+00 0. -1.
        -13    1    3    3    0    0  0.22451149806E+03  0.33543341648E+03  0.82424238054E+01  0.40371887150E+03  0.00000000000E+00 0.  1.
         22    1    1    2    0    0 -0.78874141718E+03 -0.10114095635E+04 -0.33417327616E+03  0.13254184648E+04  0.00000000000E+00 0. -1.
<mgrwt>
<rscale>  0 0.25812353E+04</rscale>
<asrwt>0</asrwt>
<pdfrwt beam="1">  1        1 0.23266809E+00 0.25812353E+04</pdfrwt>
<pdfrwt beam="2">  1       -1 0.16944613E+00 0.25812353E+04</pdfrwt>
<totfact> 0.14055066E+00</totfact>
</mgrwt>
</event>
<event>
 6    1  0.1014650E-006  0.2817292E+04  0.7818608E-02  0.8297920E-01
          2   -1    0    0  501    0  0.00000000000E+00  0.00000000000E+00  0.37984340713E+04  0.37984340713E+04  0.00000000000E+00 0. -1.
         -2   -1    0    0    0  501 -0.00000000000E+00 -0.00000000000E+00 -0.52239530354E+03  0.52239530354E+03  0.00000000000E+00 0.  1.
         23    2    1    2    0    0 -0.10016270441E+04  0.40870047530E+03  0.25921395260E+03  0.11159074133E+04  0.88117353257E+02 0.  0.
         13    1    3    3    0    0 -0.49555486621E+03  0.19015573396E+03  0.17098479597E+03  0.55764650903E+03  0.00000000000E+00 0. -1.
        -13    1    3    3    0    0 -0.50607217788E+03  0.21854474134E+03  0.88229156631E+02  0.55826090430E+03  0.00000000000E+00 0.  1.
         22    1    1    2    0    0  0.10016270441E+04 -0.40870047530E+03  0.30168248151E+04  0.32049219615E+04  0.00000000000E+00 0. -1.
<mgrwt>
<rscale>  0 0.28172924E+04</rscale>
<asrwt>0</asrwt>
<pdfrwt beam="1">  1        2 0.58437445E+00 0.28172924E+04</pdfrwt>
<pdfrwt beam="2">  1       -2 0.80368511E-01 0.28172924E+04</pdfrwt>
<totfact> 0.58553459E-01</totfact>
</mgrwt>
</event>
<event>
 6    1  0.1014650E-006  0.2300690E+04  0.7818608E-02  0.8477649E-01
          2   -1    0    0  501    0  0.00000000000E+00  0.00000000000E+00  0.15406148418E+04  0.15406148418E+04  0.00000000000E+00 0. -1.
         -2   -1    0    0    0  501 -0.00000000000E+00 -0.00000000000E+00 -0.85893834029E+03  0.85893834029E+03  0.00000000000E+00 0.  1.
         23    2    1    2    0    0 -0.38178779695E+03  0.91809531501E+03  0.94066808151E+03  0.13720622732E+04  0.95065832796E+02 0.  0.
         13    1    3    3    0    0 -0.78300045959E+02  0.19989087779E+03  0.15198142334E+03  0.26303158225E+03  0.00000000000E+00 0.  1.
        -13    1    3    3    0    0 -0.30348775099E+03  0.71820443722E+03  0.78868665817E+03  0.11090306909E+04  0.00000000000E+00 0. -1.
         22    1    1    2    0    0  0.38178779695E+03 -0.91809531501E+03 -0.25899158002E+03  0.10274909089E+04  0.00000000000E+00 0.  1.
<mgrwt>
<rscale>  0 0.23006896E+04</rscale>
<asrwt>0</asrwt>
<pdfrwt beam="1">  1        2 0.23701767E+00 0.23006896E+04</pdfrwt>
<pdfrwt beam="2">  1       -2 0.13214436E+00 0.23006896E+04</pdfrwt>
<totfact> 0.45488882E+00</totfact>
</mgrwt>
</event>
<event>
 6    1  0.1014650E-006  0.2883363E+04  0.7818608E-02  0.8277845E-01
          1   -1    0    0  501    0  0.00000000000E+00  0.00000000000E+00  0.79092724715E+03  0.79092724715E+03  0.00000000000E+00 0. -1.
         -1   -1    0    0    0  501 -0.00000000000E+00 -0.00000000000E+00 -0.26278598828E+04  0.26278598828E+04  0.00000000000E+00 0.  1.
         23    2    1    2    0    0  0.11159811113E+04 -0.92912847700E+01 -0.19988125065E+04  0.22910880295E+04  0.91283919409E+02 0.  0.
         11    1    3    3    0    0  0.36759222682E+03 -0.11839967208E+02 -0.74675219545E+03  0.83240799579E+03  0.00000000000E+00 0.  1.
        -11    1    3    3    0    0  0.74838888444E+03  0.25486824382E+01 -0.12520603111E+04  0.14586800337E+04  0.00000000000E+00 0. -1.
         22    1    1    2    0    0 -0.11159811113E+04  0.92912847700E+01  0.16187987085E+03  0.11276991005E+04  0.00000000000E+00 0. -1.
<mgrwt>
<rscale>  0 0.28833633E+04</rscale>
<asrwt>0</asrwt>
<pdfrwt beam="1">  1        1 0.12168112E+00 0.28833633E+04</pdfrwt>
<pdfrwt beam="2">  1       -1 0.40428613E+00 0.28833633E+04</pdfrwt>
<totfact> 0.12934111E-01</totfact>
</mgrwt>
</event>
<event>
 6    1  0.1014650E-006  0.6111994E+03  0.7818608E-02  0.9882439E-01
         -1   -1    0    0    0  501 -0.00000000000E+00  0.00000000000E+00  0.65535653887E+02  0.65535653887E+02  0.00000000000E+00 0.  1.
          1   -1    0    0  501    0  0.00000000000E+00 -0.00000000000E+00 -0.14250439816E+04  0.14250439816E+04  0.00000000000E+00 0. -1.
         23    2    1    2    0    0  0.29386213174E+02  0.11503286463E+03 -0.13649543641E+04  0.13717277580E+04  0.66637200158E+02 0.  0.
         11    1    3    3    0    0  0.49397399152E+02  0.91786645927E+02 -0.97009820085E+03  0.97568202336E+03  0.00000000000E+00 0.  1.
        -11    1    3    3    0    0 -0.20011185979E+02  0.23246218698E+02 -0.39485616328E+03  0.39604573464E+03  0.00000000000E+00 0. -1.
         22    1    1    2    0    0 -0.29386213174E+02 -0.11503286463E+03  0.54460364205E+01  0.11885187748E+03  0.00000000000E+00 0.  1.
<mgrwt>
<rscale>  0 0.61119944E+03</rscale>
<asrwt>0</asrwt>
<pdfrwt beam="1">  1        1 0.21923754E+00 0.61119944E+03</pdfrwt>
<pdfrwt beam="2">  1       -1 0.10082408E-01 0.61119944E+03</pdfrwt>
<totfact> 0.47060705E+02</totfact>
</mgrwt>
</event>
<event>
 6    1  0.1014650E-006  0.2386901E+04  0.7818608E-02  0.8444424E-01
         -2   -1    0    0    0  501 -0.00000000000E+00  0.00000000000E+00  0.14488675344E+04  0.14488675344E+04  0.00000000000E+00 0.  1.
          2   -1    0    0  501    0  0.00000000000E+00 -0.00000000000E+00 -0.98306021367E+03  0.98306021367E+03  0.00000000000E+00 0. -1.
         23    2    1    2    0    0  0.25111337311E+03 -0.10010213341E+04 -0.37383412336E+03  0.11014769252E+04  0.91639661455E+02 0.  0.
         13    1    3    3    0    0  0.16688179183E+03 -0.50718044646E+03 -0.21928690481E+03  0.57720731487E+03  0.00000000000E+00 0.  1.
        -13    1    3    3    0    0  0.84231581276E+02 -0.49384088761E+03 -0.15454721855E+03  0.52426961033E+03  0.00000000000E+00 0. -1.
         22    1    1    2    0    0 -0.25111337311E+03  0.10010213341E+04  0.83964144404E+03  0.13304508228E+04  0.00000000000E+00 0.  1.
<mgrwt>
<rscale>  0 0.23869009E+04</rscale>
<asrwt>0</asrwt>
<pdfrwt beam="1">  1        2 0.15124003E+00 0.23869009E+04</pdfrwt>
<pdfrwt beam="2">  1       -2 0.22290270E+00 0.23869009E+04</pdfrwt>
<totfact> 0.22026437E+00</totfact>
</mgrwt>
</event>
<event>
 6    1  0.1014650E-006  0.3901722E+04  0.7818608E-02  0.8024671E-01
          1   -1    0    0  501    0  0.00000000000E+00  0.00000000000E+00  0.28682464355E+04  0.28682464355E+04  0.00000000000E+00 0. -1.
         -1   -1    0    0    0  501 -0.00000000000E+00 -0.00000000000E+00 -0.13268937405E+04  0.13268937405E+04  0.00000000000E+00 0.  1.
         23    2    1    2    0    0 -0.13876431339E+04 -0.86470194538E+03 -0.37111926504E+03  0.16790297016E+04  0.90267982402E+02 0.  0.
         13    1    3    3    0    0 -0.91197182409E+03 -0.57437802070E+03 -0.28801158869E+03  0.11155955333E+04  0.00000000000E+00 0.  1.
        -13    1    3    3    0    0 -0.47567130983E+03 -0.29032392467E+03 -0.83107676356E+02  0.56343416838E+03  0.00000000000E+00 0. -1.
         22    1    1    2    0    0  0.13876431339E+04  0.86470194538E+03  0.19124719600E+04  0.25161104744E+04  0.00000000000E+00 0. -1.
<mgrwt>
<rscale>  0 0.39017218E+04</rscale>
<asrwt>0</asrwt>
<pdfrwt beam="1">  1        1 0.44126868E+00 0.39017218E+04</pdfrwt>
<pdfrwt beam="2">  1       -1 0.20413750E+00 0.39017218E+04</pdfrwt>
<totfact> 0.82784884E-02</totfact>
</mgrwt>
</event>
<event>
 6    1  0.1014650E-006  0.1704541E+04  0.7818608E-02  0.8758778E-01
          2   -1    0    0  501    0  0.00000000000E+00  0.00000000000E+00  0.36824931552E+04  0.36824931552E+04  0.00000000000E+00 0. -1.
         -2   -1    0    0    0  501 -0.00000000000E+00 -0.00000000000E+00 -0.19724827335E+03  0.19724827335E+03  0.00000000000E+00 0.  1.
         23    2    1    2    0    0 -0.13539595392E+02 -0.23281651694E+03  0.36076058534E+04  0.36163803484E+04  0.94868224198E+02 0.  0.
         13    1    3    3    0    0 -0.93400263775E+01 -0.95662866119E+02  0.86088854124E+03  0.86623766975E+03  0.00000000000E+00 0.  1.
        -13    1    3    3    0    0 -0.41995690142E+01 -0.13715365082E+03  0.27467173121E+04  0.27501426787E+04  0.00000000000E+00 0. -1.
         22    1    1    2    0    0  0.13539595392E+02  0.23281651694E+03 -0.12236097149E+03  0.26336108017E+03  0.00000000000E+00 0.  1.
<mgrwt>
<rscale>  0 0.17045415E+04</rscale>
<asrwt>0</asrwt>
<pdfrwt beam="1">  1        2 0.56653736E+00 0.17045415E+04</pdfrwt>
<pdfrwt beam="2">  1       -2 0.30345891E-01 0.17045415E+04</pdfrwt>
<totfact> 0.58117050E+00</totfact>
</mgrwt>
</event>
<event>
 6    1  0.1014650E-006  0.3232446E+04  0.7818608E-02  0.8180300E-01
         -2   -1    0    0    0  501 -0.00000000000E+00  0.00000000000E+00  0.10820992585E+04  0.10820992585E+04  0.00000000000E+00 0.  1.
          2   -1    0    0  501    0  0.00000000000E+00 -0.00000000000E+00 -0.24139897400E+04  0.24139897400E+04  0.00000000000E+00 0. -1.
         23    2    1    2    0    0 -0.51157321930E+03 -0.13060602266E+04 -0.15321414364E+04  0.20791906539E+04  0.89866120416E+02 0.  0.
         11    1    3    3    0    0 -0.47394147583E+03 -0.11442647575E+04 -0.13743138214E+04  0.18500542797E+04  0.00000000000E+00 0. -1.
        -11    1    3    3    0    0 -0.37631743475E+02 -0.16179546906E+03 -0.15782761500E+03  0.22913637420E+03  0.00000000000E+00 0.  1.
         22    1    1    2    0    0  0.51157321930E+03  0.13060602266E+04  0.20025095496E+03  0.14168983447E+04  0.00000000000E+00 0.  1.
<mgrwt>
<rscale>  0 0.32324458E+04</rscale>
<asrwt>0</asrwt>
<pdfrwt beam="1">  1        2 0.37138303E+00 0.32324458E+04</pdfrwt>
<pdfrwt beam="2">  1       -2 0.16647681E+00 0.32324458E+04</pdfrwt>
<totfact> 0.74027617E-01</totfact>
</mgrwt>
</event>
<event>
 6    1  0.1014650E-006  0.5633740E+04  0.7818608E-02  0.7737550E-01
          1   -1    0    0  501    0  0.00000000000E+00  0.00000000000E+00  0.18331806478E+04  0.18331806478E+04  0.00000000000E+00 0. -1.
         -1   -1    0    0    0  501 -0.00000000000E+00 -0.00000000000E+00 -0.43284088827E+04  0.43284088827E+04  0.00000000000E+00 0.  1.
         23    2    1    2    0    0 -0.26240963743E+02 -0.11802296628E+04  0.15483934554E+04  0.19491665912E+04  0.89985899937E+02 0.  0.
         11    1    3    3    0    0 -0.53897741686E+02 -0.57114217783E+03  0.72092051358E+03  0.92132227844E+03  0.00000000000E+00 0. -1.
        -11    1    3    3    0    0  0.27656777943E+02 -0.60908748499E+03  0.82747294186E+03  0.10278443128E+04  0.00000000000E+00 0.  1.
         22    1    1    2    0    0  0.26240963743E+02  0.11802296628E+04 -0.40436216903E+04  0.42124229393E+04  0.00000000000E+00 0.  1.
<mgrwt>
<rscale>  0 0.56337396E+04</rscale>
<asrwt>0</asrwt>
<pdfrwt beam="1">  1        1 0.28202780E+00 0.56337396E+04</pdfrwt>
<pdfrwt beam="2">  1       -1 0.66590905E+00 0.56337396E+04</pdfrwt>
<totfact> 0.70230027E-04</totfact>
</mgrwt>
</event>
<event>
 6    1  0.1014650E-006  0.1732599E+04  0.7818608E-02  0.8742987E-01
          2   -1    0    0  501    0  0.00000000000E+00  0.00000000000E+00  0.34680722566E+04  0.34680722566E+04  0.00000000000E+00 0. -1.
         -2   -1    0    0    0  501 -0.00000000000E+00 -0.00000000000E+00 -0.21639536363E+03  0.21639536363E+03  0.00000000000E+00 0.  1.
         23    2    1    2    0    0 -0.18027810113E+03  0.83234542919E+03  0.19384405545E+04  0.21192555618E+04  0.91614658130E+02 0.  0.
         13    1    3    3    0    0 -0.17474786334E+03  0.65112396151E+03  0.15698448597E+04  0.17084824004E+04  0.00000000000E+00 0. -1.
        -13    1    3    3    0    0 -0.55302377890E+01  0.18122146768E+03  0.36859569480E+03  0.41077316137E+03  0.00000000000E+00 0.  1.
         22    1    1    2    0    0  0.18027810113E+03 -0.83234542919E+03  0.13132363385E+04  0.15652120585E+04  0.00000000000E+00 0.  1.
<mgrwt>
<rscale>  0 0.17325989E+04</rscale>
<asrwt>0</asrwt>
<pdfrwt beam="1">  1        2 0.53354954E+00 0.17325989E+04</pdfrwt>
<pdfrwt beam="2">  1       -2 0.33291597E-01 0.17325989E+04</pdfrwt>
<totfact> 0.69076155E+00</totfact>
</mgrwt>
</event>
<event>
 6    1  0.1014650E-006  0.3062896E+04  0.7818608E-02  0.8225995E-01
         -2   -1    0    0    0  501 -0.00000000000E+00  0.00000000000E+00  0.20596182197E+04  0.20596182197E+04  0.00000000000E+00 0.  1.
          2   -1    0    0  501    0  0.00000000000E+00 -0.00000000000E+00 -0.11387224084E+04  0.11387224084E+04  0.00000000000E+00 0. -1.
         23    2    1    2    0    0 -0.99465584846E+03 -0.97387568679E+03  0.11239464778E+04  0.17915699704E+04  0.93237136708E+02 0.  0.
         11    1    3    3    0    0 -0.54269109474E+03 -0.55370829235E+03  0.56974595538E+03  0.96214185597E+03  0.00000000000E+00 0. -1.
        -11    1    3    3    0    0 -0.45196475371E+03 -0.42016739444E+03  0.55420052240E+03  0.82942811441E+03  0.00000000000E+00 0.  1.
         22    1    1    2    0    0  0.99465584846E+03  0.97387568679E+03 -0.20305066642E+03  0.14067706577E+04  0.00000000000E+00 0. -1.
<mgrwt>
<rscale>  0 0.30628963E+04</rscale>
<asrwt>0</asrwt>
<pdfrwt beam="1">  1        2 0.17518806E+00 0.30628963E+04</pdfrwt>
<pdfrwt beam="2">  1       -2 0.31686434E+00 0.30628963E+04</pdfrwt>
<totfact> 0.43969200E-01</totfact>
</mgrwt>
</event>
<event>
 6    1  0.1014650E-006  0.2115960E+04  0.7818608E-02  0.8554245E-01
          4   -1    0    0  501    0  0.00000000000E+00  0.00000000000E+00  0.32696398280E+04  0.32696398280E+04  0.00000000000E+00 0. -1.
         -4   -1    0    0    0  501 -0.00000000000E+00 -0.00000000000E+00 -0.34233789489E+03  0.34233789489E+03  0.00000000000E+00 0.  1.
         23    2    1    2    0    0 -0.62533168811E+03 -0.35918099324E+03  0.14976943453E+03  0.74235449210E+03  0.92782554162E+02 0.  0.
         11    1    3    3    0    0 -0.86174998985E+02 -0.43348042296E+02  0.52966247772E+02  0.11004820137E+03  0.00000000000E+00 0. -1.
        -11    1    3    3    0    0 -0.53915668913E+03 -0.31583295094E+03  0.96803186757E+02  0.63230629073E+03  0.00000000000E+00 0.  1.
         22    1    1    2    0    0  0.62533168811E+03  0.35918099324E+03  0.27775324985E+04  0.28696232308E+04  0.00000000000E+00 0. -1.
<mgrwt>
<rscale>  0 0.21159599E+04</rscale>
<asrwt>0</asrwt>
<pdfrwt beam="1">  1        4 0.50302149E+00 0.21159599E+04</pdfrwt>
<pdfrwt beam="2">  1       -4 0.52667371E-01 0.21159599E+04</pdfrwt>
<totfact> 0.73197586E-03</totfact>
</mgrwt>
</event>
<event>
 6    1  0.1014650E-006  0.1775498E+04  0.7818608E-02  0.8719439E-01
         -1   -1    0    0    0  501 -0.00000000000E+00  0.00000000000E+00  0.63657371761E+03  0.63657371761E+03  0.00000000000E+00 0.  1.
          1   -1    0    0  501    0  0.00000000000E+00 -0.00000000000E+00 -0.12380309684E+04  0.12380309684E+04  0.00000000000E+00 0. -1.
         23    2    1    2    0    0  0.30249548400E+03 -0.29577210151E+03  0.51989980782E+03  0.67609464984E+03  0.88450616159E+02 0.  0.
         11    1    3    3    0    0  0.73127089462E+02 -0.12703861283E+03  0.15654900948E+03  0.21446205430E+03  0.00000000000E+00 0. -1.
        -11    1    3    3    0    0  0.22936839454E+03 -0.16873348867E+03  0.36335079834E+03  0.46163259555E+03  0.00000000000E+00 0.  1.
         22    1    1    2    0    0 -0.30249548400E+03  0.29577210151E+03 -0.11213570586E+04  0.11985100361E+04  0.00000000000E+00 0. -1.
<mgrwt>
<rscale>  0 0.17754976E+04</rscale>
<asrwt>0</asrwt>
<pdfrwt beam="1">  1        1 0.19046630E+00 0.17754976E+04</pdfrwt>
<pdfrwt beam="2">  1       -1 0.97934418E-01 0.17754976E+04</pdfrwt>
<totfact> 0.94763642E+00</totfact>
</mgrwt>
</event>
<event>
 6    1  0.1014650E-006  0.1488518E+04  0.7818608E-02  0.8892124E-01
         -2   -1    0    0    0  501 -0.00000000000E+00  0.00000000000E+00  0.75011241576E+03  0.75011241576E+03  0.00000000000E+00 0.  1.
          2   -1    0    0  501    0  0.00000000000E+00 -0.00000000000E+00 -0.73845145559E+03  0.73845145559E+03  0.00000000000E+00 0. -1.
         23    2    1    2    0    0  0.15996703763E+03  0.23489681342E+03  0.69085176691E+03  0.75231247540E+03  0.89061387396E+02 0.  0.
         13    1    3    3    0    0 -0.77175016337E+01  0.26585019923E+02  0.10002098537E+03  0.10378111885E+03  0.00000000000E+00 0. -1.
        -13    1    3    3    0    0  0.16768453926E+03  0.20831179349E+03  0.59083078154E+03  0.64853135655E+03  0.00000000000E+00 0.  1.
         22    1    1    2    0    0 -0.15996703763E+03 -0.23489681342E+03 -0.67919080673E+03  0.73625139595E+03  0.00000000000E+00 0. -1.
<mgrwt>
<rscale>  0 0.14885182E+04</rscale>
<asrwt>0</asrwt>
<pdfrwt beam="1">  1        2 0.11360792E+00 0.14885182E+04</pdfrwt>
<pdfrwt beam="2">  1       -2 0.11540191E+00 0.14885182E+04</pdfrwt>
<totfact> 0.21631202E+01</totfact>
</mgrwt>
</event>
<event>
 6    1  0.1014650E-006  0.2561992E+04  0.7818608E-02  0.8381228E-01
          2   -1    0    0  501    0  0.00000000000E+00  0.00000000000E+00  0.17777542137E+04  0.17777542137E+04  0.00000000000E+00 0. -1.
         -2   -1    0    0    0  501 -0.00000000000E+00 -0.00000000000E+00 -0.92304692258E+03  0.92304692258E+03  0.00000000000E+00 0.  1.
         23    2    1    2    0    0 -0.91781257809E+03  0.76256041383E+03 -0.58441533162E+02  0.11982303098E+04  0.91989941320E+02 0.  0.
         11    1    3    3    0    0 -0.50262810933E+03  0.41183633019E+03  0.13843232925E+02  0.64995062447E+03  0.00000000000E+00 0. -1.
        -11    1    3    3    0    0 -0.41518446875E+03  0.35072408365E+03 -0.72284766087E+02  0.54827968534E+03  0.00000000000E+00 0.  1.
         22    1    1    2    0    0  0.91781257809E+03 -0.76256041383E+03  0.91314882425E+03  0.15025708264E+04  0.00000000000E+00 0.  1.
<mgrwt>
<rscale>  0 0.25619918E+04</rscale>
<asrwt>0</asrwt>
<pdfrwt beam="1">  1        2 0.27350065E+00 0.25619918E+04</pdfrwt>
<pdfrwt beam="2">  1       -2 0.14200722E+00 0.25619918E+04</pdfrwt>
<totfact> 0.27266276E+00</totfact>
</mgrwt>
</event>
<event>
 6    1  0.1014650E-006  0.1831825E+04  0.7818608E-02  0.8689556E-01
         -2   -1    0    0    0  501 -0.00000000000E+00  0.00000000000E+00  0.69445409228E+03  0.69445409228E+03  0.00000000000E+00 0.  1.
          2   -1    0    0  501    0  0.00000000000E+00 -0.00000000000E+00 -0.12079928312E+04  0.12079928312E+04  0.00000000000E+00 0. -1.
         23    2    1    2    0    0  0.61945969420E+03  0.29792561581E+03  0.36721479724E+03  0.78521070104E+03  0.96016417429E+02 0.  0.
         13    1    3    3    0    0  0.12540038727E+03  0.31288016857E+02  0.10016271367E+03  0.16351381084E+03  0.00000000000E+00 0.  1.
        -13    1    3    3    0    0  0.49405930693E+03  0.26663759895E+03  0.26705208357E+03  0.62169689019E+03  0.00000000000E+00 0. -1.
         22    1    1    2    0    0 -0.61945969420E+03 -0.29792561581E+03 -0.88075353621E+03  0.11172362225E+04  0.00000000000E+00 0. -1.
<mgrwt>
<rscale>  0 0.18318248E+04</rscale>
<asrwt>0</asrwt>
<pdfrwt beam="1">  1        2 0.18584505E+00 0.18318248E+04</pdfrwt>
<pdfrwt beam="2">  1       -2 0.10683909E+00 0.18318248E+04</pdfrwt>
<totfact> 0.12438981E+01</totfact>
</mgrwt>
</event>
<event>
 6    1  0.1014650E-006  0.9310253E+03  0.7818608E-02  0.9387608E-01
         -1   -1    0    0    0  501 -0.00000000000E+00  0.00000000000E+00  0.16514054584E+03  0.16514054584E+03  0.00000000000E+00 0.  1.
          1   -1    0    0  501    0  0.00000000000E+00 -0.00000000000E+00 -0.13122278866E+04  0.13122278866E+04  0.00000000000E+00 0. -1.
         23    2    1    2    0    0 -0.11556188335E+03  0.44263298547E+03 -0.66902544258E+03  0.81568747670E+03  0.92046228121E+02 0.  0.
         13    1    3    3    0    0 -0.75091717864E+01  0.15255997612E+03 -0.17083592078E+03  0.22916336052E+03  0.00000000000E+00 0.  1.
        -13    1    3    3    0    0 -0.10805271156E+03  0.29007300935E+03 -0.49818952180E+03  0.58652411618E+03  0.00000000000E+00 0. -1.
         22    1    1    2    0    0  0.11556188335E+03 -0.44263298547E+03 -0.47806189818E+03  0.66168095575E+03  0.00000000000E+00 0.  1.
<mgrwt>
<rscale>  0 0.93102530E+03</rscale>
<asrwt>0</asrwt>
<pdfrwt beam="1">  1        1 0.20188122E+00 0.93102530E+03</pdfrwt>
<pdfrwt beam="2">  1       -1 0.25406236E-01 0.93102530E+03</pdfrwt>
<totfact> 0.12145653E+02</totfact>
</mgrwt>
</event>
<event>
 6    1  0.1014650E-006  0.3162971E+04  0.7818608E-02  0.8198665E-01
         -2   -1    0    0    0  501 -0.00000000000E+00  0.00000000000E+00  0.18243707661E+04  0.18243707661E+04  0.00000000000E+00 0.  1.
          2   -1    0    0  501    0  0.00000000000E+00 -0.00000000000E+00 -0.13709365564E+04  0.13709365564E+04  0.00000000000E+00 0. -1.
         23    2    1    2    0    0 -0.53530275788E+03 -0.13937532980E+04 -0.29653632051E+03  0.15245131717E+04  0.84316802418E+02 0.  0.
         11    1    3    3    0    0 -0.33157719354E+02 -0.14393158873E+03 -0.14817669054E+02  0.14844291800E+03  0.00000000000E+00 0. -1.
        -11    1    3    3    0    0 -0.50214503852E+03 -0.12498217092E+04 -0.28171865146E+03  0.13760702537E+04  0.00000000000E+00 0.  1.
         22    1    1    2    0    0  0.53530275788E+03  0.13937532980E+04  0.74997053016E+03  0.16707941508E+04  0.00000000000E+00 0.  1.
<mgrwt>
<rscale>  0 0.31629711E+04</rscale>
<asrwt>0</asrwt>
<pdfrwt beam="1">  1        2 0.21091332E+00 0.31629711E+04</pdfrwt>
<pdfrwt beam="2">  1       -2 0.28067243E+00 0.31629711E+04</pdfrwt>
<totfact> 0.52983370E-01</totfact>
</mgrwt>
</event>
<event>
 6    1  0.1014650E-006  0.3013074E+04  0.7818608E-02  0.8240007E-01
         -2   -1    0    0    0  501 -0.00000000000E+00  0.00000000000E+00  0.87965217572E+03  0.87965217572E+03  0.00000000000E+00 0.  1.
          2   -1    0    0  501    0  0.00000000000E+00 -0.00000000000E+00 -0.25801719819E+04  0.25801719819E+04  0.00000000000E+00 0. -1.
         23    2    1    2    0    0 -0.21394773380E+02 -0.88811698914E+03  0.54409211148E+03  0.10458042356E+04  0.91982339520E+02 0.  0.
         13    1    3    3    0    0  0.15805198993E+02 -0.25816185910E+03  0.11745563013E+03  0.28406544116E+03  0.00000000000E+00 0. -1.
        -13    1    3    3    0    0 -0.37199972374E+02 -0.62995513004E+03  0.42663648135E+03  0.76173879449E+03  0.00000000000E+00 0.  1.
         22    1    1    2    0    0  0.21394773380E+02  0.88811698914E+03 -0.22446119176E+04  0.24140199219E+04  0.00000000000E+00 0. -1.
<mgrwt>
<rscale>  0 0.30130741E+04</rscale>
<asrwt>0</asrwt>
<pdfrwt beam="1">  1        2 0.39694953E+00 0.30130741E+04</pdfrwt>
<pdfrwt beam="2">  1       -2 0.13533111E+00 0.30130741E+04</pdfrwt>
<totfact> 0.10476381E+00</totfact>
</mgrwt>
</event>
<event>
 6    1  0.1014650E-006  0.2204311E+04  0.7818608E-02  0.8516636E-01
          1   -1    0    0  501    0  0.00000000000E+00  0.00000000000E+00  0.94128259143E+03  0.94128259143E+03  0.00000000000E+00 0. -1.
         -1   -1    0    0    0  501 -0.00000000000E+00 -0.00000000000E+00 -0.12905228751E+04  0.12905228751E+04  0.00000000000E+00 0.  1.
         23    2    1    2    0    0  0.45527883746E+02 -0.94342280966E+03  0.39646185948E+03  0.10283973594E+04  0.91102891657E+02 0.  0.
         13    1    3    3    0    0 -0.14103277569E+02 -0.59318395157E+03  0.23599835490E+03  0.63856192053E+03  0.00000000000E+00 0.  1.
        -13    1    3    3    0    0  0.59631161315E+02 -0.35023885810E+03  0.16046350458E+03  0.38983543890E+03  0.00000000000E+00 0. -1.
         22    1    1    2    0    0 -0.45527883746E+02  0.94342280966E+03 -0.74570214319E+03  0.12034081071E+04  0.00000000000E+00 0.  1.
<mgrwt>
<rscale>  0 0.22043110E+04</rscale>
<asrwt>0</asrwt>
<pdfrwt beam="1">  1        1 0.14481271E+00 0.22043110E+04</pdfrwt>
<pdfrwt beam="2">  1       -1 0.19854198E+00 0.22043110E+04</pdfrwt>
<totfact> 0.23645727E+00</totfact>
</mgrwt>
</event>
<event>
 6    1  0.1026021E-006  0.2861657E+04  0.7818608E-02  0.8284378E-01
         -2   -1    0    0    0  501 -0.00000000000E+00  0.00000000000E+00  0.15301186820E+04  0.15301186820E+04  0.00000000000E+00 0.  1.
          2   -1    0    0  501    0  0.00000000000E+00 -0.00000000000E+00 -0.13379815175E+04  0.13379815175E+04  0.00000000000E+00 0. -1.
         23    2    1    2    0    0  0.30309332974E+03 -0.12558988041E+04  0.70958346365E+03  0.14763753541E+04  0.83833894500E+02 0.  0.
         13    1    3    3    0    0  0.22415059033E+03 -0.78593067109E+03  0.47389685819E+03  0.94472680661E+03  0.00000000000E+00 0. -1.
        -13    1    3    3    0    0  0.78942739408E+02 -0.46996813297E+03  0.23568660545E+03  0.53164854754E+03  0.00000000000E+00 0.  1.
         22    1    1    2    0    0 -0.30309332974E+03  0.12558988041E+04 -0.51744629917E+03  0.13917248453E+04  0.00000000000E+00 0. -1.
<mgrwt>
<rscale>  0 0.28616572E+04</rscale>
<asrwt>0</asrwt>
<pdfrwt beam="1">  1        2 0.20584331E+00 0.28616572E+04</pdfrwt>
<pdfrwt beam="2">  1       -2 0.23540288E+00 0.28616572E+04</pdfrwt>
<totfact> 0.10761146E+00</totfact>
</mgrwt>
</event>
<event>
 6    1  0.1014650E-006  0.9974151E+03  0.7818608E-02  0.9311384E-01
          1   -1    0    0  501    0  0.00000000000E+00  0.00000000000E+00  0.62950718791E+03  0.62950718791E+03  0.00000000000E+00 0. -1.
         -1   -1    0    0    0  501 -0.00000000000E+00 -0.00000000000E+00 -0.39508558836E+03  0.39508558836E+03  0.00000000000E+00 0.  1.
         23    2    1    2    0    0 -0.45540572065E+03 -0.32148786236E+02  0.31349606230E+03  0.56125630510E+03  0.91109516931E+02 0.  0.
         13    1    3    3    0    0 -0.20653093673E+03  0.26040191543E+02  0.16529052161E+03  0.26580834437E+03  0.00000000000E+00 0. -1.
        -13    1    3    3    0    0 -0.24887478393E+03 -0.58188977780E+02  0.14820554069E+03  0.29544796073E+03  0.00000000000E+00 0.  1.
         22    1    1    2    0    0  0.45540572065E+03  0.32148786236E+02 -0.79074462742E+02  0.46333647117E+03  0.00000000000E+00 0.  1.
<mgrwt>
<rscale>  0 0.99741509E+03</rscale>
<asrwt>0</asrwt>
<pdfrwt beam="1">  1        1 0.96847260E-01 0.99741509E+03</pdfrwt>
<pdfrwt beam="2">  1       -1 0.60782398E-01 0.99741509E+03</pdfrwt>
<totfact> 0.87912226E+01</totfact>
</mgrwt>
</event>
<event>
 6    1  0.1014650E-006  0.7110374E+03  0.7818608E-02  0.9698541E-01
          1   -1    0    0  501    0  0.00000000000E+00  0.00000000000E+00  0.37825579571E+03  0.37825579571E+03  0.00000000000E+00 0. -1.
         -1   -1    0    0    0  501 -0.00000000000E+00 -0.00000000000E+00 -0.33414830998E+03  0.33414830998E+03  0.00000000000E+00 0.  1.
         23    2    1    2    0    0  0.31956114083E+03  0.44518630272E+01  0.16416396336E+03  0.37100595158E+03  0.92501175315E+02 0.  0.
         13    1    3    3    0    0  0.30840674074E+03  0.24904379066E+02  0.15231049485E+03  0.34486726820E+03  0.00000000000E+00 0. -1.
        -13    1    3    3    0    0  0.11154400083E+02 -0.20452516038E+02  0.11853468505E+02  0.26138683385E+02  0.00000000000E+00 0.  1.
         22    1    1    2    0    0 -0.31956114083E+03 -0.44518630272E+01 -0.12005647762E+03  0.34139815411E+03  0.00000000000E+00 0.  1.
<mgrwt>
<rscale>  0 0.71103737E+03</rscale>
<asrwt>0</asrwt>
<pdfrwt beam="1">  1        1 0.58193199E-01 0.71103737E+03</pdfrwt>
<pdfrwt beam="2">  1       -1 0.51407432E-01 0.71103737E+03</pdfrwt>
<totfact> 0.24936113E+02</totfact>
</mgrwt>
</event>
<event>
 6    1  0.1014650E-006  0.4414299E+04  0.7818608E-02  0.7925815E-01
         -2   -1    0    0    0  501 -0.00000000000E+00  0.00000000000E+00  0.23527689983E+04  0.23527689983E+04  0.00000000000E+00 0.  1.
          2   -1    0    0  501    0  0.00000000000E+00 -0.00000000000E+00 -0.20705426551E+04  0.20705426551E+04  0.00000000000E+00 0. -1.
         23    2    1    2    0    0 -0.86262408000E+03  0.19811613675E+04 -0.30494946888E+03  0.21841385690E+04  0.91358867434E+02 0.  0.
         11    1    3    3    0    0 -0.67026964991E+03  0.15105103367E+04 -0.27044447779E+03  0.16745277234E+04  0.00000000000E+00 0.  1.
        -11    1    3    3    0    0 -0.19235443009E+03  0.47065103078E+03 -0.34504991091E+02  0.50961084561E+03  0.00000000000E+00 0. -1.
         22    1    1    2    0    0  0.86262408000E+03 -0.19811613675E+04  0.58717581209E+03  0.22391730844E+04  0.00000000000E+00 0.  1.
<mgrwt>
<rscale>  0 0.44142988E+04</rscale>
<asrwt>0</asrwt>
<pdfrwt beam="1">  1        2 0.31854503E+00 0.44142988E+04</pdfrwt>
<pdfrwt beam="2">  1       -2 0.36196446E+00 0.44142988E+04</pdfrwt>
<totfact> 0.60834299E-02</totfact>
</mgrwt>
</event>
<event>
 6    1  0.1014650E-006  0.1496451E+04  0.7818608E-02  0.8886817E-01
          2   -1    0    0  501    0  0.00000000000E+00  0.00000000000E+00  0.27554427572E+04  0.27554427572E+04  0.00000000000E+00 0. -1.
         -2   -1    0    0    0  501 -0.00000000000E+00 -0.00000000000E+00 -0.20317646551E+03  0.20317646551E+03  0.00000000000E+00 0.  1.
         23    2    1    2    0    0  0.50950637643E+03  0.23705785613E+03  0.31260676423E+03  0.64953542741E+03  0.91542927851E+02 0.  0.
         11    1    3    3    0    0  0.44559120442E+03  0.18420652561E+03  0.29335499243E+03  0.56439411506E+03  0.00000000000E+00 0.  1.
        -11    1    3    3    0    0  0.63915172019E+02  0.52851330518E+02  0.19251771805E+02  0.85141312354E+02  0.00000000000E+00 0. -1.
         22    1    1    2    0    0 -0.50950637643E+03 -0.23705785613E+03  0.22396595275E+04  0.23090837953E+04  0.00000000000E+00 0. -1.
<mgrwt>
<rscale>  0 0.14964506E+04</rscale>
<asrwt>0</asrwt>
<pdfrwt beam="1">  1        2 0.42391424E+00 0.14964506E+04</pdfrwt>
<pdfrwt beam="2">  1       -2 0.31257920E-01 0.14964506E+04</pdfrwt>
<totfact> 0.22684735E+01</totfact>
</mgrwt>
</event>
<event>
 6    1  0.1014650E-006  0.2598067E+04  0.7818608E-02  0.8368858E-01
          1   -1    0    0  501    0  0.00000000000E+00  0.00000000000E+00  0.17124301224E+04  0.17124301224E+04  0.00000000000E+00 0. -1.
         -1   -1    0    0    0  501 -0.00000000000E+00 -0.00000000000E+00 -0.98543449042E+03  0.98543449042E+03  0.00000000000E+00 0.  1.
         23    2    1    2    0    0 -0.41408984995E+03 -0.39676761361E+03 -0.84459750849E+03  0.10249031840E+04  0.90480065400E+02 0.  0.
         13    1    3    3    0    0 -0.69577627047E+02 -0.25744579134E+02 -0.10193170520E+03  0.12607101993E+03  0.00000000000E+00 0. -1.
        -13    1    3    3    0    0 -0.34451222290E+03 -0.37102303447E+03 -0.74266580329E+03  0.89883216410E+03  0.00000000000E+00 0.  1.
         22    1    1    2    0    0  0.41408984995E+03  0.39676761361E+03  0.15715931405E+04  0.16729614288E+04  0.00000000000E+00 0. -1.
<mgrwt>
<rscale>  0 0.25980667E+04</rscale>
<asrwt>0</asrwt>
<pdfrwt beam="1">  1        1 0.26345079E+00 0.25980667E+04</pdfrwt>
<pdfrwt beam="2">  1       -1 0.15160531E+00 0.25980667E+04</pdfrwt>
<totfact> 0.13956494E+00</totfact>
</mgrwt>
</event>
<event>
 6    1  0.1014650E-006  0.1659541E+04  0.7818608E-02  0.8784782E-01
          1   -1    0    0  501    0  0.00000000000E+00  0.00000000000E+00  0.18584480887E+04  0.18584480887E+04  0.00000000000E+00 0. -1.
         -1   -1    0    0    0  501 -0.00000000000E+00 -0.00000000000E+00 -0.37048078874E+03  0.37048078874E+03  0.00000000000E+00 0.  1.
         23    2    1    2    0    0 -0.23768441844E+03  0.48233146693E+03  0.15906196108E+04  0.16815030617E+04  0.90797982660E+02 0.  0.
         13    1    3    3    0    0 -0.18188355039E+03  0.35926522984E+03  0.13013710198E+04  0.13622480180E+04  0.00000000000E+00 0. -1.
        -13    1    3    3    0    0 -0.55800868052E+02  0.12306623709E+03  0.28924859098E+03  0.31925504377E+03  0.00000000000E+00 0.  1.
         22    1    1    2    0    0  0.23768441844E+03 -0.48233146693E+03 -0.10265231084E+03  0.54742581569E+03  0.00000000000E+00 0.  1.
<mgrwt>
<rscale>  0 0.16595413E+04</rscale>
<asrwt>0</asrwt>
<pdfrwt beam="1">  1        1 0.28591509E+00 0.16595413E+04</pdfrwt>
<pdfrwt beam="2">  1       -1 0.56997045E-01 0.16595413E+04</pdfrwt>
<totfact> 0.11065039E+01</totfact>
</mgrwt>
</event>
<event>
 6    1  0.1014650E-006  0.5563227E+03  0.7818608E-02  0.1000041E+00
         -2   -1    0    0    0  501 -0.00000000000E+00  0.00000000000E+00  0.69240145344E+02  0.69240145344E+02  0.00000000000E+00 0.  1.
          2   -1    0    0  501    0  0.00000000000E+00 -0.00000000000E+00 -0.11174693166E+04  0.11174693166E+04  0.00000000000E+00 0. -1.
         23    2    1    2    0    0  0.16334031551E+03 -0.14295951475E+03 -0.19462947471E+03  0.30594279393E+03  0.92751707291E+02 0.  0.
         13    1    3    3    0    0  0.53499177926E+02 -0.83405533230E+02 -0.13509033849E+03  0.16753520396E+03  0.00000000000E+00 0. -1.
        -13    1    3    3    0    0  0.10984113759E+03 -0.59553981520E+02 -0.59539136220E+02  0.13840758998E+03  0.00000000000E+00 0.  1.
         22    1    1    2    0    0 -0.16334031551E+03  0.14295951475E+03 -0.85359969654E+03  0.88076666800E+03  0.00000000000E+00 0. -1.
<mgrwt>
<rscale>  0 0.55632270E+03</rscale>
<asrwt>0</asrwt>
<pdfrwt beam="1">  1        2 0.17191834E+00 0.55632270E+03</pdfrwt>
<pdfrwt beam="2">  1       -2 0.10652331E-01 0.55632270E+03</pdfrwt>
<totfact> 0.13291179E+03</totfact>
</mgrwt>
</event>
<event>
 6    1  0.1014650E-006  0.3001858E+04  0.7818608E-02  0.8243200E-01
          2   -1    0    0  501    0  0.00000000000E+00  0.00000000000E+00  0.12663643961E+04  0.12663643961E+04  0.00000000000E+00 0. -1.
         -2   -1    0    0    0  501 -0.00000000000E+00 -0.00000000000E+00 -0.17789417437E+04  0.17789417437E+04  0.00000000000E+00 0.  1.
         23    2    1    2    0    0 -0.28657228839E+03 -0.11525260779E+04 -0.11853000842E+04  0.16803900556E+04  0.91293004129E+02 0.  0.
         13    1    3    3    0    0 -0.22946441257E+03 -0.74402630301E+03 -0.76796016855E+03  0.10936141352E+04  0.00000000000E+00 0. -1.
        -13    1    3    3    0    0 -0.57107875823E+02 -0.40849977486E+03 -0.41733991564E+03  0.58677592037E+03  0.00000000000E+00 0.  1.
         22    1    1    2    0    0  0.28657228839E+03  0.11525260779E+04  0.67272273660E+03  0.13649160842E+04  0.00000000000E+00 0. -1.
<mgrwt>
<rscale>  0 0.30018584E+04</rscale>
<asrwt>0</asrwt>
<pdfrwt beam="1">  1        2 0.19482529E+00 0.30018584E+04</pdfrwt>
<pdfrwt beam="2">  1       -2 0.27368335E+00 0.30018584E+04</pdfrwt>
<totfact> 0.68136945E-01</totfact>
</mgrwt>
</event>
<event>
 6    1  0.1014650E-006  0.1495882E+04  0.7818608E-02  0.8887196E-01
          2   -1    0    0  501    0  0.00000000000E+00  0.00000000000E+00  0.39227188821E+03  0.39227188821E+03  0.00000000000E+00 0. -1.
         -2   -1    0    0    0  501 -0.00000000000E+00 -0.00000000000E+00 -0.14260920366E+04  0.14260920366E+04  0.00000000000E+00 0.  1.
         23    2    1    2    0    0  0.43757718429E+03 -0.38017472040E+01 -0.12520571573E+04  0.13293694078E+04  0.89931372441E+02 0.  0.
         13    1    3    3    0    0  0.15557810323E+02  0.44376392821E+01 -0.14206366290E+02  0.21530419122E+02  0.00000000000E+00 0. -1.
        -13    1    3    3    0    0  0.42201937396E+03 -0.82393864861E+01 -0.12378507911E+04  0.13078389887E+04  0.00000000000E+00 0.  1.
         22    1    1    2    0    0 -0.43757718429E+03  0.38017472040E+01  0.21823700900E+03  0.48899451693E+03  0.00000000000E+00 0. -1.
<mgrwt>
<rscale>  0 0.14958821E+04</rscale>
<asrwt>0</asrwt>
<pdfrwt beam="1">  1        2 0.60349520E-01 0.14958821E+04</pdfrwt>
<pdfrwt beam="2">  1       -2 0.21939878E+00 0.14958821E+04</pdfrwt>
<totfact> 0.78289212E+00</totfact>
</mgrwt>
</event>
<event>
 6    1  0.1014650E-006  0.3109425E+04  0.7818608E-02  0.8213156E-01
          2   -1    0    0  501    0  0.00000000000E+00  0.00000000000E+00  0.90262076217E+03  0.90262076217E+03  0.00000000000E+00 0. -1.
         -2   -1    0    0    0  501 -0.00000000000E+00 -0.00000000000E+00 -0.26779022847E+04  0.26779022847E+04  0.00000000000E+00 0.  1.
         23    2    1    2    0    0  0.80159678960E+03 -0.12793135690E+04 -0.13095879176E+04  0.20006271153E+04  0.91036912595E+02 0.  0.
         11    1    3    3    0    0  0.72199660513E+03 -0.10951893976E+04 -0.11431882702E+04  0.17399995217E+04  0.00000000000E+00 0. -1.
        -11    1    3    3    0    0  0.79600184476E+02 -0.18412417145E+03 -0.16639964745E+03  0.26062759361E+03  0.00000000000E+00 0.  1.
         22    1    1    2    0    0 -0.80159678960E+03  0.12793135690E+04 -0.46569360491E+03  0.15798959316E+04  0.00000000000E+00 0. -1.
<mgrwt>
<rscale>  0 0.31094245E+04</rscale>
<asrwt>0</asrwt>
<pdfrwt beam="1">  1        2 0.13886473E+00 0.31094245E+04</pdfrwt>
<pdfrwt beam="2">  1       -2 0.41198497E+00 0.31094245E+04</pdfrwt>
<totfact> 0.15327097E-01</totfact>
</mgrwt>
</event>
<event>
 6    1  0.1014650E-006  0.1970672E+04  0.7818608E-02  0.8620456E-01
         -1   -1    0    0    0  501 -0.00000000000E+00  0.00000000000E+00  0.58430593208E+03  0.58430593208E+03  0.00000000000E+00 0.  1.
          1   -1    0    0  501    0  0.00000000000E+00 -0.00000000000E+00 -0.16616078133E+04  0.16616078133E+04  0.00000000000E+00 0. -1.
         23    2    1    2    0    0 -0.10122973763E+03 -0.41839831784E+03  0.46763999725E+03  0.64212135856E+03  0.91258204760E+02 0.  0.
         13    1    3    3    0    0  0.46087635372E+01 -0.30269453827E+02  0.87284324214E+01  0.31838122885E+02  0.00000000000E+00 0.  1.
        -13    1    3    3    0    0 -0.10583850117E+03 -0.38812886401E+03  0.45891156483E+03  0.61028323567E+03  0.00000000000E+00 0. -1.
         22    1    1    2    0    0  0.10122973763E+03  0.41839831784E+03 -0.15449418785E+04  0.16037923868E+04  0.00000000000E+00 0. -1.
<mgrwt>
<rscale>  0 0.19706723E+04</rscale>
<asrwt>0</asrwt>
<pdfrwt beam="1">  1        1 0.25563197E+00 0.19706723E+04</pdfrwt>
<pdfrwt beam="2">  1       -1 0.89893220E-01 0.19706723E+04</pdfrwt>
<totfact> 0.57018926E+00</totfact>
</mgrwt>
</event>
<event>
 6    1  0.1014650E-006  0.3296960E+04  0.7818608E-02  0.8163669E-01
         -1   -1    0    0    0  501 -0.00000000000E+00  0.00000000000E+00  0.14216931198E+04  0.14216931198E+04  0.00000000000E+00 0.  1.
          1   -1    0    0  501    0  0.00000000000E+00 -0.00000000000E+00 -0.19114431081E+04  0.19114431081E+04  0.00000000000E+00 0. -1.
         23    2    1    2    0    0  0.76602255195E+03  0.14577340153E+04 -0.20563595418E+03  0.16620587929E+04  0.91511070851E+02 0.  0.
         13    1    3    3    0    0  0.44901736091E+03  0.89134866986E+03 -0.16616445315E+03  0.10117952694E+04  0.00000000000E+00 0. -1.
        -13    1    3    3    0    0  0.31700519104E+03  0.56638534542E+03 -0.39471501027E+02  0.65026352354E+03  0.00000000000E+00 0.  1.
         22    1    1    2    0    0 -0.76602255195E+03 -0.14577340153E+04 -0.28411403415E+03  0.16710774350E+04  0.00000000000E+00 0.  1.
<mgrwt>
<rscale>  0 0.32969595E+04</rscale>
<asrwt>0</asrwt>
<pdfrwt beam="1">  1        1 0.29406817E+00 0.32969595E+04</pdfrwt>
<pdfrwt beam="2">  1       -1 0.21872202E+00 0.32969595E+04</pdfrwt>
<totfact> 0.31879520E-01</totfact>
</mgrwt>
</event>
<event>
 6    1  0.1014650E-006  0.3184815E+04  0.7818608E-02  0.8192839E-01
         -2   -1    0    0    0  501 -0.00000000000E+00  0.00000000000E+00  0.86846904332E+03  0.86846904332E+03  0.00000000000E+00 0.  1.
          2   -1    0    0  501    0  0.00000000000E+00 -0.00000000000E+00 -0.29198063882E+04  0.29198063882E+04  0.00000000000E+00 0. -1.
         23    2    1    2    0    0  0.10067752629E+04 -0.10934293542E+04 -0.17017271925E+04  0.22613794164E+04  0.93686949684E+02 0.  0.
         11    1    3    3    0    0  0.95016382646E+03 -0.10430339516E+04 -0.16416929485E+04  0.21646909383E+04  0.00000000000E+00 0. -1.
        -11    1    3    3    0    0  0.56611436407E+02 -0.50395402531E+02 -0.60034244013E+02  0.96688478024E+02  0.00000000000E+00 0.  1.
         22    1    1    2    0    0 -0.10067752629E+04  0.10934293542E+04 -0.34961015239E+03  0.15268960152E+04  0.00000000000E+00 0.  1.
<mgrwt>
<rscale>  0 0.31848149E+04</rscale>
<asrwt>0</asrwt>
<pdfrwt beam="1">  1        2 0.44920097E+00 0.31848149E+04</pdfrwt>
<pdfrwt beam="2">  1       -2 0.13361062E+00 0.31848149E+04</pdfrwt>
<totfact> 0.66669941E-01</totfact>
</mgrwt>
</event>
<event>
 6    1  0.1014650E-006  0.2827411E+04  0.7818608E-02  0.8294809E-01
          2   -1    0    0  501    0  0.00000000000E+00  0.00000000000E+00  0.22054835469E+04  0.22054835469E+04  0.00000000000E+00 0. -1.
         -2   -1    0    0    0  501 -0.00000000000E+00 -0.00000000000E+00 -0.90617886691E+03  0.90617886691E+03  0.00000000000E+00 0.  1.
         23    2    1    2    0    0  0.41553949742E+03  0.95779197506E+03  0.16971476773E+04  0.19943810742E+04  0.84894577449E+02 0.  0.
         11    1    3    3    0    0  0.20033477283E+03  0.54141769307E+03  0.88334099638E+03  0.10552527922E+04  0.00000000000E+00 0.  1.
        -11    1    3    3    0    0  0.21520472459E+03  0.41637428199E+03  0.81380668089E+03  0.93912828200E+03  0.00000000000E+00 0. -1.
         22    1    1    2    0    0 -0.41553949742E+03 -0.95779197506E+03 -0.39784299726E+03  0.11172813396E+04  0.00000000000E+00 0.  1.
<mgrwt>
<rscale>  0 0.28274105E+04</rscale>
<asrwt>0</asrwt>
<pdfrwt beam="1">  1        2 0.33930516E+00 0.28274105E+04</pdfrwt>
<pdfrwt beam="2">  1       -2 0.13941213E+00 0.28274105E+04</pdfrwt>
<totfact> 0.16163144E+00</totfact>
</mgrwt>
</event>
<event>
 6    1  0.1014650E-006  0.2403571E+04  0.7818608E-02  0.8438168E-01
          1   -1    0    0  501    0  0.00000000000E+00  0.00000000000E+00  0.26211853129E+04  0.26211853129E+04  0.00000000000E+00 0. -1.
         -1   -1    0    0    0  501 -0.00000000000E+00 -0.00000000000E+00 -0.55100570903E+03  0.55100570903E+03  0.00000000000E+00 0.  1.
         23    2    1    2    0    0  0.45602107101E+03  0.75503303326E+03 -0.37346811251E+02  0.88752525010E+03  0.90973549574E+02 0.  0.
         11    1    3    3    0    0  0.11423851755E+03  0.26263328351E+03 -0.31226516548E+02  0.28810028781E+03  0.00000000000E+00 0. -1.
        -11    1    3    3    0    0  0.34178255346E+03  0.49239974975E+03 -0.61202947031E+01  0.59942496229E+03  0.00000000000E+00 0.  1.
         22    1    1    2    0    0 -0.45602107101E+03 -0.75503303326E+03  0.21075264151E+04  0.22846657718E+04  0.00000000000E+00 0. -1.
<mgrwt>
<rscale>  0 0.24035707E+04</rscale>
<asrwt>0</asrwt>
<pdfrwt beam="1">  1        1 0.40325927E+00 0.24035707E+04</pdfrwt>
<pdfrwt beam="2">  1       -1 0.84770111E-01 0.24035707E+04</pdfrwt>
<totfact> 0.13754646E+00</totfact>
</mgrwt>
</event>
<event>
 6    1  0.1014650E-006  0.2129981E+04  0.7818608E-02  0.8548151E-01
          2   -1    0    0  501    0  0.00000000000E+00  0.00000000000E+00  0.54926253750E+03  0.54926253750E+03  0.00000000000E+00 0. -1.
         -2   -1    0    0    0  501 -0.00000000000E+00 -0.00000000000E+00 -0.20649583678E+04  0.20649583678E+04  0.00000000000E+00 0.  1.
         23    2    1    2    0    0  0.95331632180E+03  0.37714132598E+03 -0.41455424043E+03  0.11097075653E+04  0.92455790170E+02 0.  0.
         11    1    3    3    0    0  0.89336844987E+03  0.32964651880E+03 -0.37325249098E+03  0.10227861148E+04  0.00000000000E+00 0. -1.
        -11    1    3    3    0    0  0.59947871933E+02  0.47494807182E+02 -0.41301749450E+02  0.86921450553E+02  0.00000000000E+00 0.  1.
         22    1    1    2    0    0 -0.95331632180E+03 -0.37714132598E+03 -0.11011415899E+04  0.15045133399E+04  0.00000000000E+00 0.  1.
<mgrwt>
<rscale>  0 0.21299805E+04</rscale>
<asrwt>0</asrwt>
<pdfrwt beam="1">  1        2 0.84501930E-01 0.21299805E+04</pdfrwt>
<pdfrwt beam="2">  1       -2 0.31768590E+00 0.21299805E+04</pdfrwt>
<totfact> 0.12556941E+00</totfact>
</mgrwt>
</event>
<event>
 6    1  0.1014650E-006  0.1557144E+04  0.7818608E-02  0.8847317E-01
         -1   -1    0    0    0  501 -0.00000000000E+00  0.00000000000E+00  0.21466822931E+03  0.21466822931E+03  0.00000000000E+00 0.  1.
          1   -1    0    0  501    0  0.00000000000E+00 -0.00000000000E+00 -0.28237732016E+04  0.28237732016E+04  0.00000000000E+00 0. -1.
         23    2    1    2    0    0  0.41287935944E+03  0.10047207980E+03 -0.25756664867E+04  0.26121995552E+04  0.94681896381E+02 0.  0.
         13    1    3    3    0    0  0.22429403727E+03  0.23518565046E+02 -0.11331633988E+04  0.11553874790E+04  0.00000000000E+00 0. -1.
        -13    1    3    3    0    0  0.18858532217E+03  0.76953514751E+02 -0.14425030878E+04  0.14568120763E+04  0.00000000000E+00 0.  1.
         22    1    1    2    0    0 -0.41287935944E+03 -0.10047207980E+03 -0.33438485627E+02  0.42624187569E+03  0.00000000000E+00 0.  1.
<mgrwt>
<rscale>  0 0.15571440E+04</rscale>
<asrwt>0</asrwt>
<pdfrwt beam="1">  1        1 0.43442661E+00 0.15571440E+04</pdfrwt>
<pdfrwt beam="2">  1       -1 0.33025884E-01 0.15571440E+04</pdfrwt>
<totfact> 0.66708188E+00</totfact>
</mgrwt>
</event>
<event>
 6    1  0.1014650E-006  0.1022289E+04  0.7818608E-02  0.9284431E-01
          4   -1    0    0  501    0  0.00000000000E+00  0.00000000000E+00  0.16298073269E+03  0.16298073269E+03  0.00000000000E+00 0. -1.
         -4   -1    0    0    0  501 -0.00000000000E+00 -0.00000000000E+00 -0.16030658033E+04  0.16030658033E+04  0.00000000000E+00 0.  1.
         23    2    1    2    0    0 -0.47923665380E+03  0.14100109605E+02 -0.44700221361E+03  0.66328629717E+03  0.10134668026E+03 0.  0.
         11    1    3    3    0    0 -0.44546976831E+03 -0.14205352762E+00 -0.43969109062E+03  0.62591659974E+03  0.00000000000E+00 0. -1.
        -11    1    3    3    0    0 -0.33766885491E+02  0.14242163133E+02 -0.73111229880E+01  0.37369697428E+02  0.00000000000E+00 0.  1.
         22    1    1    2    0    0  0.47923665380E+03 -0.14100109605E+02 -0.99308285697E+03  0.11027602388E+04  0.00000000000E+00 0.  1.
<mgrwt>
<rscale>  0 0.10222893E+04</rscale>
<asrwt>0</asrwt>
<pdfrwt beam="1">  1        4 0.25073960E-01 0.10222893E+04</pdfrwt>
<pdfrwt beam="2">  1       -4 0.24662550E+00 0.10222893E+04</pdfrwt>
<totfact> 0.20139664E+00</totfact>
</mgrwt>
</event>
<event>
 6    1  0.1014650E-006  0.3351765E+04  0.7818608E-02  0.8149847E-01
          1   -1    0    0  501    0  0.00000000000E+00  0.00000000000E+00  0.14362350104E+04  0.14362350104E+04  0.00000000000E+00 0. -1.
         -1   -1    0    0    0  501 -0.00000000000E+00 -0.00000000000E+00 -0.19555171404E+04  0.19555171404E+04  0.00000000000E+00 0.  1.
         23    2    1    2    0    0  0.40407005453E+03 -0.15477302967E+04  0.24173694634E+03  0.16203426231E+04  0.91278610959E+02 0.  0.
         11    1    3    3    0    0  0.21603789517E+03 -0.99242943392E+03  0.16745763480E+03  0.10293836082E+04  0.00000000000E+00 0. -1.
        -11    1    3    3    0    0  0.18803215936E+03 -0.55530086276E+03  0.74279311540E+02  0.59095901487E+03  0.00000000000E+00 0.  1.
         22    1    1    2    0    0 -0.40407005453E+03  0.15477302967E+04 -0.76101907638E+03  0.17714095277E+04  0.00000000000E+00 0.  1.
<mgrwt>
<rscale>  0 0.33517650E+04</rscale>
<asrwt>0</asrwt>
<pdfrwt beam="1">  1        1 0.22095923E+00 0.33517650E+04</pdfrwt>
<pdfrwt beam="2">  1       -1 0.30084879E+00 0.33517650E+04</pdfrwt>
<totfact> 0.19515453E-01</totfact>
</mgrwt>
</event>
<event>
 6    1  0.1014650E-006  0.1621117E+04  0.7818608E-02  0.8807679E-01
          2   -1    0    0  501    0  0.00000000000E+00  0.00000000000E+00  0.21659582043E+04  0.21659582043E+04  0.00000000000E+00 0. -1.
         -2   -1    0    0    0  501 -0.00000000000E+00 -0.00000000000E+00 -0.30333244908E+03  0.30333244908E+03  0.00000000000E+00 0.  1.
         23    2    1    2    0    0  0.74833403174E+03  0.62898973852E+02  0.48087355715E+03  0.89664980410E+03  0.93709067067E+02 0.  0.
         13    1    3    3    0    0  0.10512754156E+03  0.35469165339E+02  0.95062453057E+02  0.14610520752E+03  0.00000000000E+00 0.  1.
        -13    1    3    3    0    0  0.64320649018E+03  0.27429808513E+02  0.38581110410E+03  0.75054459658E+03  0.00000000000E+00 0. -1.
         22    1    1    2    0    0 -0.74833403174E+03 -0.62898973852E+02  0.13817521981E+04  0.15726408493E+04  0.00000000000E+00 0. -1.
<mgrwt>
<rscale>  0 0.16211174E+04</rscale>
<asrwt>0</asrwt>
<pdfrwt beam="1">  1        2 0.33322433E+00 0.16211174E+04</pdfrwt>
<pdfrwt beam="2">  1       -2 0.46666532E-01 0.16211174E+04</pdfrwt>
<totfact> 0.22504137E+01</totfact>
</mgrwt>
</event>
<event>
 6    1  0.1014650E-006  0.1634564E+04  0.7818608E-02  0.8799591E-01
          2   -1    0    0  501    0  0.00000000000E+00  0.00000000000E+00  0.75112824801E+03  0.75112824801E+03  0.00000000000E+00 0. -1.
         -2   -1    0    0    0  501 -0.00000000000E+00 -0.00000000000E+00 -0.88926197700E+03  0.88926197700E+03  0.00000000000E+00 0.  1.
         23    2    1    2    0    0 -0.27231479780E+02 -0.79583726703E+03  0.10398638859E+03  0.80809180471E+03  0.90003815207E+02 0.  0.
         11    1    3    3    0    0 -0.35158203430E+02 -0.23920013825E+03  0.63266960210E+02  0.24991101149E+03  0.00000000000E+00 0. -1.
        -11    1    3    3    0    0  0.79267236504E+01 -0.55663712878E+03  0.40719428384E+02  0.55818079323E+03  0.00000000000E+00 0.  1.
         22    1    1    2    0    0  0.27231479780E+02  0.79583726703E+03 -0.24212011759E+03  0.83229842029E+03  0.00000000000E+00 0.  1.
<mgrwt>
<rscale>  0 0.16345639E+04</rscale>
<asrwt>0</asrwt>
<pdfrwt beam="1">  1        2 0.11555819E+00 0.16345639E+04</pdfrwt>
<pdfrwt beam="2">  1       -2 0.13680954E+00 0.16345639E+04</pdfrwt>
<totfact> 0.13643181E+01</totfact>
</mgrwt>
</event>
<event>
 6    1  0.1014650E-006  0.2532482E+04  0.7818608E-02  0.8391504E-01
         -1   -1    0    0    0  501 -0.00000000000E+00  0.00000000000E+00  0.58353747209E+03  0.58353747209E+03  0.00000000000E+00 0.  1.
          1   -1    0    0  501    0  0.00000000000E+00 -0.00000000000E+00 -0.27476671911E+04  0.27476671911E+04  0.00000000000E+00 0. -1.
         23    2    1    2    0    0 -0.29921282552E+03  0.45574393694E+03 -0.25843965450E+04  0.26428333563E+04  0.90729247747E+02 0.  0.
         13    1    3    3    0    0 -0.16141486408E+03  0.27563609328E+03 -0.17053158119E+04  0.17349732081E+04  0.00000000000E+00 0. -1.
        -13    1    3    3    0    0 -0.13779796143E+03  0.18010784366E+03 -0.87908073306E+03  0.90786014824E+03  0.00000000000E+00 0.  1.
         22    1    1    2    0    0  0.29921282552E+03 -0.45574393694E+03  0.42026682603E+03  0.68837130684E+03  0.00000000000E+00 0.  1.
<mgrwt>
<rscale>  0 0.25324824E+04</rscale>
<asrwt>0</asrwt>
<pdfrwt beam="1">  1        1 0.42271802E+00 0.25324824E+04</pdfrwt>
<pdfrwt beam="2">  1       -1 0.89774999E-01 0.25324824E+04</pdfrwt>
<totfact> 0.97679059E-01</totfact>
</mgrwt>
</event>
<event>
 6    1  0.1014650E-006  0.2255046E+04  0.7818608E-02  0.8495860E-01
          1   -1    0    0  501    0  0.00000000000E+00  0.00000000000E+00  0.57410628805E+03  0.57410628805E+03  0.00000000000E+00 0. -1.
         -1   -1    0    0    0  501 -0.00000000000E+00 -0.00000000000E+00 -0.22144117468E+04  0.22144117468E+04  0.00000000000E+00 0.  1.
         23    2    1    2    0    0 -0.22357310900E+03  0.34232008589E+02 -0.21850882229E+04  0.21986493838E+04  0.91059349719E+02 0.  0.
         11    1    3    3    0    0 -0.21332122107E+03  0.27487534127E+02 -0.17195463344E+04  0.17329457879E+04  0.00000000000E+00 0.  1.
        -11    1    3    3    0    0 -0.10251887937E+02  0.67444744615E+01 -0.46554188859E+03  0.46570359584E+03  0.00000000000E+00 0. -1.
         22    1    1    2    0    0  0.22357310900E+03 -0.34232008589E+02  0.54478276415E+03  0.58986865114E+03  0.00000000000E+00 0. -1.
<mgrwt>
<rscale>  0 0.22550456E+04</rscale>
<asrwt>0</asrwt>
<pdfrwt beam="1">  1        1 0.88324045E-01 0.22550456E+04</pdfrwt>
<pdfrwt beam="2">  1       -1 0.34067873E+00 0.22550456E+04</pdfrwt>
<totfact> 0.59343292E-01</totfact>
</mgrwt>
</event>
<event>
 6    1  0.1014650E-006  0.4058717E+04  0.7818608E-02  0.7992805E-01
          2   -1    0    0  501    0  0.00000000000E+00  0.00000000000E+00  0.20047940813E+04  0.20047940813E+04  0.00000000000E+00 0. -1.
         -2   -1    0    0    0  501 -0.00000000000E+00 -0.00000000000E+00 -0.20542243350E+04  0.20542243350E+04  0.00000000000E+00 0.  1.
         23    2    1    2    0    0 -0.68358363281E+03  0.62800253138E+03  0.17789551681E+04  0.20084899447E+04  0.87616239875E+02 0.  0.
         13    1    3    3    0    0 -0.33204139604E+03  0.36430030480E+03  0.93416874818E+03  0.10562374027E+04  0.00000000000E+00 0. -1.
        -13    1    3    3    0    0 -0.35154223677E+03  0.26370222658E+03  0.84478641987E+03  0.95225254200E+03  0.00000000000E+00 0.  1.
         22    1    1    2    0    0  0.68358363281E+03 -0.62800253138E+03 -0.18283854218E+04  0.20505284717E+04  0.00000000000E+00 0.  1.
<mgrwt>
<rscale>  0 0.40587174E+04</rscale>
<asrwt>0</asrwt>
<pdfrwt beam="1">  1        2 0.30842986E+00 0.40587174E+04</pdfrwt>
<pdfrwt beam="2">  1       -2 0.31603451E+00 0.40587174E+04</pdfrwt>
<totfact> 0.13207061E-01</totfact>
</mgrwt>
</event>
<event>
 6    1  0.1014650E-006  0.1297290E+04  0.7818608E-02  0.9031717E-01
          2   -1    0    0  501    0  0.00000000000E+00  0.00000000000E+00  0.26871286827E+03  0.26871286827E+03  0.00000000000E+00 0. -1.
         -2   -1    0    0    0  501 -0.00000000000E+00 -0.00000000000E+00 -0.15657612014E+04  0.15657612014E+04  0.00000000000E+00 0.  1.
         23    2    1    2    0    0  0.48734543511E+03 -0.39436973556E+03 -0.86898754023E+03  0.10753501642E+04  0.90584596156E+02 0.  0.
         11    1    3    3    0    0  0.15118579875E+03 -0.13401891674E+03 -0.35321238157E+03  0.40691178686E+03  0.00000000000E+00 0.  1.
        -11    1    3    3    0    0  0.33615963636E+03 -0.26035081883E+03 -0.51577515866E+03  0.66843837732E+03  0.00000000000E+00 0. -1.
         22    1    1    2    0    0 -0.48734543511E+03  0.39436973556E+03 -0.42806079286E+03  0.75912390546E+03  0.00000000000E+00 0. -1.
<mgrwt>
<rscale>  0 0.12972898E+04</rscale>
<asrwt>0</asrwt>
<pdfrwt beam="1">  1        2 0.41340441E-01 0.12972898E+04</pdfrwt>
<pdfrwt beam="2">  1       -2 0.24088634E+00 0.12972898E+04</pdfrwt>
<totfact> 0.89132900E+00</totfact>
</mgrwt>
</event>
<event>
 6    1  0.1014650E-006  0.6890495E+03  0.7818608E-02  0.9736144E-01
          2   -1    0    0  501    0  0.00000000000E+00  0.00000000000E+00  0.27551206798E+03  0.27551206798E+03  0.00000000000E+00 0. -1.
         -2   -1    0    0    0  501 -0.00000000000E+00 -0.00000000000E+00 -0.43082437900E+03  0.43082437900E+03  0.00000000000E+00 0.  1.
         23    2    1    2    0    0 -0.23809351329E+03  0.17197831892E+02  0.16696044983E+03  0.30528281106E+03  0.91310001818E+02 0.  0.
         11    1    3    3    0    0 -0.10034030734E+03  0.13417563063E+02  0.12577572424E+03  0.16145507451E+03  0.00000000000E+00 0. -1.
        -11    1    3    3    0    0 -0.13775320595E+03  0.37802688285E+01  0.41184725588E+02  0.14382773656E+03  0.00000000000E+00 0.  1.
         22    1    1    2    0    0  0.23809351329E+03 -0.17197831892E+02 -0.32227276085E+03  0.40105363591E+03  0.00000000000E+00 0.  1.
<mgrwt>
<rscale>  0 0.68904954E+03</rscale>
<asrwt>0</asrwt>
<pdfrwt beam="1">  1        2 0.42386472E-01 0.68904954E+03</pdfrwt>
<pdfrwt beam="2">  1       -2 0.66280674E-01 0.68904954E+03</pdfrwt>
<totfact> 0.25523173E+02</totfact>
</mgrwt>
</event>
<event>
 6    1  0.1014650E-006  0.6770651E+03  0.7818608E-02  0.9757278E-01
          1   -1    0    0  501    0  0.00000000000E+00  0.00000000000E+00  0.13720218705E+04  0.13720218705E+04  0.00000000000E+00 0. -1.
         -1   -1    0    0    0  501 -0.00000000000E+00 -0.00000000000E+00 -0.83529485190E+02  0.83529485190E+02  0.00000000000E+00 0.  1.
         23    2    1    2    0    0  0.24441487877E+03 -0.22526615933E+03  0.66371206550E+03  0.74785514719E+03  0.91050204714E+02 0.  0.
         11    1    3    3    0    0  0.13552923388E+03 -0.15235767022E+03  0.48606869729E+03  0.52710891796E+03  0.00000000000E+00 0.  1.
        -11    1    3    3    0    0  0.10888564489E+03 -0.72908489110E+02  0.17764336821E+03  0.22074622922E+03  0.00000000000E+00 0. -1.
         22    1    1    2    0    0 -0.24441487877E+03  0.22526615933E+03  0.62478031977E+03  0.70769620846E+03  0.00000000000E+00 0.  1.
<mgrwt>
<rscale>  0 0.67706508E+03</rscale>
<asrwt>0</asrwt>
<pdfrwt beam="1">  1        1 0.21108027E+00 0.67706508E+03</pdfrwt>
<pdfrwt beam="2">  1       -1 0.12850691E-01 0.67706508E+03</pdfrwt>
<totfact> 0.34656780E+02</totfact>
</mgrwt>
</event>
<event>
 6    1  0.1014650E-006  0.1498810E+04  0.7818608E-02  0.8885245E-01
         -1   -1    0    0    0  501 -0.00000000000E+00  0.00000000000E+00  0.23564192831E+03  0.23564192831E+03  0.00000000000E+00 0.  1.
          1   -1    0    0  501    0  0.00000000000E+00 -0.00000000000E+00 -0.23833099290E+04  0.23833099290E+04  0.00000000000E+00 0. -1.
         23    2    1    2    0    0  0.75037338621E+02 -0.72644809852E+03 -0.81102643188E+03  0.10958076995E+04  0.98352422687E+02 0.  0.
         11    1    3    3    0    0  0.79699804972E+01 -0.17431502577E+03 -0.13648853496E+03  0.22153638296E+03  0.00000000000E+00 0. -1.
        -11    1    3    3    0    0  0.67067358124E+02 -0.55213307274E+03 -0.67453789692E+03  0.87427131654E+03  0.00000000000E+00 0.  1.
         22    1    1    2    0    0 -0.75037338621E+02  0.72644809852E+03 -0.13366415688E+04  0.15231441578E+04  0.00000000000E+00 0. -1.
<mgrwt>
<rscale>  0 0.14988099E+04</rscale>
<asrwt>0</asrwt>
<pdfrwt beam="1">  1        1 0.36666309E+00 0.14988099E+04</pdfrwt>
<pdfrwt beam="2">  1       -1 0.36252602E-01 0.14988099E+04</pdfrwt>
<totfact> 0.11519227E+01</totfact>
</mgrwt>
</event>
<event>
 6    1  0.1014650E-006  0.1412845E+04  0.7818608E-02  0.8944573E-01
          1   -1    0    0  501    0  0.00000000000E+00  0.00000000000E+00  0.83736723559E+03  0.83736723559E+03  0.00000000000E+00 0. -1.
         -1   -1    0    0    0  501 -0.00000000000E+00 -0.00000000000E+00 -0.59595454506E+03  0.59595454506E+03  0.00000000000E+00 0.  1.
         23    2    1    2    0    0 -0.28813594252E+03 -0.95580848459E+01  0.77217449048E+03  0.82931700695E+03  0.91649200236E+02 0.  0.
         13    1    3    3    0    0 -0.45635276236E+02  0.24300665679E+02  0.81409849691E+02  0.96439952387E+02  0.00000000000E+00 0.  1.
        -13    1    3    3    0    0 -0.24250066628E+03 -0.33858750525E+02  0.69076464079E+03  0.73287705456E+03  0.00000000000E+00 0. -1.
         22    1    1    2    0    0  0.28813594252E+03  0.95580848459E+01 -0.53076179996E+03  0.60400477370E+03  0.00000000000E+00 0.  1.
<mgrwt>
<rscale>  0 0.14128451E+04</rscale>
<asrwt>0</asrwt>
<pdfrwt beam="1">  1        1 0.12882573E+00 0.14128451E+04</pdfrwt>
<pdfrwt beam="2">  1       -1 0.91685315E-01 0.14128451E+04</pdfrwt>
<totfact> 0.23189901E+01</totfact>
</mgrwt>
</event>
<event>
 6    1  0.1014650E-006  0.4294960E+04  0.7818608E-02  0.7947551E-01
          2   -1    0    0  501    0  0.00000000000E+00  0.00000000000E+00  0.24801001239E+04  0.24801001239E+04  0.00000000000E+00 0. -1.
         -2   -1    0    0    0  501 -0.00000000000E+00 -0.00000000000E+00 -0.18594695684E+04  0.18594695684E+04  0.00000000000E+00 0.  1.
         23    2    1    2    0    0 -0.86450098876E+03 -0.18125207287E+04  0.10759021694E+04  0.22804763011E+04  0.10204572578E+03 0.  0.
         13    1    3    3    0    0 -0.43892083000E+03 -0.80234491197E+03  0.49210619525E+03  0.10385457911E+04  0.00000000000E+00 0.  1.
        -13    1    3    3    0    0 -0.42558015875E+03 -0.10101758167E+04  0.58379597411E+03  0.12419305100E+04  0.00000000000E+00 0. -1.
         22    1    1    2    0    0  0.86450098876E+03  0.18125207287E+04 -0.45527161386E+03  0.20590933913E+04  0.00000000000E+00 0.  1.
<mgrwt>
<rscale>  0 0.42949602E+04</rscale>
<asrwt>0</asrwt>
<pdfrwt beam="1">  1        2 0.38155387E+00 0.42949602E+04</pdfrwt>
<pdfrwt beam="2">  1       -2 0.28607224E+00 0.42949602E+04</pdfrwt>
<totfact> 0.10648685E-01</totfact>
</mgrwt>
</event>
<event>
 6    1  0.1014650E-006  0.8130728E+03  0.7818608E-02  0.9541285E-01
          2   -1    0    0  501    0  0.00000000000E+00  0.00000000000E+00  0.79484732298E+02  0.79484732298E+02  0.00000000000E+00 0. -1.
         -2   -1    0    0    0  501 -0.00000000000E+00 -0.00000000000E+00 -0.20792905941E+04  0.20792905941E+04  0.00000000000E+00 0.  1.
         23    2    1    2    0    0 -0.11050362050E+03  0.67604165945E+02 -0.20212894176E+04  0.20274630400E+04  0.90631647015E+02 0.  0.
         11    1    3    3    0    0 -0.14140753382E+02  0.58152534090E+02 -0.90852926689E+03  0.91049827398E+03  0.00000000000E+00 0.  1.
        -11    1    3    3    0    0 -0.96362867122E+02  0.94516318544E+01 -0.11127601507E+04  0.11169647660E+04  0.00000000000E+00 0. -1.
         22    1    1    2    0    0  0.11050362050E+03 -0.67604165945E+02  0.21483555776E+02  0.13131228643E+03  0.00000000000E+00 0. -1.
<mgrwt>
<rscale>  0 0.81307283E+03</rscale>
<asrwt>0</asrwt>
<pdfrwt beam="1">  1        2 0.12228419E-01 0.81307283E+03</pdfrwt>
<pdfrwt beam="2">  1       -2 0.31989088E+00 0.81307283E+03</pdfrwt>
<totfact> 0.12852872E+01</totfact>
</mgrwt>
</event>
<event>
 6    1  0.1014650E-006  0.2255985E+04  0.7818608E-02  0.8495481E-01
         -1   -1    0    0    0  501 -0.00000000000E+00  0.00000000000E+00  0.53524006321E+03  0.53524006321E+03  0.00000000000E+00 0.  1.
          1   -1    0    0  501    0  0.00000000000E+00 -0.00000000000E+00 -0.23771899040E+04  0.23771899040E+04  0.00000000000E+00 0. -1.
         23    2    1    2    0    0 -0.47246285846E+03  0.10213401314E+04 -0.87168917313E+03  0.14265758089E+04  0.94444201392E+02 0.  0.
         13    1    3    3    0    0 -0.19903978323E+03  0.45715107121E+03 -0.32894443952E+03  0.59733439673E+03  0.00000000000E+00 0.  1.
        -13    1    3    3    0    0 -0.27342307523E+03  0.56418906021E+03 -0.54274473361E+03  0.82924141213E+03  0.00000000000E+00 0. -1.
         22    1    1    2    0    0  0.47246285846E+03 -0.10213401314E+04 -0.97026066764E+03  0.14858541583E+04  0.00000000000E+00 0. -1.
<mgrwt>
<rscale>  0 0.22559852E+04</rscale>
<asrwt>0</asrwt>
<pdfrwt beam="1">  1        1 0.36572151E+00 0.22559852E+04</pdfrwt>
<pdfrwt beam="2">  1       -1 0.82344627E-01 0.22559852E+04</pdfrwt>
<totfact> 0.21912038E+00</totfact>
</mgrwt>
</event>
<event>
 6    1  0.1014650E-006  0.5847617E+04  0.7818608E-02  0.7709588E-01
         -2   -1    0    0    0  501 -0.00000000000E+00  0.00000000000E+00  0.24709913951E+04  0.24709913951E+04  0.00000000000E+00 0.  1.
          2   -1    0    0  501    0  0.00000000000E+00 -0.00000000000E+00 -0.34596053868E+04  0.34596053868E+04  0.00000000000E+00 0. -1.
         23    2    1    2    0    0  0.13773664127E+04  0.25110451082E+04  0.98823435863E+02  0.28671010777E+04  0.89536292025E+02 0.  0.
         11    1    3    3    0    0  0.42007354560E+03  0.73872744709E+03  0.68134504726E+02  0.85253875896E+03  0.00000000000E+00 0.  1.
        -11    1    3    3    0    0  0.95729286715E+03  0.17723176611E+04  0.30688931137E+02  0.20145623187E+04  0.00000000000E+00 0. -1.
         22    1    1    2    0    0 -0.13773664127E+04 -0.25110451082E+04 -0.10874374275E+04  0.30634957042E+04  0.00000000000E+00 0. -1.
<mgrwt>
<rscale>  0 0.58476167E+04</rscale>
<asrwt>0</asrwt>
<pdfrwt beam="1">  1        2 0.53224698E+00 0.58476167E+04</pdfrwt>
<pdfrwt beam="2">  1       -2 0.38015252E+00 0.58476167E+04</pdfrwt>
<totfact> 0.58938200E-03</totfact>
</mgrwt>
</event>
<event>
 6    1  0.1014650E-006  0.1982952E+04  0.7818608E-02  0.8614633E-01
         -2   -1    0    0    0  501 -0.00000000000E+00  0.00000000000E+00  0.38984134489E+03  0.38984134489E+03  0.00000000000E+00 0.  1.
          2   -1    0    0  501    0  0.00000000000E+00 -0.00000000000E+00 -0.25216012478E+04  0.25216012478E+04  0.00000000000E+00 0. -1.
         23    2    1    2    0    0  0.47679568344E+03  0.61683144412E+03 -0.19621224478E+04  0.21135754231E+04  0.97269803834E+02 0.  0.
         11    1    3    3    0    0  0.10520355117E+03  0.16941476003E+03 -0.40640940152E+03  0.45270050777E+03  0.00000000000E+00 0. -1.
        -11    1    3    3    0    0  0.37159213227E+03  0.44741668409E+03 -0.15557130463E+04  0.16608749153E+04  0.00000000000E+00 0.  1.
         22    1    1    2    0    0 -0.47679568344E+03 -0.61683144412E+03 -0.16963745515E+03  0.79786716964E+03  0.00000000000E+00 0.  1.
<mgrwt>
<rscale>  0 0.19829518E+04</rscale>
<asrwt>0</asrwt>
<pdfrwt beam="1">  1        2 0.38793867E+00 0.19829518E+04</pdfrwt>
<pdfrwt beam="2">  1       -2 0.59975589E-01 0.19829518E+04</pdfrwt>
<totfact> 0.81613243E+00</totfact>
</mgrwt>
</event>
<event>
 6    1  0.2558462E-006  0.3753850E+04  0.7818608E-02  0.8056132E-01
          2   -1    0    0  501    0  0.00000000000E+00  0.00000000000E+00  0.23124376229E+04  0.23124376229E+04  0.00000000000E+00 0. -1.
         -2   -1    0    0    0  501 -0.00000000000E+00 -0.00000000000E+00 -0.15234346666E+04  0.15234346666E+04  0.00000000000E+00 0.  1.
         23    2    1    2    0    0  0.41828755845E+03 -0.14240830414E+04 -0.77741394550E+03  0.16779476150E+04  0.90325885651E+02 0.  0.
         11    1    3    3    0    0  0.29729443373E+03 -0.10475953816E+04 -0.61332834044E+03  0.12498046715E+04  0.00000000000E+00 0. -1.
        -11    1    3    3    0    0  0.12099312472E+03 -0.37648765987E+03 -0.16408560506E+03  0.42814294348E+03  0.00000000000E+00 0.  1.
         22    1    1    2    0    0 -0.41828755845E+03  0.14240830414E+04  0.15664169018E+04  0.21579246745E+04  0.00000000000E+00 0. -1.
<mgrwt>
<rscale>  0 0.37538501E+04</rscale>
<asrwt>0</asrwt>
<pdfrwt beam="1">  1        2 0.35575963E+00 0.37538501E+04</pdfrwt>
<pdfrwt beam="2">  1       -2 0.23437456E+00 0.37538501E+04</pdfrwt>
<totfact> 0.28822885E-01</totfact>
</mgrwt>
</event>
<event>
 6    1  0.1014650E-006  0.2117909E+04  0.7818608E-02  0.8553395E-01
          1   -1    0    0  501    0  0.00000000000E+00  0.00000000000E+00  0.15872669876E+04  0.15872669876E+04  0.00000000000E+00 0. -1.
         -1   -1    0    0    0  501 -0.00000000000E+00 -0.00000000000E+00 -0.70648804926E+03  0.70648804926E+03  0.00000000000E+00 0.  1.
         23    2    1    2    0    0 -0.65003757614E+03 -0.82703350766E+03  0.32914959654E+03  0.11059721426E+04  0.91113391402E+02 0.  0.
         11    1    3    3    0    0 -0.54195150690E+03 -0.68380849929E+03  0.30801518197E+03  0.92529933095E+03  0.00000000000E+00 0.  1.
        -11    1    3    3    0    0 -0.10808606924E+03 -0.14322500837E+03  0.21134414572E+02  0.18067281164E+03  0.00000000000E+00 0. -1.
         22    1    1    2    0    0  0.65003757614E+03  0.82703350766E+03  0.55162934179E+03  0.11877828943E+04  0.00000000000E+00 0. -1.
<mgrwt>
<rscale>  0 0.21179095E+04</rscale>
<asrwt>0</asrwt>
<pdfrwt beam="1">  1        1 0.24419492E+00 0.21179095E+04</pdfrwt>
<pdfrwt beam="2">  1       -1 0.10869047E+00 0.21179095E+04</pdfrwt>
<totfact> 0.41044687E+00</totfact>
</mgrwt>
</event>
<event>
 6    1  0.1014650E-006  0.2657160E+04  0.7818608E-02  0.8349040E-01
          2   -1    0    0  501    0  0.00000000000E+00  0.00000000000E+00  0.12790595842E+04  0.12790595842E+04  0.00000000000E+00 0. -1.
         -2   -1    0    0    0  501 -0.00000000000E+00 -0.00000000000E+00 -0.13800179676E+04  0.13800179676E+04  0.00000000000E+00 0.  1.
         23    2    1    2    0    0  0.53783559557E+03  0.12027005784E+04  0.10841400985E+03  0.13250638307E+04  0.91020595856E+02 0.  0.
         13    1    3    3    0    0  0.27578160291E+03  0.51373836005E+03  0.64562494026E+02  0.58664376816E+03  0.00000000000E+00 0. -1.
        -13    1    3    3    0    0  0.26205399266E+03  0.68896221831E+03  0.43851515828E+02  0.73842006254E+03  0.00000000000E+00 0.  1.
         22    1    1    2    0    0 -0.53783559557E+03 -0.12027005784E+04 -0.20937239320E+03  0.13340137211E+04  0.00000000000E+00 0. -1.
<mgrwt>
<rscale>  0 0.26571603E+04</rscale>
<asrwt>0</asrwt>
<pdfrwt beam="1">  1        2 0.19677840E+00 0.26571603E+04</pdfrwt>
<pdfrwt beam="2">  1       -2 0.21231046E+00 0.26571603E+04</pdfrwt>
<totfact> 0.16566307E+00</totfact>
</mgrwt>
</event>
<event>
 6    1  0.1014650E-006  0.2419416E+04  0.7818608E-02  0.8432270E-01
         -2   -1    0    0    0  501 -0.00000000000E+00  0.00000000000E+00  0.95015884028E+03  0.95015884028E+03  0.00000000000E+00 0.  1.
          2   -1    0    0  501    0  0.00000000000E+00 -0.00000000000E+00 -0.15401560108E+04  0.15401560108E+04  0.00000000000E+00 0. -1.
         23    2    1    2    0    0 -0.22322131551E+03 -0.35440466975E+03  0.87080657002E+03  0.97065107445E+03  0.91809587234E+02 0.  0.
         13    1    3    3    0    0 -0.68631887003E+02 -0.19397930295E+03  0.40196159469E+03  0.45156553178E+03  0.00000000000E+00 0.  1.
        -13    1    3    3    0    0 -0.15458942850E+03 -0.16042536679E+03  0.46884497533E+03  0.51908554267E+03  0.00000000000E+00 0. -1.
         22    1    1    2    0    0  0.22322131551E+03  0.35440466975E+03 -0.14608037405E+04  0.15196637766E+04  0.00000000000E+00 0. -1.
<mgrwt>
<rscale>  0 0.24194155E+04</rscale>
<asrwt>0</asrwt>
<pdfrwt beam="1">  1        2 0.23694708E+00 0.24194155E+04</pdfrwt>
<pdfrwt beam="2">  1       -2 0.14617828E+00 0.24194155E+04</pdfrwt>
<totfact> 0.34705441E+00</totfact>
</mgrwt>
</event>
<event>
 6    1  0.1165536E-006  0.1999994E+04  0.7818608E-02  0.8606623E-01
         -1   -1    0    0    0  501 -0.00000000000E+00  0.00000000000E+00  0.12420684467E+04  0.12420684467E+04  0.00000000000E+00 0.  1.
          1   -1    0    0  501    0  0.00000000000E+00 -0.00000000000E+00 -0.80510377886E+03  0.80510377886E+03  0.00000000000E+00 0. -1.
         23    2    1    2    0    0  0.64876880737E+02 -0.89139313497E+03  0.67367906064E+03  0.11226050650E+04  0.87223416813E+02 0.  0.
         11    1    3    3    0    0  0.20177164017E+02 -0.33956827770E+03  0.30979679738E+03  0.46009541275E+03  0.00000000000E+00 0. -1.
        -11    1    3    3    0    0  0.44699716720E+02 -0.55182485727E+03  0.36388226325E+03  0.66250965222E+03  0.00000000000E+00 0.  1.
         22    1    1    2    0    0 -0.64876880737E+02  0.89139313497E+03 -0.23671439278E+03  0.92456716061E+03  0.00000000000E+00 0. -1.
<mgrwt>
<rscale>  0 0.19999940E+04</rscale>
<asrwt>0</asrwt>
<pdfrwt beam="1">  1        1 0.12386212E+00 0.19999940E+04</pdfrwt>
<pdfrwt beam="2">  1       -1 0.19108745E+00 0.19999940E+04</pdfrwt>
<totfact> 0.35243272E+00</totfact>
</mgrwt>
</event>
<event>
 6    1  0.1014650E-006  0.2069455E+04  0.7818608E-02  0.8574820E-01
          1   -1    0    0  501    0  0.00000000000E+00  0.00000000000E+00  0.34672556633E+03  0.34672556633E+03  0.00000000000E+00 0. -1.
         -1   -1    0    0    0  501 -0.00000000000E+00 -0.00000000000E+00 -0.30879193287E+04  0.30879193287E+04  0.00000000000E+00 0.  1.
         23    2    1    2    0    0 -0.95706173869E+03 -0.22613278425E+03 -0.85012789375E+03  0.13031587170E+04  0.91662414044E+02 0.  0.
         13    1    3    3    0    0 -0.20987536634E+03 -0.60320321930E+02 -0.23901613981E+03  0.32375133316E+03  0.00000000000E+00 0.  1.
        -13    1    3    3    0    0 -0.74718637235E+03 -0.16581246232E+03 -0.61111175394E+03  0.97940738383E+03  0.00000000000E+00 0. -1.
         22    1    1    2    0    0  0.95706173869E+03  0.22613278425E+03 -0.18910658686E+04  0.21314861780E+04  0.00000000000E+00 0.  1.
<mgrwt>
<rscale>  0 0.20694546E+04</rscale>
<asrwt>0</asrwt>
<pdfrwt beam="1">  1        1 0.53342394E-01 0.20694546E+04</pdfrwt>
<pdfrwt beam="2">  1       -1 0.47506452E+00 0.20694546E+04</pdfrwt>
<totfact> 0.14558272E-01</totfact>
</mgrwt>
</event>
<event>
 6    1  0.1014650E-006  0.1451338E+04  0.7818608E-02  0.8917473E-01
         -2   -1    0    0    0  501 -0.00000000000E+00  0.00000000000E+00  0.24023718249E+03  0.24023718249E+03  0.00000000000E+00 0.  1.
          2   -1    0    0  501    0  0.00000000000E+00 -0.00000000000E+00 -0.21919828586E+04  0.21919828586E+04  0.00000000000E+00 0. -1.
         23    2    1    2    0    0 -0.25614580459E+03 -0.49016897829E+03 -0.17595153306E+04  0.18467041948E+04  0.92443951969E+02 0.  0.
         13    1    3    3    0    0 -0.93318998211E+02 -0.24083844045E+03 -0.93677708124E+03  0.97173190221E+03  0.00000000000E+00 0.  1.
        -13    1    3    3    0    0 -0.16282680638E+03 -0.24933053784E+03 -0.82273824931E+03  0.87497229263E+03  0.00000000000E+00 0. -1.
         22    1    1    2    0    0  0.25614580459E+03  0.49016897829E+03 -0.19223034557E+03  0.58551584629E+03  0.00000000000E+00 0.  1.
<mgrwt>
<rscale>  0 0.14513384E+04</rscale>
<asrwt>0</asrwt>
<pdfrwt beam="1">  1        2 0.33722815E+00 0.14513384E+04</pdfrwt>
<pdfrwt beam="2">  1       -2 0.36959564E-01 0.14513384E+04</pdfrwt>
<totfact> 0.34946291E+01</totfact>
</mgrwt>
</event>
<event>
 6    1  0.1014650E-006  0.1211998E+04  0.7818608E-02  0.9102419E-01
          2   -1    0    0  501    0  0.00000000000E+00  0.00000000000E+00  0.76949358463E+03  0.76949358463E+03  0.00000000000E+00 0. -1.
         -2   -1    0    0    0  501 -0.00000000000E+00 -0.00000000000E+00 -0.47724231040E+03  0.47724231040E+03  0.00000000000E+00 0.  1.
         23    2    1    2    0    0 -0.96868297023E+02 -0.58664893612E+03  0.46128572510E+02  0.60321680011E+03  0.90566116835E+02 0.  0.
         13    1    3    3    0    0 -0.92840292975E+01 -0.33124431309E+03  0.20794536437E+02  0.33202620514E+03  0.00000000000E+00 0. -1.
        -13    1    3    3    0    0 -0.87584267725E+02 -0.25540462303E+03  0.25334036074E+02  0.27119059497E+03  0.00000000000E+00 0.  1.
         22    1    1    2    0    0  0.96868297023E+02  0.58664893612E+03  0.24612270173E+03  0.64351909492E+03  0.00000000000E+00 0.  1.
<mgrwt>
<rscale>  0 0.12119982E+04</rscale>
<asrwt>0</asrwt>
<pdfrwt beam="1">  1        2 0.11838363E+00 0.12119982E+04</pdfrwt>
<pdfrwt beam="2">  1       -2 0.73421894E-01 0.12119982E+04</pdfrwt>
<totfact> 0.59876222E+01</totfact>
</mgrwt>
</event>
<event>
 6    1  0.1014650E-006  0.8295029E+03  0.7818608E-02  0.9518268E-01
         -2   -1    0    0    0  501 -0.00000000000E+00  0.00000000000E+00  0.32268240796E+03  0.32268240796E+03  0.00000000000E+00 0.  1.
          2   -1    0    0  501    0  0.00000000000E+00 -0.00000000000E+00 -0.53308999213E+03  0.53308999213E+03  0.00000000000E+00 0. -1.
         23    2    1    2    0    0 -0.23472744791E+03  0.32588498144E+03 -0.19292509079E+03  0.45377285593E+03  0.85975102170E+02 0.  0.
         11    1    3    3    0    0 -0.20306118054E+03  0.27872111552E+03 -0.19640976434E+03  0.39685778159E+03  0.00000000000E+00 0.  1.
        -11    1    3    3    0    0 -0.31666267371E+02  0.47163865920E+02  0.34846735504E+01  0.56915074343E+02  0.00000000000E+00 0. -1.
         22    1    1    2    0    0  0.23472744791E+03 -0.32588498144E+03 -0.17482493376E+02  0.40199954416E+03  0.00000000000E+00 0. -1.
<mgrwt>
<rscale>  0 0.82950289E+03</rscale>
<asrwt>0</asrwt>
<pdfrwt beam="1">  1        2 0.82013844E-01 0.82950289E+03</pdfrwt>
<pdfrwt beam="2">  1       -2 0.49643448E-01 0.82950289E+03</pdfrwt>
<totfact> 0.22068739E+02</totfact>
</mgrwt>
</event>
<event>
 6    1  0.1014650E-006  0.2773447E+04  0.7818608E-02  0.8311560E-01
         -1   -1    0    0    0  501 -0.00000000000E+00  0.00000000000E+00  0.10522972153E+04  0.10522972153E+04  0.00000000000E+00 0.  1.
          1   -1    0    0  501    0  0.00000000000E+00 -0.00000000000E+00 -0.18274323214E+04  0.18274323214E+04  0.00000000000E+00 0. -1.
         23    2    1    2    0    0 -0.12787431623E+04 -0.23672263303E+03 -0.88348228272E+03  0.15747541382E+04  0.89933151499E+02 0.  0.
         13    1    3    3    0    0 -0.30885861611E+03 -0.96171266666E+02 -0.21197825292E+03  0.38675229410E+03  0.00000000000E+00 0.  1.
        -13    1    3    3    0    0 -0.96988454621E+03 -0.14055136636E+03 -0.67150402980E+03  0.11880018441E+04  0.00000000000E+00 0. -1.
         22    1    1    2    0    0  0.12787431623E+04  0.23672263303E+03  0.10834717664E+03  0.13049753986E+04  0.00000000000E+00 0.  1.
<mgrwt>
<rscale>  0 0.27734469E+04</rscale>
<asrwt>0</asrwt>
<pdfrwt beam="1">  1        1 0.28114343E+00 0.27734469E+04</pdfrwt>
<pdfrwt beam="2">  1       -1 0.16189188E+00 0.27734469E+04</pdfrwt>
<totfact> 0.95756569E-01</totfact>
</mgrwt>
</event>
<event>
 6    1  0.1014650E-006  0.2296781E+04  0.7818608E-02  0.8479191E-01
         -1   -1    0    0    0  501 -0.00000000000E+00  0.00000000000E+00  0.66446618840E+03  0.66446618840E+03  0.00000000000E+00 0.  1.
          1   -1    0    0  501    0  0.00000000000E+00 -0.00000000000E+00 -0.19847528821E+04  0.19847528821E+04  0.00000000000E+00 0. -1.
         23    2    1    2    0    0 -0.36728514294E+03 -0.99386608075E+03 -0.11665115153E+04  0.15785580746E+04  0.91805865215E+02 0.  0.
         11    1    3    3    0    0 -0.30271335644E+03 -0.71749173501E+03 -0.82449182224E+03  0.11341148667E+04  0.00000000000E+00 0.  1.
        -11    1    3    3    0    0 -0.64571786506E+02 -0.27637434573E+03 -0.34201969310E+03  0.44444320791E+03  0.00000000000E+00 0. -1.
         22    1    1    2    0    0  0.36728514294E+03  0.99386608075E+03 -0.15377517841E+03  0.10706609959E+04  0.00000000000E+00 0.  1.
<mgrwt>
<rscale>  0 0.22967814E+04</rscale>
<asrwt>0</asrwt>
<pdfrwt beam="1">  1        1 0.30534659E+00 0.22967814E+04</pdfrwt>
<pdfrwt beam="2">  1       -1 0.10222557E+00 0.22967814E+04</pdfrwt>
<totfact> 0.24994615E+00</totfact>
</mgrwt>
</event>
<event>
 6    1  0.1014650E-006  0.3424413E+04  0.7818608E-02  0.8131940E-01
          2   -1    0    0  501    0  0.00000000000E+00  0.00000000000E+00  0.22858870350E+04  0.22858870350E+04  0.00000000000E+00 0. -1.
         -2   -1    0    0    0  501 -0.00000000000E+00 -0.00000000000E+00 -0.12825004553E+04  0.12825004553E+04  0.00000000000E+00 0.  1.
         23    2    1    2    0    0 -0.10429261155E+04  0.55728849752E+03  0.17906489110E+04  0.21478075628E+04  0.91588495733E+02 0.  0.
         11    1    3    3    0    0 -0.87216330539E+03  0.49581538039E+03  0.14789104666E+04  0.17870864251E+04  0.00000000000E+00 0.  1.
        -11    1    3    3    0    0 -0.17076281010E+03  0.61473117135E+02  0.31173844445E+03  0.36072113771E+03  0.00000000000E+00 0. -1.
         22    1    1    2    0    0  0.10429261155E+04 -0.55728849752E+03 -0.78726233130E+03  0.14205799274E+04  0.00000000000E+00 0.  1.
<mgrwt>
<rscale>  0 0.34244130E+04</rscale>
<asrwt>0</asrwt>
<pdfrwt beam="1">  1        2 0.35167493E+00 0.34244130E+04</pdfrwt>
<pdfrwt beam="2">  1       -2 0.19730776E+00 0.34244130E+04</pdfrwt>
<totfact> 0.52898587E-01</totfact>
</mgrwt>
</event>
<event>
 6    1  0.1014650E-006  0.2647107E+04  0.7818608E-02  0.8352374E-01
          1   -1    0    0  501    0  0.00000000000E+00  0.00000000000E+00  0.17472347100E+04  0.17472347100E+04  0.00000000000E+00 0. -1.
         -1   -1    0    0    0  501 -0.00000000000E+00 -0.00000000000E+00 -0.10026092289E+04  0.10026092289E+04  0.00000000000E+00 0.  1.
         23    2    1    2    0    0  0.73893005227E+03  0.50621114622E+03  0.13827394604E+04  0.16500908769E+04  0.92542639135E+02 0.  0.
         13    1    3    3    0    0  0.31043327595E+03  0.19150019252E+03  0.64073264768E+03  0.73727841984E+03  0.00000000000E+00 0. -1.
        -13    1    3    3    0    0  0.42849677632E+03  0.31471095370E+03  0.74200681273E+03  0.91281245710E+03  0.00000000000E+00 0.  1.
         22    1    1    2    0    0 -0.73893005227E+03 -0.50621114622E+03 -0.63811397929E+03  0.10997530619E+04  0.00000000000E+00 0.  1.
<mgrwt>
<rscale>  0 0.26471068E+04</rscale>
<asrwt>0</asrwt>
<pdfrwt beam="1">  1        1 0.26880534E+00 0.26471068E+04</pdfrwt>
<pdfrwt beam="2">  1       -1 0.15424757E+00 0.26471068E+04</pdfrwt>
<totfact> 0.12553294E+00</totfact>
</mgrwt>
</event>
<event>
 6    1  0.1014650E-006  0.9325550E+03  0.7818608E-02  0.9385777E-01
          1   -1    0    0  501    0  0.00000000000E+00  0.00000000000E+00  0.83400664687E+03  0.83400664687E+03  0.00000000000E+00 0. -1.
         -1   -1    0    0    0  501 -0.00000000000E+00 -0.00000000000E+00 -0.26068703727E+03  0.26068703727E+03  0.00000000000E+00 0.  1.
         23    2    1    2    0    0  0.81169510767E+02  0.44970397082E+03  0.21097238688E+03  0.51149761019E+03  0.91095040274E+02 0.  0.
         11    1    3    3    0    0  0.82256321931E+02  0.36738034410E+03  0.13642797700E+03  0.40043353086E+03  0.00000000000E+00 0. -1.
        -11    1    3    3    0    0 -0.10868111642E+01  0.82323626719E+02  0.74544409879E+02  0.11106407934E+03  0.00000000000E+00 0.  1.
         22    1    1    2    0    0 -0.81169510767E+02 -0.44970397082E+03  0.36234722272E+03  0.58319607394E+03  0.00000000000E+00 0. -1.
<mgrwt>
<rscale>  0 0.93255503E+03</rscale>
<asrwt>0</asrwt>
<pdfrwt beam="1">  1        1 0.12830871E+00 0.93255503E+03</pdfrwt>
<pdfrwt beam="2">  1       -1 0.40105698E-01 0.93255503E+03</pdfrwt>
<totfact> 0.12590896E+02</totfact>
</mgrwt>
</event>
<event>
 6    1  0.1014650E-006  0.2674752E+04  0.7818608E-02  0.8343244E-01
          2   -1    0    0  501    0  0.00000000000E+00  0.00000000000E+00  0.22631774790E+04  0.22631774790E+04  0.00000000000E+00 0. -1.
         -2   -1    0    0    0  501 -0.00000000000E+00 -0.00000000000E+00 -0.79029332534E+03  0.79029332534E+03  0.00000000000E+00 0.  1.
         23    2    1    2    0    0 -0.80684860751E+03  0.74576561707E+03  0.16046435031E+04  0.19468852643E+04  0.91161555672E+02 0.  0.
         11    1    3    3    0    0 -0.57245330982E+03  0.48079817453E+03  0.11301139479E+04  0.13550008161E+04  0.00000000000E+00 0.  1.
        -11    1    3    3    0    0 -0.23439529769E+03  0.26496744255E+03  0.47452955529E+03  0.59188444821E+03  0.00000000000E+00 0. -1.
         22    1    1    2    0    0  0.80684860751E+03 -0.74576561707E+03 -0.13175934953E+03  0.11065855400E+04  0.00000000000E+00 0.  1.
<mgrwt>
<rscale>  0 0.26747516E+04</rscale>
<asrwt>0</asrwt>
<pdfrwt beam="1">  1        2 0.34818115E+00 0.26747516E+04</pdfrwt>
<pdfrwt beam="2">  1       -2 0.12158359E+00 0.26747516E+04</pdfrwt>
<totfact> 0.21489032E+00</totfact>
</mgrwt>
</event>
<event>
 6    1  0.1014650E-006  0.1529614E+04  0.7818608E-02  0.8864995E-01
          2   -1    0    0  501    0  0.00000000000E+00  0.00000000000E+00  0.17451916593E+04  0.17451916593E+04  0.00000000000E+00 0. -1.
         -2   -1    0    0    0  501 -0.00000000000E+00 -0.00000000000E+00 -0.33516647527E+03  0.33516647527E+03  0.00000000000E+00 0.  1.
         23    2    1    2    0    0  0.23033076453E+03  0.66880284408E+03  0.10930896868E+04  0.13052467782E+04  0.92057500022E+02 0.  0.
         11    1    3    3    0    0  0.16635004976E+02  0.13903985309E+03  0.25646849872E+03  0.29220693861E+03  0.00000000000E+00 0.  1.
        -11    1    3    3    0    0  0.21369575955E+03  0.52976299099E+03  0.83662118804E+03  0.10130398396E+04  0.00000000000E+00 0. -1.
         22    1    1    2    0    0 -0.23033076453E+03 -0.66880284408E+03  0.31693549724E+03  0.77511135635E+03  0.00000000000E+00 0.  1.
<mgrwt>
<rscale>  0 0.15296140E+04</rscale>
<asrwt>0</asrwt>
<pdfrwt beam="1">  1        2 0.26849102E+00 0.15296140E+04</pdfrwt>
<pdfrwt beam="2">  1       -2 0.51564074E-01 0.15296140E+04</pdfrwt>
<totfact> 0.31696950E+01</totfact>
</mgrwt>
</event>
<event>
 6    1  0.1014650E-006  0.2345147E+04  0.7818608E-02  0.8460330E-01
          2   -1    0    0  501    0  0.00000000000E+00  0.00000000000E+00  0.26631367490E+04  0.26631367490E+04  0.00000000000E+00 0. -1.
         -2   -1    0    0    0  501 -0.00000000000E+00 -0.00000000000E+00 -0.51628152258E+03  0.51628152258E+03  0.00000000000E+00 0.  1.
         23    2    1    2    0    0  0.10375969571E+04 -0.40781206284E+03  0.15597563725E+04  0.19194170064E+04  0.91671037099E+02 0.  0.
         11    1    3    3    0    0  0.64040240214E+03 -0.25891314285E+03  0.88960840520E+03  0.11263011883E+04  0.00000000000E+00 0. -1.
        -11    1    3    3    0    0  0.39719455495E+03 -0.14889892000E+03  0.67014796728E+03  0.79311581809E+03  0.00000000000E+00 0.  1.
         22    1    1    2    0    0 -0.10375969571E+04  0.40781206284E+03  0.58709885397E+03  0.12600012652E+04  0.00000000000E+00 0.  1.
<mgrwt>
<rscale>  0 0.23451467E+04</rscale>
<asrwt>0</asrwt>
<pdfrwt beam="1">  1        2 0.40971334E+00 0.23451467E+04</pdfrwt>
<pdfrwt beam="2">  1       -2 0.79427928E-01 0.23451467E+04</pdfrwt>
<totfact> 0.35443017E+00</totfact>
</mgrwt>
</event>
<event>
 6    1  0.1014650E-006  0.2382055E+04  0.7818608E-02  0.8446253E-01
          1   -1    0    0  501    0  0.00000000000E+00  0.00000000000E+00  0.12681590081E+04  0.12681590081E+04  0.00000000000E+00 0. -1.
         -1   -1    0    0    0  501 -0.00000000000E+00 -0.00000000000E+00 -0.11185870597E+04  0.11185870597E+04  0.00000000000E+00 0.  1.
         23    2    1    2    0    0 -0.38606373040E+03  0.10920406585E+04  0.34519945830E+03  0.12120681858E+04  0.91370767617E+02 0.  0.
         11    1    3    3    0    0 -0.13307512733E+03  0.51292469825E+03  0.15641765618E+03  0.55250992638E+03  0.00000000000E+00 0. -1.
        -11    1    3    3    0    0 -0.25298860308E+03  0.57911596028E+03  0.18878180212E+03  0.65955825941E+03  0.00000000000E+00 0.  1.
         22    1    1    2    0    0  0.38606373040E+03 -0.10920406585E+04 -0.19562750985E+03  0.11746778820E+04  0.00000000000E+00 0. -1.
<mgrwt>
<rscale>  0 0.23820548E+04</rscale>
<asrwt>0</asrwt>
<pdfrwt beam="1">  1        1 0.19510139E+00 0.23820548E+04</pdfrwt>
<pdfrwt beam="2">  1       -1 0.17209032E+00 0.23820548E+04</pdfrwt>
<totfact> 0.20327235E+00</totfact>
</mgrwt>
</event>
<event>
 6    1  0.1014650E-006  0.4288618E+04  0.7818608E-02  0.7948726E-01
          2   -1    0    0  501    0  0.00000000000E+00  0.00000000000E+00  0.26859224996E+04  0.26859224996E+04  0.00000000000E+00 0. -1.
         -2   -1    0    0    0  501 -0.00000000000E+00 -0.00000000000E+00 -0.17119116254E+04  0.17119116254E+04  0.00000000000E+00 0.  1.
         23    2    1    2    0    0  0.15803160419E+03 -0.12599247213E+04 -0.12834725138E+04  0.18077346022E+04  0.90655431497E+02 0.  0.
         13    1    3    3    0    0  0.52922474689E+02 -0.49913291491E+03 -0.56937347110E+03  0.75902608958E+03  0.00000000000E+00 0.  1.
        -13    1    3    3    0    0  0.10510912950E+03 -0.76079180639E+03 -0.71409904266E+03  0.10487085126E+04  0.00000000000E+00 0. -1.
         22    1    1    2    0    0 -0.15803160419E+03  0.12599247213E+04  0.22574833879E+04  0.25900995228E+04  0.00000000000E+00 0. -1.
<mgrwt>
<rscale>  0 0.42886184E+04</rscale>
<asrwt>0</asrwt>
<pdfrwt beam="1">  1        2 0.41321885E+00 0.42886184E+04</pdfrwt>
<pdfrwt beam="2">  1       -2 0.26337102E+00 0.42886184E+04</pdfrwt>
<totfact> 0.11100681E-01</totfact>
</mgrwt>
</event>
<event>
 6    1  0.1014650E-006  0.5021490E+03  0.7818608E-02  0.1013220E+00
         -2   -1    0    0    0  501 -0.00000000000E+00  0.00000000000E+00  0.38103045427E+03  0.38103045427E+03  0.00000000000E+00 0.  1.
          2   -1    0    0  501    0  0.00000000000E+00 -0.00000000000E+00 -0.16544188344E+03  0.16544188344E+03  0.00000000000E+00 0. -1.
         23    2    1    2    0    0  0.11531154065E+03  0.19948668316E+03  0.26247586372E+02  0.24824139271E+03  0.88561645754E+02 0.  0.
         11    1    3    3    0    0 -0.83435438423E+01 -0.30205049320E+01  0.45602142292E+01  0.99766591457E+01  0.00000000000E+00 0. -1.
        -11    1    3    3    0    0  0.12365508449E+03  0.20250718809E+03  0.21687372143E+02  0.23826473356E+03  0.00000000000E+00 0.  1.
         22    1    1    2    0    0 -0.11531154065E+03 -0.19948668316E+03  0.18934098445E+03  0.29823094500E+03  0.00000000000E+00 0.  1.
<mgrwt>
<rscale>  0 0.50214897E+03</rscale>
<asrwt>0</asrwt>
<pdfrwt beam="1">  1        2 0.25452598E-01 0.50214897E+03</pdfrwt>
<pdfrwt beam="2">  1       -2 0.58620070E-01 0.50214897E+03</pdfrwt>
<totfact> 0.58819364E+02</totfact>
</mgrwt>
</event>
<event>
 6    1  0.1014650E-006  0.1487161E+04  0.7818608E-02  0.8893036E-01
         -1   -1    0    0    0  501 -0.00000000000E+00  0.00000000000E+00  0.36087828469E+03  0.36087828469E+03  0.00000000000E+00 0.  1.
          1   -1    0    0  501    0  0.00000000000E+00 -0.00000000000E+00 -0.15321291124E+04  0.15321291124E+04  0.00000000000E+00 0. -1.
         23    2    1    2    0    0 -0.22997935754E+03 -0.63797060875E+03 -0.20850339722E+03  0.71539132322E+03  0.91728273511E+02 0.  0.
         13    1    3    3    0    0 -0.49506840544E+02 -0.25857219412E+03 -0.62255090074E+02  0.27052948652E+03  0.00000000000E+00 0.  1.
        -13    1    3    3    0    0 -0.18047251699E+03 -0.37939841463E+03 -0.14624830714E+03  0.44486183670E+03  0.00000000000E+00 0. -1.
         22    1    1    2    0    0  0.22997935754E+03  0.63797060875E+03 -0.96274743045E+03  0.11776160738E+04  0.00000000000E+00 0. -1.
<mgrwt>
<rscale>  0 0.14871612E+04</rscale>
<asrwt>0</asrwt>
<pdfrwt beam="1">  1        1 0.23571217E+00 0.14871612E+04</pdfrwt>
<pdfrwt beam="2">  1       -1 0.55519736E-01 0.14871612E+04</pdfrwt>
<totfact> 0.19741616E+01</totfact>
</mgrwt>
</event>
<event>
 6    1  0.1014650E-006  0.1666536E+04  0.7818608E-02  0.8780684E-01
          1   -1    0    0  501    0  0.00000000000E+00  0.00000000000E+00  0.15484629548E+04  0.15484629548E+04  0.00000000000E+00 0. -1.
         -1   -1    0    0    0  501 -0.00000000000E+00 -0.00000000000E+00 -0.44840315544E+03  0.44840315544E+03  0.00000000000E+00 0.  1.
         23    2    1    2    0    0  0.52159577337E+03  0.37035890405E+03  0.11868098773E+04  0.13513016715E+04  0.90943134457E+02 0.  0.
         13    1    3    3    0    0  0.25980849522E+03  0.23040855585E+03  0.58614114550E+03  0.68128554898E+03  0.00000000000E+00 0.  1.
        -13    1    3    3    0    0  0.26178727815E+03  0.13995034820E+03  0.60066873184E+03  0.67001612247E+03  0.00000000000E+00 0. -1.
         22    1    1    2    0    0 -0.52159577337E+03 -0.37035890405E+03 -0.86750077971E+02  0.64556443879E+03  0.00000000000E+00 0.  1.
<mgrwt>
<rscale>  0 0.16665361E+04</rscale>
<asrwt>0</asrwt>
<pdfrwt beam="1">  1        1 0.23822507E+00 0.16665361E+04</pdfrwt>
<pdfrwt beam="2">  1       -1 0.68985101E-01 0.16665361E+04</pdfrwt>
<totfact> 0.12284877E+01</totfact>
</mgrwt>
</event>
<event>
 6    1  0.1014650E-006  0.5834970E+04  0.7818608E-02  0.7711207E-01
         -1   -1    0    0    0  501 -0.00000000000E+00  0.00000000000E+00  0.18252691935E+04  0.18252691935E+04  0.00000000000E+00 0.  1.
          1   -1    0    0  501    0  0.00000000000E+00 -0.00000000000E+00 -0.46632683274E+04  0.46632683274E+04  0.00000000000E+00 0. -1.
         23    2    1    2    0    0  0.21447247091E+02 -0.61989252634E+03 -0.45886348121E+04  0.46312674797E+04  0.91336197659E+02 0.  0.
         13    1    3    3    0    0  0.88911408982E+01 -0.44957933692E+03 -0.30062399818E+04  0.30396841054E+04  0.00000000000E+00 0.  1.
        -13    1    3    3    0    0  0.12556106193E+02 -0.17031318942E+03 -0.15823948303E+04  0.15915833743E+04  0.00000000000E+00 0. -1.
         22    1    1    2    0    0 -0.21447247091E+02  0.61989252634E+03  0.17506356782E+04  0.18572700413E+04  0.00000000000E+00 0.  1.
<mgrwt>
<rscale>  0 0.58349704E+04</rscale>
<asrwt>0</asrwt>
<pdfrwt beam="1">  1        1 0.71742589E+00 0.58349704E+04</pdfrwt>
<pdfrwt beam="2">  1       -1 0.28081065E+00 0.58349704E+04</pdfrwt>
<totfact> 0.63619771E-04</totfact>
</mgrwt>
</event>
<event>
 6    1  0.1014650E-006  0.1821423E+04  0.7818608E-02  0.8694989E-01
         -1   -1    0    0    0  501 -0.00000000000E+00  0.00000000000E+00  0.30242992610E+03  0.30242992610E+03  0.00000000000E+00 0.  1.
          1   -1    0    0  501    0  0.00000000000E+00 -0.00000000000E+00 -0.27424372427E+04  0.27424372427E+04  0.00000000000E+00 0. -1.
         23    2    1    2    0    0  0.70689413896E+03 -0.19743775244E+03 -0.32818522864E+03  0.80914054845E+03  0.91224410429E+02 0.  0.
         13    1    3    3    0    0  0.20729033261E+03 -0.30288411195E+02 -0.59612406853E+02  0.21780796335E+03  0.00000000000E+00 0.  1.
        -13    1    3    3    0    0  0.49960380635E+03 -0.16714934125E+03 -0.26857282179E+03  0.59133258510E+03  0.00000000000E+00 0. -1.
         22    1    1    2    0    0 -0.70689413896E+03  0.19743775244E+03 -0.21118220879E+04  0.22357266203E+04  0.00000000000E+00 0. -1.
<mgrwt>
<rscale>  0 0.18214226E+04</rscale>
<asrwt>0</asrwt>
<pdfrwt beam="1">  1        1 0.42191344E+00 0.18214226E+04</pdfrwt>
<pdfrwt beam="2">  1       -1 0.46527679E-01 0.18214226E+04</pdfrwt>
<totfact> 0.39751941E+00</totfact>
</mgrwt>
</event>
<event>
 6    1  0.1014650E-006  0.5075765E+03  0.7818608E-02  0.1011820E+00
         -3   -1    0    0    0  501 -0.00000000000E+00  0.00000000000E+00  0.26698763550E+03  0.26698763550E+03  0.00000000000E+00 0.  1.
          3   -1    0    0  501    0  0.00000000000E+00 -0.00000000000E+00 -0.24124140638E+03  0.24124140638E+03  0.00000000000E+00 0. -1.
         23    2    1    2    0    0 -0.21522781090E+03  0.11792966846E+03  0.23165091365E+02  0.26279660808E+03  0.91076992023E+02 0.  0.
         13    1    3    3    0    0 -0.15487145507E+03  0.10626274358E+03 -0.18200391609E+02  0.18870133154E+03  0.00000000000E+00 0. -1.
        -13    1    3    3    0    0 -0.60356355826E+02  0.11666924877E+02  0.41365482974E+02  0.74095276545E+02  0.00000000000E+00 0.  1.
         22    1    1    2    0    0  0.21522781090E+03 -0.11792966846E+03  0.25811377594E+01  0.24543243379E+03  0.00000000000E+00 0. -1.
<mgrwt>
<rscale>  0 0.50757649E+03</rscale>
<asrwt>0</asrwt>
<pdfrwt beam="1">  1        3 0.37114063E-01 0.50757649E+03</pdfrwt>
<pdfrwt beam="2">  1       -3 0.41075021E-01 0.50757649E+03</pdfrwt>
<totfact> 0.11067099E+02</totfact>
</mgrwt>
</event>
<event>
 6    1  0.1014650E-006  0.3291002E+04  0.7818608E-02  0.8165189E-01
          2   -1    0    0  501    0  0.00000000000E+00  0.00000000000E+00  0.19060005365E+04  0.19060005365E+04  0.00000000000E+00 0. -1.
         -2   -1    0    0    0  501 -0.00000000000E+00 -0.00000000000E+00 -0.14206046555E+04  0.14206046555E+04  0.00000000000E+00 0.  1.
         23    2    1    2    0    0 -0.49145053527E+03 -0.30198242509E+03  0.17992146325E+04  0.18917404858E+04  0.93764375814E+02 0.  0.
         11    1    3    3    0    0 -0.30972864512E+02 -0.32164654655E+02  0.22871254993E+03  0.23303071437E+03  0.00000000000E+00 0.  1.
        -11    1    3    3    0    0 -0.46047767076E+03 -0.26981777043E+03  0.15705020825E+04  0.16587097714E+04  0.00000000000E+00 0. -1.
         22    1    1    2    0    0  0.49145053527E+03  0.30198242509E+03 -0.13138187515E+04  0.14348647063E+04  0.00000000000E+00 0.  1.
<mgrwt>
<rscale>  0 0.32910018E+04</rscale>
<asrwt>0</asrwt>
<pdfrwt beam="1">  1        2 0.29323085E+00 0.32910018E+04</pdfrwt>
<pdfrwt beam="2">  1       -2 0.21855456E+00 0.32910018E+04</pdfrwt>
<totfact> 0.63582968E-01</totfact>
</mgrwt>
</event>
<event>
 6    1  0.1014650E-006  0.1428114E+04  0.7818608E-02  0.8933716E-01
          2   -1    0    0  501    0  0.00000000000E+00  0.00000000000E+00  0.24003280412E+04  0.24003280412E+04  0.00000000000E+00 0. -1.
         -2   -1    0    0    0  501 -0.00000000000E+00 -0.00000000000E+00 -0.21241989802E+03  0.21241989802E+03  0.00000000000E+00 0.  1.
         23    2    1    2    0    0  0.21564989815E+02  0.14494775710E+03  0.23715312106E+04  0.23778174560E+04  0.91546001709E+02 0.  0.
         13    1    3    3    0    0  0.20786585702E+02 -0.60485027695E+01  0.26701737474E+03  0.26789353285E+03  0.00000000000E+00 0. -1.
        -13    1    3    3    0    0  0.77840411326E+00  0.15099625987E+03  0.21045138358E+04  0.21099239232E+04  0.00000000000E+00 0.  1.
         22    1    1    2    0    0 -0.21564989815E+02 -0.14494775710E+03 -0.18362306737E+03  0.23493048322E+03  0.00000000000E+00 0.  1.
<mgrwt>
<rscale>  0 0.14281141E+04</rscale>
<asrwt>0</asrwt>
<pdfrwt beam="1">  1        2 0.36928122E+00 0.14281141E+04</pdfrwt>
<pdfrwt beam="2">  1       -2 0.32679986E-01 0.14281141E+04</pdfrwt>
<totfact> 0.33785740E+01</totfact>
</mgrwt>
</event>
<event>
 6    1  0.1014650E-006  0.3653221E+04  0.7818608E-02  0.8078408E-01
         -2   -1    0    0    0  501 -0.00000000000E+00  0.00000000000E+00  0.80979731399E+03  0.80979731399E+03  0.00000000000E+00 0.  1.
          2   -1    0    0  501    0  0.00000000000E+00 -0.00000000000E+00 -0.41201743314E+04  0.41201743314E+04  0.00000000000E+00 0. -1.
         23    2    1    2    0    0  0.72517981956E+03 -0.16188167257E+04 -0.10741514921E+04  0.20756489653E+04  0.89798868632E+02 0.  0.
         13    1    3    3    0    0  0.29812199798E+03 -0.77500560617E+03 -0.50425348749E+03  0.97148442855E+03  0.00000000000E+00 0. -1.
        -13    1    3    3    0    0  0.42705782159E+03 -0.84381111958E+03 -0.56989800463E+03  0.11041645367E+04  0.00000000000E+00 0.  1.
         22    1    1    2    0    0 -0.72517981956E+03  0.16188167257E+04 -0.22362255253E+04  0.28543226801E+04  0.00000000000E+00 0. -1.
<mgrwt>
<rscale>  0 0.36532211E+04</rscale>
<asrwt>0</asrwt>
<pdfrwt beam="1">  1        2 0.63387296E+00 0.36532211E+04</pdfrwt>
<pdfrwt beam="2">  1       -2 0.12458421E+00 0.36532211E+04</pdfrwt>
<totfact> 0.10640811E-01</totfact>
</mgrwt>
</event>
<event>
 6    1  0.1014650E-006  0.3502715E+04  0.7818608E-02  0.8113147E-01
          2   -1    0    0  501    0  0.00000000000E+00  0.00000000000E+00  0.20158605823E+04  0.20158605823E+04  0.00000000000E+00 0. -1.
         -2   -1    0    0    0  501 -0.00000000000E+00 -0.00000000000E+00 -0.15215598153E+04  0.15215598153E+04  0.00000000000E+00 0.  1.
         23    2    1    2    0    0 -0.12806187208E+03  0.17419945105E+04  0.35828863453E+03  0.17854375159E+04  0.92041618836E+02 0.  0.
         13    1    3    3    0    0 -0.14274496929E+03  0.15487674736E+04  0.31961323325E+03  0.15878316763E+04  0.00000000000E+00 0. -1.
        -13    1    3    3    0    0  0.14683097212E+02  0.19322703695E+03  0.38675401274E+02  0.19760583953E+03  0.00000000000E+00 0.  1.
         22    1    1    2    0    0  0.12806187208E+03 -0.17419945105E+04  0.13601213245E+03  0.17519828818E+04  0.00000000000E+00 0.  1.
<mgrwt>
<rscale>  0 0.35027146E+04</rscale>
<asrwt>0</asrwt>
<pdfrwt beam="1">  1        2 0.31013240E+00 0.35027146E+04</pdfrwt>
<pdfrwt beam="2">  1       -2 0.23408612E+00 0.35027146E+04</pdfrwt>
<totfact> 0.43361440E-01</totfact>
</mgrwt>
</event>
<event>
 6    1  0.1014650E-006  0.2621589E+04  0.7818608E-02  0.8360905E-01
         -2   -1    0    0    0  501 -0.00000000000E+00  0.00000000000E+00  0.90271024808E+03  0.90271024808E+03  0.00000000000E+00 0.  1.
          2   -1    0    0  501    0  0.00000000000E+00 -0.00000000000E+00 -0.19033598227E+04  0.19033598227E+04  0.00000000000E+00 0. -1.
         23    2    1    2    0    0  0.44709405046E+03 -0.11837882610E+04 -0.14148620079E+03  0.12765572595E+04  0.91281733433E+02 0.  0.
         11    1    3    3    0    0  0.33409562551E+03 -0.92218053403E+03 -0.14545117596E+03  0.99156082462E+03  0.00000000000E+00 0. -1.
        -11    1    3    3    0    0  0.11299842495E+03 -0.26160772700E+03  0.39649751701E+01  0.28499643488E+03  0.00000000000E+00 0.  1.
         22    1    1    2    0    0 -0.44709405046E+03  0.11837882610E+04 -0.85916337384E+03  0.15295128113E+04  0.00000000000E+00 0.  1.
<mgrwt>
<rscale>  0 0.26215891E+04</rscale>
<asrwt>0</asrwt>
<pdfrwt beam="1">  1        2 0.29282459E+00 0.26215891E+04</pdfrwt>
<pdfrwt beam="2">  1       -2 0.13887850E+00 0.26215891E+04</pdfrwt>
<totfact> 0.24486766E+00</totfact>
</mgrwt>
</event>
<event>
 6    1  0.1014650E-006  0.8469232E+03  0.7818608E-02  0.9494476E-01
          1   -1    0    0  501    0  0.00000000000E+00  0.00000000000E+00  0.23962594138E+04  0.23962594138E+04  0.00000000000E+00 0. -1.
         -1   -1    0    0    0  501 -0.00000000000E+00 -0.00000000000E+00 -0.74833190610E+02  0.74833190610E+02  0.00000000000E+00 0.  1.
         23    2    1    2    0    0 -0.40610008537E+03 -0.95879034020E+02  0.10777765668E+04  0.11593096436E+04  0.91029957976E+02 0.  0.
         13    1    3    3    0    0 -0.15886047136E+03  0.74995646110E+01  0.39210300594E+03  0.42312842034E+03  0.00000000000E+00 0. -1.
        -13    1    3    3    0    0 -0.24723961401E+03 -0.10337859863E+03  0.68567356084E+03  0.73618122322E+03  0.00000000000E+00 0.  1.
         22    1    1    2    0    0  0.40610008537E+03  0.95879034020E+02  0.12436496565E+04  0.13117829609E+04  0.00000000000E+00 0. -1.
<mgrwt>
<rscale>  0 0.84692323E+03</rscale>
<asrwt>0</asrwt>
<pdfrwt beam="1">  1        1 0.36865524E+00 0.84692323E+03</pdfrwt>
<pdfrwt beam="2">  1       -1 0.11512800E-01 0.84692323E+03</pdfrwt>
<totfact> 0.82961427E+01</totfact>
</mgrwt>
</event>
<event>
 6    1  0.1014650E-006  0.2695420E+04  0.7818608E-02  0.8336493E-01
         -2   -1    0    0    0  501 -0.00000000000E+00  0.00000000000E+00  0.15380763367E+04  0.15380763367E+04  0.00000000000E+00 0.  1.
          2   -1    0    0  501    0  0.00000000000E+00 -0.00000000000E+00 -0.11809047920E+04  0.11809047920E+04  0.00000000000E+00 0. -1.
         23    2    1    2    0    0  0.58503610569E+03 -0.81734285904E+03  0.10820940220E+04  0.14796953698E+04  0.90853292381E+02 0.  0.
         13    1    3    3    0    0  0.94805164839E+02 -0.11950745051E+03  0.21373991269E+03  0.26259246045E+03  0.00000000000E+00 0. -1.
        -13    1    3    3    0    0  0.49023094085E+03 -0.69783540853E+03  0.86835410934E+03  0.12171029094E+04  0.00000000000E+00 0.  1.
         22    1    1    2    0    0 -0.58503610569E+03  0.81734285904E+03 -0.72492247732E+03  0.12392857589E+04  0.00000000000E+00 0. -1.
<mgrwt>
<rscale>  0 0.26954196E+04</rscale>
<asrwt>0</asrwt>
<pdfrwt beam="1">  1        2 0.18167766E+00 0.26954196E+04</pdfrwt>
<pdfrwt beam="2">  1       -2 0.23662713E+00 0.26954196E+04</pdfrwt>
<totfact> 0.13266690E+00</totfact>
</mgrwt>
</event>
<event>
 6    1  0.1014650E-006  0.3185781E+04  0.7818608E-02  0.8192582E-01
          1   -1    0    0  501    0  0.00000000000E+00  0.00000000000E+00  0.29362660799E+04  0.29362660799E+04  0.00000000000E+00 0. -1.
         -1   -1    0    0    0  501 -0.00000000000E+00 -0.00000000000E+00 -0.86412496576E+03  0.86412496576E+03  0.00000000000E+00 0.  1.
         23    2    1    2    0    0  0.57402425034E+03  0.28528311859E+03 -0.70087252663E+03  0.95425419904E+03  0.92132947785E+02 0.  0.
         13    1    3    3    0    0  0.11236323958E+03  0.96579627646E+02 -0.17945133194E+03  0.23271420804E+03  0.00000000000E+00 0.  1.
        -13    1    3    3    0    0  0.46166101075E+03  0.18870349095E+03 -0.52142119469E+03  0.72153999100E+03  0.00000000000E+00 0. -1.
         22    1    1    2    0    0 -0.57402425034E+03 -0.28528311859E+03  0.27730136408E+04  0.28461368466E+04  0.00000000000E+00 0. -1.
<mgrwt>
<rscale>  0 0.31857814E+04</rscale>
<asrwt>0</asrwt>
<pdfrwt beam="1">  1        1 0.45173324E+00 0.31857814E+04</pdfrwt>
<pdfrwt beam="2">  1       -1 0.13294230E+00 0.31857814E+04</pdfrwt>
<totfact> 0.26671944E-01</totfact>
</mgrwt>
</event>
<event>
 6    1  0.1014650E-006  0.4695432E+04  0.7818608E-02  0.7877288E-01
         -1   -1    0    0    0  501 -0.00000000000E+00  0.00000000000E+00  0.22431482757E+04  0.22431482757E+04  0.00000000000E+00 0.  1.
          1   -1    0    0  501    0  0.00000000000E+00 -0.00000000000E+00 -0.24571585045E+04  0.24571585045E+04  0.00000000000E+00 0. -1.
         23    2    1    2    0    0  0.21174154238E+04 -0.16593942306E+03  0.89241189946E+03  0.23054886462E+04  0.88853419654E+02 0.  0.
         13    1    3    3    0    0  0.12773185169E+04 -0.69158556556E+02  0.50391724261E+03  0.13748665706E+04  0.00000000000E+00 0. -1.
        -13    1    3    3    0    0  0.84009690687E+03 -0.96780866507E+02  0.38849465685E+03  0.93062207553E+03  0.00000000000E+00 0.  1.
         22    1    1    2    0    0 -0.21174154238E+04  0.16593942306E+03 -0.11064221283E+04  0.23948181340E+04  0.00000000000E+00 0. -1.
<mgrwt>
<rscale>  0 0.46954322E+04</rscale>
<asrwt>0</asrwt>
<pdfrwt beam="1">  1        1 0.37802438E+00 0.46954322E+04</pdfrwt>
<pdfrwt beam="2">  1       -1 0.34509974E+00 0.46954322E+04</pdfrwt>
<totfact> 0.17965102E-02</totfact>
</mgrwt>
</event>
<event>
 6    1  0.1014650E-006  0.1856780E+04  0.7818608E-02  0.8676674E-01
         -2   -1    0    0    0  501 -0.00000000000E+00  0.00000000000E+00  0.37419221922E+03  0.37419221922E+03  0.00000000000E+00 0.  1.
          2   -1    0    0  501    0  0.00000000000E+00 -0.00000000000E+00 -0.23033832728E+04  0.23033832728E+04  0.00000000000E+00 0. -1.
         23    2    1    2    0    0 -0.56461485071E+03  0.44517683908E+03 -0.18086605762E+04  0.19485350654E+04  0.92539037649E+02 0.  0.
         11    1    3    3    0    0 -0.50134411569E+02  0.40863144620E+02 -0.24704977579E+03  0.25537589458E+03  0.00000000000E+00 0. -1.
        -11    1    3    3    0    0 -0.51448043914E+03  0.40431369446E+03 -0.15616108004E+04  0.16931591708E+04  0.00000000000E+00 0.  1.
         22    1    1    2    0    0  0.56461485071E+03 -0.44517683908E+03 -0.12053047739E+03  0.72904042664E+03  0.00000000000E+00 0.  1.
<mgrwt>
<rscale>  0 0.18567801E+04</rscale>
<asrwt>0</asrwt>
<pdfrwt beam="1">  1        2 0.35436666E+00 0.18567801E+04</pdfrwt>
<pdfrwt beam="2">  1       -2 0.57568034E-01 0.18567801E+04</pdfrwt>
<totfact> 0.11992428E+01</totfact>
</mgrwt>
</event>
<event>
 6    1  0.1014650E-006  0.3552016E+04  0.7818608E-02  0.8101572E-01
          2   -1    0    0  501    0  0.00000000000E+00  0.00000000000E+00  0.26485894819E+04  0.26485894819E+04  0.00000000000E+00 0. -1.
         -2   -1    0    0    0  501 -0.00000000000E+00 -0.00000000000E+00 -0.11908999816E+04  0.11908999816E+04  0.00000000000E+00 0.  1.
         23    2    1    2    0    0  0.11486262996E+04 -0.10628745913E+04 -0.17561181838E+03  0.15774731128E+04  0.92396633370E+02 0.  0.
         11    1    3    3    0    0  0.87262485155E+03 -0.79749978673E+03 -0.93192364178E+02  0.11858182230E+04  0.00000000000E+00 0. -1.
        -11    1    3    3    0    0  0.27600144805E+03 -0.26537480461E+03 -0.82419454203E+02  0.39165488977E+03  0.00000000000E+00 0.  1.
         22    1    1    2    0    0 -0.11486262996E+04  0.10628745913E+04  0.16333013187E+04  0.22620163507E+04  0.00000000000E+00 0. -1.
<mgrwt>
<rscale>  0 0.35520164E+04</rscale>
<asrwt>0</asrwt>
<pdfrwt beam="1">  1        2 0.40747530E+00 0.35520164E+04</pdfrwt>
<pdfrwt beam="2">  1       -2 0.18321538E+00 0.35520164E+04</pdfrwt>
<totfact> 0.40160126E-01</totfact>
</mgrwt>
</event>
<event>
 6    1  0.1014650E-006  0.3139252E+04  0.7818608E-02  0.8205047E-01
          2   -1    0    0  501    0  0.00000000000E+00  0.00000000000E+00  0.20945712573E+04  0.20945712573E+04  0.00000000000E+00 0. -1.
         -2   -1    0    0    0  501 -0.00000000000E+00 -0.00000000000E+00 -0.11762434140E+04  0.11762434140E+04  0.00000000000E+00 0.  1.
         23    2    1    2    0    0  0.13508681978E+04  0.32095125369E+03 -0.30019227208E+03  0.14234798703E+04  0.91241142448E+02 0.  0.
         11    1    3    3    0    0  0.58090377584E+03  0.93854280636E+02 -0.11304545072E+03  0.59919704330E+03  0.00000000000E+00 0.  1.
        -11    1    3    3    0    0  0.76996442193E+03  0.22709697306E+03 -0.18714682136E+03  0.82428282704E+03  0.00000000000E+00 0. -1.
         22    1    1    2    0    0 -0.13508681978E+04 -0.32095125369E+03  0.12185201154E+04  0.18473348009E+04  0.00000000000E+00 0. -1.
<mgrwt>
<rscale>  0 0.31392519E+04</rscale>
<asrwt>0</asrwt>
<pdfrwt beam="1">  1        2 0.32224173E+00 0.31392519E+04</pdfrwt>
<pdfrwt beam="2">  1       -2 0.18096053E+00 0.31392519E+04</pdfrwt>
<totfact> 0.89428131E-01</totfact>
</mgrwt>
</event>
<event>
 6    1  0.1014650E-006  0.2630284E+04  0.7818608E-02  0.8357987E-01
         -1   -1    0    0    0  501 -0.00000000000E+00  0.00000000000E+00  0.79278855753E+03  0.79278855753E+03  0.00000000000E+00 0.  1.
          1   -1    0    0  501    0  0.00000000000E+00 -0.00000000000E+00 -0.21816643388E+04  0.21816643388E+04  0.00000000000E+00 0. -1.
         23    2    1    2    0    0 -0.69851101369E+03  0.68270448086E+03  0.29778332135E+03  0.10253962084E+04  0.93591843776E+02 0.  0.
         13    1    3    3    0    0 -0.21009013881E+03  0.24720086001E+03  0.13272253291E+03  0.35051590885E+03  0.00000000000E+00 0. -1.
        -13    1    3    3    0    0 -0.48842087488E+03  0.43550362086E+03  0.16506078843E+03  0.67488029952E+03  0.00000000000E+00 0.  1.
         22    1    1    2    0    0  0.69851101369E+03 -0.68270448086E+03 -0.16866591026E+04  0.19490566879E+04  0.00000000000E+00 0. -1.
<mgrwt>
<rscale>  0 0.26302840E+04</rscale>
<asrwt>0</asrwt>
<pdfrwt beam="1">  1        1 0.33564066E+00 0.26302840E+04</pdfrwt>
<pdfrwt beam="2">  1       -1 0.12196747E+00 0.26302840E+04</pdfrwt>
<totfact> 0.11711913E+00</totfact>
</mgrwt>
</event>
<event>
 6    1  0.1014650E-006  0.3349365E+04  0.7818608E-02  0.8150447E-01
         -2   -1    0    0    0  501 -0.00000000000E+00  0.00000000000E+00  0.13012002306E+04  0.13012002306E+04  0.00000000000E+00 0.  1.
          2   -1    0    0  501    0  0.00000000000E+00 -0.00000000000E+00 -0.21553647295E+04  0.21553647295E+04  0.00000000000E+00 0. -1.
         23    2    1    2    0    0 -0.94439531345E+03  0.13517049912E+04 -0.72162414240E+03  0.18023110989E+04  0.92709239445E+02 0.  0.
         11    1    3    3    0    0 -0.58947676658E+03  0.91047946616E+03 -0.49778772910E+03  0.11934187613E+04  0.00000000000E+00 0. -1.
        -11    1    3    3    0    0 -0.35491854686E+03  0.44122552502E+03 -0.22383641330E+03  0.60889233758E+03  0.00000000000E+00 0.  1.
         22    1    1    2    0    0  0.94439531345E+03 -0.13517049912E+04 -0.13254035647E+03  0.16542538612E+04  0.00000000000E+00 0. -1.
<mgrwt>
<rscale>  0 0.33493648E+04</rscale>
<asrwt>0</asrwt>
<pdfrwt beam="1">  1        2 0.33159458E+00 0.33493648E+04</pdfrwt>
<pdfrwt beam="2">  1       -2 0.20018465E+00 0.33493648E+04</pdfrwt>
<totfact> 0.60361619E-01</totfact>
</mgrwt>
</event>
<event>
 6    1  0.1014650E-006  0.1350795E+04  0.7818608E-02  0.8990227E-01
         -2   -1    0    0    0  501 -0.00000000000E+00  0.00000000000E+00  0.31966083808E+03  0.31966083808E+03  0.00000000000E+00 0.  1.
          2   -1    0    0  501    0  0.00000000000E+00 -0.00000000000E+00 -0.14270172123E+04  0.14270172123E+04  0.00000000000E+00 0. -1.
         23    2    1    2    0    0  0.47792996091E+03 -0.45851363090E+03 -0.70438537064E+03  0.97141201412E+03  0.93972089215E+02 0.  0.
         11    1    3    3    0    0  0.52037290737E+02 -0.97949250977E+02 -0.11785147581E+03  0.16183604587E+03  0.00000000000E+00 0. -1.
        -11    1    3    3    0    0  0.42589267017E+03 -0.36056437992E+03 -0.58653389483E+03  0.80957596825E+03  0.00000000000E+00 0.  1.
         22    1    1    2    0    0 -0.47792996091E+03  0.45851363090E+03 -0.40297100359E+03  0.77526603627E+03  0.00000000000E+00 0.  1.
<mgrwt>
<rscale>  0 0.13507946E+04</rscale>
<asrwt>0</asrwt>
<pdfrwt beam="1">  1        2 0.21954111E+00 0.13507946E+04</pdfrwt>
<pdfrwt beam="2">  1       -2 0.49178591E-01 0.13507946E+04</pdfrwt>
<totfact> 0.53375961E+01</totfact>
</mgrwt>
</event>
<event>
 6    1  0.1014650E-006  0.1602534E+04  0.7818608E-02  0.8818993E-01
          2   -1    0    0  501    0  0.00000000000E+00  0.00000000000E+00  0.32420779571E+04  0.32420779571E+04  0.00000000000E+00 0. -1.
         -2   -1    0    0    0  501 -0.00000000000E+00 -0.00000000000E+00 -0.19803010591E+03  0.19803010591E+03  0.00000000000E+00 0.  1.
         23    2    1    2    0    0 -0.30590621586E+03 -0.52452453009E+03  0.41322125428E+03  0.74011673366E+03  0.91194182303E+02 0.  0.
         11    1    3    3    0    0 -0.23025284850E+03 -0.46065810761E+03  0.34855784597E+03  0.62186400308E+03  0.00000000000E+00 0. -1.
        -11    1    3    3    0    0 -0.75653367361E+02 -0.63866422479E+02  0.64663408317E+02  0.11825273057E+03  0.00000000000E+00 0.  1.
         22    1    1    2    0    0  0.30590621586E+03  0.52452453009E+03  0.26308265969E+04  0.26999913294E+04  0.00000000000E+00 0. -1.
<mgrwt>
<rscale>  0 0.16025343E+04</rscale>
<asrwt>0</asrwt>
<pdfrwt beam="1">  1        2 0.49878119E+00 0.16025343E+04</pdfrwt>
<pdfrwt beam="2">  1       -2 0.30466172E-01 0.16025343E+04</pdfrwt>
<totfact> 0.11723129E+01</totfact>
</mgrwt>
</event>
<event>
 6    1  0.1014650E-006  0.1730171E+04  0.7818608E-02  0.8744342E-01
          2   -1    0    0  501    0  0.00000000000E+00  0.00000000000E+00  0.90066574445E+03  0.90066574445E+03  0.00000000000E+00 0. -1.
         -2   -1    0    0    0  501 -0.00000000000E+00 -0.00000000000E+00 -0.83091062872E+03  0.83091062872E+03  0.00000000000E+00 0.  1.
         23    2    1    2    0    0  0.63296354423E+03 -0.18311097015E+02 -0.55130626178E+03  0.84461787401E+03  0.91992468300E+02 0.  0.
         11    1    3    3    0    0  0.45778199930E+03 -0.10114877447E+02 -0.34178569791E+03  0.57138790058E+03  0.00000000000E+00 0.  1.
        -11    1    3    3    0    0  0.17518154493E+03 -0.81962195678E+01 -0.20952056387E+03  0.27322997344E+03  0.00000000000E+00 0. -1.
         22    1    1    2    0    0 -0.63296354423E+03  0.18311097015E+02  0.62106137750E+03  0.88695849916E+03  0.00000000000E+00 0. -1.
<mgrwt>
<rscale>  0 0.17301708E+04</rscale>
<asrwt>0</asrwt>
<pdfrwt beam="1">  1        2 0.13856396E+00 0.17301708E+04</pdfrwt>
<pdfrwt beam="2">  1       -2 0.12783240E+00 0.17301708E+04</pdfrwt>
<totfact> 0.12600147E+01</totfact>
</mgrwt>
</event>
<event>
 6    1  0.1014650E-006  0.2291369E+04  0.7818608E-02  0.8481332E-01
          1   -1    0    0  501    0  0.00000000000E+00  0.00000000000E+00  0.75620982394E+03  0.75620982394E+03  0.00000000000E+00 0. -1.
         -1   -1    0    0    0  501 -0.00000000000E+00 -0.00000000000E+00 -0.17357516032E+04  0.17357516032E+04  0.00000000000E+00 0.  1.
         23    2    1    2    0    0 -0.61513937299E+03 -0.61973782643E+03  0.31309562246E+03  0.93203102035E+03  0.90451823447E+02 0.  0.
         11    1    3    3    0    0 -0.83536953352E+02 -0.44879862451E+02  0.30579971069E+02  0.99638141590E+02  0.00000000000E+00 0.  1.
        -11    1    3    3    0    0 -0.53160241964E+03 -0.57485796398E+03  0.28251565140E+03  0.83239287876E+03  0.00000000000E+00 0. -1.
         22    1    1    2    0    0  0.61513937299E+03  0.61973782643E+03 -0.12926374018E+04  0.15599304068E+04  0.00000000000E+00 0.  1.
<mgrwt>
<rscale>  0 0.22913685E+04</rscale>
<asrwt>0</asrwt>
<pdfrwt beam="1">  1        1 0.11633997E+00 0.22913685E+04</pdfrwt>
<pdfrwt beam="2">  1       -1 0.26703871E+00 0.22913685E+04</pdfrwt>
<totfact> 0.11811890E+00</totfact>
</mgrwt>
</event>
<event>
 6    1  0.1014650E-006  0.1912573E+04  0.7818608E-02  0.8648623E-01
         -2   -1    0    0    0  501 -0.00000000000E+00  0.00000000000E+00  0.50423612859E+03  0.50423612859E+03  0.00000000000E+00 0.  1.
          2   -1    0    0  501    0  0.00000000000E+00 -0.00000000000E+00 -0.18136029076E+04  0.18136029076E+04  0.00000000000E+00 0. -1.
         23    2    1    2    0    0 -0.84529625650E+03 -0.37021867196E+03 -0.36546064758E+03  0.99778357854E+03  0.10209289081E+03 0.  0.
         13    1    3    3    0    0 -0.36826276624E+03 -0.20905259702E+03 -0.19485875360E+03  0.46614416994E+03  0.00000000000E+00 0. -1.
        -13    1    3    3    0    0 -0.47703349026E+03 -0.16116607494E+03 -0.17060189398E+03  0.53163940859E+03  0.00000000000E+00 0.  1.
         22    1    1    2    0    0  0.84529625650E+03  0.37021867196E+03 -0.94390613139E+03  0.13200554576E+04  0.00000000000E+00 0. -1.
<mgrwt>
<rscale>  0 0.19125732E+04</rscale>
<asrwt>0</asrwt>
<pdfrwt beam="1">  1        2 0.27901583E+00 0.19125732E+04</pdfrwt>
<pdfrwt beam="2">  1       -2 0.77574789E-01 0.19125732E+04</pdfrwt>
<totfact> 0.11750483E+01</totfact>
</mgrwt>
</event>
<event>
 6    1  0.1014650E-006  0.3090279E+04  0.7818608E-02  0.8218411E-01
          1   -1    0    0  501    0  0.00000000000E+00  0.00000000000E+00  0.26398127570E+04  0.26398127570E+04  0.00000000000E+00 0. -1.
         -1   -1    0    0    0  501 -0.00000000000E+00 -0.00000000000E+00 -0.90440366297E+03  0.90440366297E+03  0.00000000000E+00 0.  1.
         23    2    1    2    0    0 -0.14893899161E+03 -0.51257444979E+03  0.25296682502E+04  0.25872613547E+04  0.98916487847E+02 0.  0.
         13    1    3    3    0    0 -0.41794262654E+02 -0.31741019593E+03  0.15126551390E+04  0.15461634979E+04  0.00000000000E+00 0. -1.
        -13    1    3    3    0    0 -0.10714472896E+03 -0.19516425387E+03  0.10170131112E+04  0.10410978567E+04  0.00000000000E+00 0.  1.
         22    1    1    2    0    0  0.14893899161E+03  0.51257444979E+03 -0.79425915617E+03  0.95695506528E+03  0.00000000000E+00 0.  1.
<mgrwt>
<rscale>  0 0.30902792E+04</rscale>
<asrwt>0</asrwt>
<pdfrwt beam="1">  1        1 0.40612504E+00 0.30902792E+04</pdfrwt>
<pdfrwt beam="2">  1       -1 0.13913903E+00 0.30902792E+04</pdfrwt>
<totfact> 0.38906156E-01</totfact>
</mgrwt>
</event>
<event>
 6    1  0.1014650E-006  0.1562751E+04  0.7818608E-02  0.8843764E-01
          1   -1    0    0  501    0  0.00000000000E+00  0.00000000000E+00  0.72341950377E+03  0.72341950377E+03  0.00000000000E+00 0. -1.
         -1   -1    0    0    0  501 -0.00000000000E+00 -0.00000000000E+00 -0.84397460729E+03  0.84397460729E+03  0.00000000000E+00 0.  1.
         23    2    1    2    0    0 -0.34929123288E+03 -0.14989116829E+03 -0.74222383814E+03  0.83873524485E+03  0.90049194109E+02 0.  0.
         11    1    3    3    0    0 -0.11874896475E+03 -0.64557693284E+01 -0.21478655057E+03  0.24551223165E+03  0.00000000000E+00 0. -1.
        -11    1    3    3    0    0 -0.23054226813E+03 -0.14343539896E+03 -0.52743728757E+03  0.59322301320E+03  0.00000000000E+00 0.  1.
         22    1    1    2    0    0  0.34929123288E+03  0.14989116829E+03  0.62166873462E+03  0.72865886621E+03  0.00000000000E+00 0. -1.
<mgrwt>
<rscale>  0 0.15627510E+04</rscale>
<asrwt>0</asrwt>
<pdfrwt beam="1">  1        1 0.11129531E+00 0.15627510E+04</pdfrwt>
<pdfrwt beam="2">  1       -1 0.12984225E+00 0.15627510E+04</pdfrwt>
<totfact> 0.12685644E+01</totfact>
</mgrwt>
</event>
<event>
 6    1  0.1014650E-006  0.3955859E+04  0.7818608E-02  0.8013511E-01
          2   -1    0    0  501    0  0.00000000000E+00  0.00000000000E+00  0.31434274908E+04  0.31434274908E+04  0.00000000000E+00 0. -1.
         -2   -1    0    0    0  501 -0.00000000000E+00 -0.00000000000E+00 -0.12445665839E+04  0.12445665839E+04  0.00000000000E+00 0.  1.
         23    2    1    2    0    0 -0.46618129490E+03 -0.96208617056E+03 -0.89519657192E+03  0.13963904924E+04  0.74797763816E+02 0.  0.
         11    1    3    3    0    0 -0.20918296815E+03 -0.43348374358E+03 -0.45172588289E+03  0.66009237489E+03  0.00000000000E+00 0.  1.
        -11    1    3    3    0    0 -0.25699832675E+03 -0.52860242698E+03 -0.44347068903E+03  0.73629811747E+03  0.00000000000E+00 0. -1.
         22    1    1    2    0    0  0.46618129490E+03  0.96208617056E+03  0.27940574788E+04  0.29916035824E+04  0.00000000000E+00 0. -1.
<mgrwt>
<rscale>  0 0.39558589E+04</rscale>
<asrwt>0</asrwt>
<pdfrwt beam="1">  1        2 0.48360423E+00 0.39558589E+04</pdfrwt>
<pdfrwt beam="2">  1       -2 0.19147178E+00 0.39558589E+04</pdfrwt>
<totfact> 0.16913271E-01</totfact>
</mgrwt>
</event>
<event>
 6    1  0.1014650E-006  0.1730450E+04  0.7818608E-02  0.8744186E-01
          2   -1    0    0  501    0  0.00000000000E+00  0.00000000000E+00  0.99461978722E+03  0.99461978722E+03  0.00000000000E+00 0. -1.
         -2   -1    0    0    0  501 -0.00000000000E+00 -0.00000000000E+00 -0.75266405709E+03  0.75266405709E+03  0.00000000000E+00 0.  1.
         23    2    1    2    0    0  0.50586358031E+02  0.53699070396E+03  0.80129958898E+03  0.97024874330E+03  0.91561983428E+02 0.  0.
         11    1    3    3    0    0  0.72046621407E+02  0.28064010678E+03  0.43355033046E+03  0.52145515074E+03  0.00000000000E+00 0.  1.
        -11    1    3    3    0    0 -0.21460263375E+02  0.25635059718E+03  0.36774925852E+03  0.44879359256E+03  0.00000000000E+00 0. -1.
         22    1    1    2    0    0 -0.50586358031E+02 -0.53699070396E+03 -0.55934385886E+03  0.77703510101E+03  0.00000000000E+00 0. -1.
<mgrwt>
<rscale>  0 0.17304503E+04</rscale>
<asrwt>0</asrwt>
<pdfrwt beam="1">  1        2 0.15301843E+00 0.17304503E+04</pdfrwt>
<pdfrwt beam="2">  1       -2 0.11579447E+00 0.17304503E+04</pdfrwt>
<totfact> 0.13976039E+01</totfact>
</mgrwt>
</event>
<event>
 6    1  0.1479779E-006  0.2743434E+04  0.7818608E-02  0.8321048E-01
          1   -1    0    0  501    0  0.00000000000E+00  0.00000000000E+00  0.19980276288E+04  0.19980276288E+04  0.00000000000E+00 0. -1.
         -1   -1    0    0    0  501 -0.00000000000E+00 -0.00000000000E+00 -0.94173280304E+03  0.94173280304E+03  0.00000000000E+00 0.  1.
         23    2    1    2    0    0 -0.11356799083E+03  0.11836563244E+04  0.12582217275E+04  0.17336449911E+04  0.91994874353E+02 0.  0.
         13    1    3    3    0    0 -0.11713463973E+03  0.79877483506E+03  0.87361307202E+03  0.11895215679E+04  0.00000000000E+00 0. -1.
        -13    1    3    3    0    0  0.35666488977E+01  0.38488148931E+03  0.38460865549E+03  0.54412342320E+03  0.00000000000E+00 0.  1.
         22    1    1    2    0    0  0.11356799083E+03 -0.11836563244E+04 -0.20192690173E+03  0.12061154407E+04  0.00000000000E+00 0. -1.
<mgrwt>
<rscale>  0 0.27434345E+04</rscale>
<asrwt>0</asrwt>
<pdfrwt beam="1">  1        1 0.30738887E+00 0.27434345E+04</pdfrwt>
<pdfrwt beam="2">  1       -1 0.14488197E+00 0.27434345E+04</pdfrwt>
<totfact> 0.99558769E-01</totfact>
</mgrwt>
</event>
<event>
 6    1  0.1014650E-006  0.2965932E+04  0.7818608E-02  0.8253527E-01
          1   -1    0    0  501    0  0.00000000000E+00  0.00000000000E+00  0.14310931237E+04  0.14310931237E+04  0.00000000000E+00 0. -1.
         -1   -1    0    0    0  501 -0.00000000000E+00 -0.00000000000E+00 -0.15367187531E+04  0.15367187531E+04  0.00000000000E+00 0.  1.
         23    2    1    2    0    0 -0.13129620907E+04 -0.27451642867E+03  0.57648505756E+03  0.14629850726E+04  0.93603310236E+02 0.  0.
         13    1    3    3    0    0 -0.40103850201E+03 -0.99303913687E+02  0.22203615355E+03  0.46903432800E+03  0.00000000000E+00 0. -1.
        -13    1    3    3    0    0 -0.91192358874E+03 -0.17521251498E+03  0.35444890402E+03  0.99395074459E+03  0.00000000000E+00 0.  1.
         22    1    1    2    0    0  0.13129620907E+04  0.27451642867E+03 -0.68211068694E+03  0.15048268042E+04  0.00000000000E+00 0.  1.
<mgrwt>
<rscale>  0 0.29659317E+04</rscale>
<asrwt>0</asrwt>
<pdfrwt beam="1">  1        1 0.22016817E+00 0.29659317E+04</pdfrwt>
<pdfrwt beam="2">  1       -1 0.23641827E+00 0.29659317E+04</pdfrwt>
<totfact> 0.53383290E-01</totfact>
</mgrwt>
</event>
<event>
 6    1  0.1014650E-006  0.1505500E+04  0.7818608E-02  0.8880804E-01
         -2   -1    0    0    0  501 -0.00000000000E+00  0.00000000000E+00  0.16237839107E+03  0.16237839107E+03  0.00000000000E+00 0.  1.
          2   -1    0    0  501    0  0.00000000000E+00 -0.00000000000E+00 -0.34895805282E+04  0.34895805282E+04  0.00000000000E+00 0. -1.
         23    2    1    2    0    0  0.27263533806E+03  0.44048931244E+03 -0.35359630320E+03  0.63356654625E+03  0.89528548321E+02 0.  0.
         13    1    3    3    0    0  0.13285978953E+02  0.27075636552E+01  0.62989467351E+00  0.13573684282E+02  0.00000000000E+00 0. -1.
        -13    1    3    3    0    0  0.25934935911E+03  0.43778174878E+03 -0.35422619787E+03  0.61999286197E+03  0.00000000000E+00 0.  1.
         22    1    1    2    0    0 -0.27263533806E+03 -0.44048931244E+03 -0.29736058340E+04  0.30183923730E+04  0.00000000000E+00 0. -1.
<mgrwt>
<rscale>  0 0.15054999E+04</rscale>
<asrwt>0</asrwt>
<pdfrwt beam="1">  1        2 0.53685853E+00 0.15054999E+04</pdfrwt>
<pdfrwt beam="2">  1       -2 0.24981292E-01 0.15054999E+04</pdfrwt>
<totfact> 0.11630938E+01</totfact>
</mgrwt>
</event>
<event>
 6    1  0.1014650E-006  0.1632762E+04  0.7818608E-02  0.8800670E-01
         -2   -1    0    0    0  501 -0.00000000000E+00  0.00000000000E+00  0.50823886758E+03  0.50823886758E+03  0.00000000000E+00 0.  1.
          2   -1    0    0  501    0  0.00000000000E+00 -0.00000000000E+00 -0.13113485842E+04  0.13113485842E+04  0.00000000000E+00 0. -1.
         23    2    1    2    0    0  0.10913188420E+03  0.97663893163E+02 -0.12949360886E+04  0.13064196582E+04  0.91786957553E+02 0.  0.
         11    1    3    3    0    0  0.41385409316E+02  0.69254549818E+02 -0.96682344631E+03  0.97018375636E+03  0.00000000000E+00 0. -1.
        -11    1    3    3    0    0  0.67746474888E+02  0.28409343345E+02 -0.32811264226E+03  0.33623590180E+03  0.00000000000E+00 0.  1.
         22    1    1    2    0    0 -0.10913188420E+03 -0.97663893163E+02  0.49182637199E+03  0.51316779358E+03  0.00000000000E+00 0.  1.
<mgrwt>
<rscale>  0 0.16327625E+04</rscale>
<asrwt>0</asrwt>
<pdfrwt beam="1">  1        2 0.20174593E+00 0.16327625E+04</pdfrwt>
<pdfrwt beam="2">  1       -2 0.78190596E-01 0.16327625E+04</pdfrwt>
<totfact> 0.22663527E+01</totfact>
</mgrwt>
</event>
<event>
 6    1  0.1014650E-006  0.1164392E+04  0.7818608E-02  0.9144608E-01
          2   -1    0    0  501    0  0.00000000000E+00  0.00000000000E+00  0.14188414473E+04  0.14188414473E+04  0.00000000000E+00 0. -1.
         -2   -1    0    0    0  501 -0.00000000000E+00 -0.00000000000E+00 -0.23889348666E+03  0.23889348666E+03  0.00000000000E+00 0.  1.
         23    2    1    2    0    0  0.37967176271E+03  0.33237070115E+03  0.99696012039E+03  0.11209803531E+04  0.89702508324E+02 0.  0.
         11    1    3    3    0    0  0.18324202451E+03  0.21816073508E+03  0.53295725493E+03  0.60433035788E+03  0.00000000000E+00 0.  1.
        -11    1    3    3    0    0  0.19642973820E+03  0.11420996607E+03  0.46400286546E+03  0.51664999522E+03  0.00000000000E+00 0. -1.
         22    1    1    2    0    0 -0.37967176271E+03 -0.33237070115E+03  0.18298784022E+03  0.53675458084E+03  0.00000000000E+00 0.  1.
<mgrwt>
<rscale>  0 0.11643917E+04</rscale>
<asrwt>0</asrwt>
<pdfrwt beam="1">  1        2 0.21828329E+00 0.11643917E+04</pdfrwt>
<pdfrwt beam="2">  1       -2 0.36752845E-01 0.11643917E+04</pdfrwt>
<totfact> 0.97282731E+01</totfact>
</mgrwt>
</event>
<event>
 6    1  0.1014650E-006  0.1894555E+04  0.7818608E-02  0.8657571E-01
          1   -1    0    0  501    0  0.00000000000E+00  0.00000000000E+00  0.15091162497E+04  0.15091162497E+04  0.00000000000E+00 0. -1.
         -1   -1    0    0    0  501 -0.00000000000E+00 -0.00000000000E+00 -0.59460938196E+03  0.59460938196E+03  0.00000000000E+00 0.  1.
         23    2    1    2    0    0  0.28369846007E+02  0.43053148912E+03  0.13919635181E+04  0.14601985815E+04  0.91952435049E+02 0.  0.
         13    1    3    3    0    0 -0.21185320977E+02  0.12005782961E+03  0.49266012313E+03  0.50752014462E+03  0.00000000000E+00 0.  1.
        -13    1    3    3    0    0  0.49555166985E+02  0.31047365951E+03  0.89930339499E+03  0.95267843686E+03  0.00000000000E+00 0. -1.
         22    1    1    2    0    0 -0.28369846007E+02 -0.43053148912E+03 -0.47745665040E+03  0.64352705016E+03  0.00000000000E+00 0.  1.
<mgrwt>
<rscale>  0 0.18945550E+04</rscale>
<asrwt>0</asrwt>
<pdfrwt beam="1">  1        1 0.23217173E+00 0.18945550E+04</pdfrwt>
<pdfrwt beam="2">  1       -1 0.91478367E-01 0.18945550E+04</pdfrwt>
<totfact> 0.70308815E+00</totfact>
</mgrwt>
</event>
<event>
 6    1  0.1014650E-006  0.4928330E+04  0.7818608E-02  0.7839659E-01
          1   -1    0    0  501    0  0.00000000000E+00  0.00000000000E+00  0.18885559438E+04  0.18885559438E+04  0.00000000000E+00 0. -1.
         -1   -1    0    0    0  501 -0.00000000000E+00 -0.00000000000E+00 -0.32152131073E+04  0.32152131073E+04  0.00000000000E+00 0.  1.
         23    2    1    2    0    0  0.13743778157E+04 -0.15465251882E+04  0.72099067753E+03  0.21928385781E+04  0.89771566537E+02 0.  0.
         13    1    3    3    0    0  0.11932398978E+04 -0.13024157640E+04  0.59688047198E+03  0.18645038412E+04  0.00000000000E+00 0.  1.
        -13    1    3    3    0    0  0.18113791793E+03 -0.24410942421E+03  0.12411020556E+03  0.32833473685E+03  0.00000000000E+00 0. -1.
         22    1    1    2    0    0 -0.13743778157E+04  0.15465251882E+04 -0.20476478410E+04  0.29109304730E+04  0.00000000000E+00 0.  1.
<mgrwt>
<rscale>  0 0.49283303E+04</rscale>
<asrwt>0</asrwt>
<pdfrwt beam="1">  1        1 0.29054707E+00 0.49283303E+04</pdfrwt>
<pdfrwt beam="2">  1       -1 0.49464817E+00 0.49283303E+04</pdfrwt>
<totfact> 0.41791040E-03</totfact>
</mgrwt>
</event>
<event>
 6    1  0.1014650E-006  0.1590975E+04  0.7818608E-02  0.8826112E-01
          2   -1    0    0  501    0  0.00000000000E+00  0.00000000000E+00  0.17598642019E+04  0.17598642019E+04  0.00000000000E+00 0. -1.
         -2   -1    0    0    0  501 -0.00000000000E+00 -0.00000000000E+00 -0.35957343900E+03  0.35957343900E+03  0.00000000000E+00 0.  1.
         23    2    1    2    0    0  0.48642563394E+03 -0.13760348533E+03  0.15161393889E+04  0.16008187822E+04  0.91637929368E+02 0.  0.
         13    1    3    3    0    0  0.34918374782E+03 -0.65474756231E+02  0.96635179752E+03  0.10295882818E+04  0.00000000000E+00 0. -1.
        -13    1    3    3    0    0  0.13724188612E+03 -0.72128729103E+02  0.54978759142E+03  0.57123050037E+03  0.00000000000E+00 0.  1.
         22    1    1    2    0    0 -0.48642563394E+03  0.13760348533E+03 -0.11584862600E+03  0.51861885878E+03  0.00000000000E+00 0.  1.
<mgrwt>
<rscale>  0 0.15909751E+04</rscale>
<asrwt>0</asrwt>
<pdfrwt beam="1">  1        2 0.27074833E+00 0.15909751E+04</pdfrwt>
<pdfrwt beam="2">  1       -2 0.55318992E-01 0.15909751E+04</pdfrwt>
<totfact> 0.26771692E+01</totfact>
</mgrwt>
</event>
<event>
 6    1  0.1014650E-006  0.1999718E+04  0.7818608E-02  0.8606752E-01
         -2   -1    0    0    0  501 -0.00000000000E+00  0.00000000000E+00  0.56430817952E+03  0.56430817952E+03  0.00000000000E+00 0.  1.
          2   -1    0    0  501    0  0.00000000000E+00 -0.00000000000E+00 -0.17715823733E+04  0.17715823733E+04  0.00000000000E+00 0. -1.
         23    2    1    2    0    0  0.47788543043E+03 -0.59045179124E+03 -0.13606762012E+04  0.15609454074E+04  0.90016876743E+02 0.  0.
         11    1    3    3    0    0  0.23050999419E+03 -0.31022917556E+03 -0.60572911534E+03  0.71852958182E+03  0.00000000000E+00 0. -1.
        -11    1    3    3    0    0  0.24737543624E+03 -0.28022261568E+03 -0.75494708587E+03  0.84241582562E+03  0.00000000000E+00 0.  1.
         22    1    1    2    0    0 -0.47788543043E+03  0.59045179124E+03  0.15340200746E+03  0.77494514534E+03  0.00000000000E+00 0.  1.
<mgrwt>
<rscale>  0 0.19997184E+04</rscale>
<asrwt>0</asrwt>
<pdfrwt beam="1">  1        2 0.27255114E+00 0.19997184E+04</pdfrwt>
<pdfrwt beam="2">  1       -2 0.86816642E-01 0.19997184E+04</pdfrwt>
<totfact> 0.95441087E+00</totfact>
</mgrwt>
</event>
<event>
 6    1  0.1115982E-006  0.3935740E+04  0.7818608E-02  0.8017637E-01
         -2   -1    0    0    0  501 -0.00000000000E+00  0.00000000000E+00  0.20020117279E+04  0.20020117279E+04  0.00000000000E+00 0.  1.
          2   -1    0    0  501    0  0.00000000000E+00 -0.00000000000E+00 -0.19343107759E+04  0.19343107759E+04  0.00000000000E+00 0. -1.
         23    2    1    2    0    0 -0.49648026906E+03 -0.17997668866E+04  0.65234864605E+03  0.19799313287E+04  0.94423548626E+02 0.  0.
         13    1    3    3    0    0 -0.38418060295E+03 -0.12826885733E+04  0.50010982146E+03  0.14293336019E+04  0.00000000000E+00 0. -1.
        -13    1    3    3    0    0 -0.11229966610E+03 -0.51707831327E+03  0.15223882458E+03  0.55059772682E+03  0.00000000000E+00 0.  1.
         22    1    1    2    0    0  0.49648026906E+03  0.17997668866E+04 -0.58464769407E+03  0.19563911751E+04  0.00000000000E+00 0. -1.
<mgrwt>
<rscale>  0 0.39357403E+04</rscale>
<asrwt>0</asrwt>
<pdfrwt beam="1">  1        2 0.29758627E+00 0.39357403E+04</pdfrwt>
<pdfrwt beam="2">  1       -2 0.30800180E+00 0.39357403E+04</pdfrwt>
<totfact> 0.16358867E-01</totfact>
</mgrwt>
</event>
<event>
 6    1  0.1014650E-006  0.1596387E+04  0.7818608E-02  0.8822771E-01
         -1   -1    0    0    0  501 -0.00000000000E+00  0.00000000000E+00  0.64657346096E+03  0.64657346096E+03  0.00000000000E+00 0.  1.
          1   -1    0    0  501    0  0.00000000000E+00 -0.00000000000E+00 -0.98536773577E+03  0.98536773577E+03  0.00000000000E+00 0. -1.
         23    2    1    2    0    0 -0.37809933455E+03  0.23617477511E+03  0.50366101998E+03  0.67880502865E+03  0.91456069704E+02 0.  0.
         13    1    3    3    0    0 -0.95267484929E+02  0.79267462921E+02  0.19921866696E+03  0.23462161373E+03  0.00000000000E+00 0.  1.
        -13    1    3    3    0    0 -0.28283184962E+03  0.15690731219E+03  0.30444235302E+03  0.44418341492E+03  0.00000000000E+00 0. -1.
         22    1    1    2    0    0  0.37809933455E+03 -0.23617477511E+03 -0.84245529479E+03  0.95313616808E+03  0.00000000000E+00 0. -1.
<mgrwt>
<rscale>  0 0.15963867E+04</rscale>
<asrwt>0</asrwt>
<pdfrwt beam="1">  1        1 0.15159504E+00 0.15963867E+04</pdfrwt>
<pdfrwt beam="2">  1       -1 0.99472840E-01 0.15963867E+04</pdfrwt>
<totfact> 0.14389759E+01</totfact>
</mgrwt>
</event>
<event>
 6    1  0.1014650E-006  0.3321295E+04  0.7818608E-02  0.8157498E-01
          1   -1    0    0  501    0  0.00000000000E+00  0.00000000000E+00  0.11372937291E+04  0.11372937291E+04  0.00000000000E+00 0. -1.
         -1   -1    0    0    0  501 -0.00000000000E+00 -0.00000000000E+00 -0.24248349094E+04  0.24248349094E+04  0.00000000000E+00 0.  1.
         23    2    1    2    0    0  0.91462484073E+03 -0.14077389466E+03 -0.21215580214E+04  0.23163598076E+04  0.90324035552E+02 0.  0.
         13    1    3    3    0    0  0.50700850331E+03 -0.39326453583E+02 -0.11027831279E+04  0.12143866022E+04  0.00000000000E+00 0.  1.
        -13    1    3    3    0    0  0.40761633742E+03 -0.10144744107E+03 -0.10187748935E+04  0.11019732054E+04  0.00000000000E+00 0. -1.
         22    1    1    2    0    0 -0.91462484073E+03  0.14077389466E+03  0.83401684118E+03  0.12457688309E+04  0.00000000000E+00 0. -1.
<mgrwt>
<rscale>  0 0.33212946E+04</rscale>
<asrwt>0</asrwt>
<pdfrwt beam="1">  1        1 0.17496827E+00 0.33212946E+04</pdfrwt>
<pdfrwt beam="2">  1       -1 0.37305152E+00 0.33212946E+04</pdfrwt>
<totfact> 0.10723513E-01</totfact>
</mgrwt>
</event>
<event>
 6    1  0.1014650E-006  0.1591901E+04  0.7818608E-02  0.8825539E-01
          1   -1    0    0  501    0  0.00000000000E+00  0.00000000000E+00  0.12779054641E+04  0.12779054641E+04  0.00000000000E+00 0. -1.
         -1   -1    0    0    0  501 -0.00000000000E+00 -0.00000000000E+00 -0.49576204678E+03  0.49576204678E+03  0.00000000000E+00 0.  1.
         23    2    1    2    0    0  0.19848762298E+03  0.10484060951E+03  0.12401684392E+04  0.12635931923E+04  0.90890639198E+02 0.  0.
         11    1    3    3    0    0  0.95616144941E+02  0.78482915485E+01  0.62966846415E+03  0.63693517535E+03  0.00000000000E+00 0.  1.
        -11    1    3    3    0    0  0.10287147804E+03  0.96992317957E+02  0.61049997503E+03  0.62665801698E+03  0.00000000000E+00 0. -1.
         22    1    1    2    0    0 -0.19848762298E+03 -0.10484060951E+03 -0.45802502181E+03  0.51007431859E+03  0.00000000000E+00 0.  1.
<mgrwt>
<rscale>  0 0.15919008E+04</rscale>
<asrwt>0</asrwt>
<pdfrwt beam="1">  1        1 0.19660084E+00 0.15919008E+04</pdfrwt>
<pdfrwt beam="2">  1       -1 0.76271085E-01 0.15919008E+04</pdfrwt>
<totfact> 0.15547835E+01</totfact>
</mgrwt>
</event>
<event>
 6    1  0.1014650E-006  0.1363467E+04  0.7818608E-02  0.8980696E-01
         -3   -1    0    0    0  501 -0.00000000000E+00  0.00000000000E+00  0.23568068877E+04  0.23568068877E+04  0.00000000000E+00 0.  1.
          3   -1    0    0  501    0  0.00000000000E+00 -0.00000000000E+00 -0.19719929145E+03  0.19719929145E+03  0.00000000000E+00 0. -1.
         23    2    1    2    0    0  0.13530013607E+03 -0.32188842184E+03  0.21748571081E+04  0.22045053486E+04  0.89006227837E+02 0.  0.
         11    1    3    3    0    0  0.33115822442E+02 -0.14155875259E+03  0.68158846826E+03  0.69692063981E+03  0.00000000000E+00 0. -1.
        -11    1    3    3    0    0  0.10218431363E+03 -0.18032966925E+03  0.14932686398E+04  0.15075847088E+04  0.00000000000E+00 0.  1.
         22    1    1    2    0    0 -0.13530013607E+03  0.32188842184E+03 -0.15249511830E+02  0.34950083054E+03  0.00000000000E+00 0. -1.
<mgrwt>
<rscale>  0 0.13634671E+04</rscale>
<asrwt>0</asrwt>
<pdfrwt beam="1">  1        3 0.30338354E-01 0.13634671E+04</pdfrwt>
<pdfrwt beam="2">  1       -3 0.36258565E+00 0.13634671E+04</pdfrwt>
<totfact> 0.46805897E-01</totfact>
</mgrwt>
</event>
<event>
 6    1  0.1014650E-006  0.3477152E+04  0.7818608E-02  0.8119226E-01
         -1   -1    0    0    0  501 -0.00000000000E+00  0.00000000000E+00  0.13642257592E+04  0.13642257592E+04  0.00000000000E+00 0.  1.
          1   -1    0    0  501    0  0.00000000000E+00 -0.00000000000E+00 -0.22156493343E+04  0.22156493343E+04  0.00000000000E+00 0. -1.
         23    2    1    2    0    0  0.87353984124E+03  0.14862697251E+04 -0.64747171881E+03  0.18438837601E+04  0.92833959270E+02 0.  0.
         13    1    3    3    0    0  0.63884208487E+03  0.10607608639E+04 -0.42231772418E+03  0.13083138308E+04  0.00000000000E+00 0. -1.
        -13    1    3    3    0    0  0.23469775638E+03  0.42550886118E+03 -0.22515399463E+03  0.53556992923E+03  0.00000000000E+00 0.  1.
         22    1    1    2    0    0 -0.87353984124E+03 -0.14862697251E+04 -0.20395185627E+03  0.17359913334E+04  0.00000000000E+00 0.  1.
<mgrwt>
<rscale>  0 0.34771516E+04</rscale>
<asrwt>0</asrwt>
<pdfrwt beam="1">  1        1 0.34086913E+00 0.34771516E+04</pdfrwt>
<pdfrwt beam="2">  1       -1 0.20988089E+00 0.34771516E+04</pdfrwt>
<totfact> 0.22379268E-01</totfact>
</mgrwt>
</event>
<event>
 6    1  0.1014650E-006  0.8814702E+03  0.7818608E-02  0.9449046E-01
          1   -1    0    0  501    0  0.00000000000E+00  0.00000000000E+00  0.82795314736E+03  0.82795314736E+03  0.00000000000E+00 0. -1.
         -1   -1    0    0    0  501 -0.00000000000E+00 -0.00000000000E+00 -0.23461163963E+03  0.23461163963E+03  0.00000000000E+00 0.  1.
         23    2    1    2    0    0  0.15938758681E+03 -0.34270584201E+03  0.34968757859E+02  0.38830087369E+03  0.81872202281E+02 0.  0.
         11    1    3    3    0    0  0.74262291690E+02 -0.20000180262E+03 -0.17470083858E+02  0.21405796609E+03  0.00000000000E+00 0.  1.
        -11    1    3    3    0    0  0.85125295122E+02 -0.14270403939E+03  0.52438841717E+02  0.17424290760E+03  0.00000000000E+00 0. -1.
         22    1    1    2    0    0 -0.15938758681E+03  0.34270584201E+03  0.55837274987E+03  0.67426391330E+03  0.00000000000E+00 0. -1.
<mgrwt>
<rscale>  0 0.88147024E+03</rscale>
<asrwt>0</asrwt>
<pdfrwt beam="1">  1        1 0.12737741E+00 0.88147024E+03</pdfrwt>
<pdfrwt beam="2">  1       -1 0.36094099E-01 0.88147024E+03</pdfrwt>
<totfact> 0.15464232E+02</totfact>
</mgrwt>
</event>
<event>
 6    1  0.1014650E-006  0.3339464E+04  0.7818608E-02  0.8152926E-01
         -2   -1    0    0    0  501 -0.00000000000E+00  0.00000000000E+00  0.13200413384E+04  0.13200413384E+04  0.00000000000E+00 0.  1.
          2   -1    0    0  501    0  0.00000000000E+00 -0.00000000000E+00 -0.21120583252E+04  0.21120583252E+04  0.00000000000E+00 0. -1.
         23    2    1    2    0    0 -0.94354141689E+03 -0.13025482353E+04  0.59689614818E+02  0.16121253655E+04  0.92103384180E+02 0.  0.
         13    1    3    3    0    0 -0.34147197275E+03 -0.40738329147E+03 -0.18716162232E+01  0.53157102752E+03  0.00000000000E+00 0.  1.
        -13    1    3    3    0    0 -0.60206944413E+03 -0.89516494380E+03  0.61561231041E+02  0.10805543380E+04  0.00000000000E+00 0. -1.
         22    1    1    2    0    0  0.94354141689E+03  0.13025482353E+04 -0.85170660160E+03  0.18199742981E+04  0.00000000000E+00 0.  1.
<mgrwt>
<rscale>  0 0.33394636E+04</rscale>
<asrwt>0</asrwt>
<pdfrwt beam="1">  1        2 0.32493205E+00 0.33394636E+04</pdfrwt>
<pdfrwt beam="2">  1       -2 0.20308329E+00 0.33394636E+04</pdfrwt>
<totfact> 0.61151138E-01</totfact>
</mgrwt>
</event>
<event>
 6    1  0.1014650E-006  0.3695362E+04  0.7818608E-02  0.8068990E-01
         -2   -1    0    0    0  501 -0.00000000000E+00  0.00000000000E+00  0.16735517612E+04  0.16735517612E+04  0.00000000000E+00 0.  1.
          2   -1    0    0  501    0  0.00000000000E+00 -0.00000000000E+00 -0.20399284094E+04  0.20399284094E+04  0.00000000000E+00 0. -1.
         23    2    1    2    0    0 -0.30537989573E+03 -0.17850694388E+04 -0.54621493469E+03  0.18935703950E+04  0.86765800116E+02 0.  0.
         13    1    3    3    0    0 -0.26810716792E+02 -0.18167482561E+03 -0.28821552414E+02  0.18589039427E+03  0.00000000000E+00 0. -1.
        -13    1    3    3    0    0 -0.27856917894E+03 -0.16033946132E+04 -0.51739338227E+03  0.17076800008E+04  0.00000000000E+00 0.  1.
         22    1    1    2    0    0  0.30537989573E+03  0.17850694388E+04  0.17983828649E+03  0.18199097756E+04  0.00000000000E+00 0.  1.
<mgrwt>
<rscale>  0 0.36953624E+04</rscale>
<asrwt>0</asrwt>
<pdfrwt beam="1">  1        2 0.31383514E+00 0.36953624E+04</pdfrwt>
<pdfrwt beam="2">  1       -2 0.25746950E+00 0.36953624E+04</pdfrwt>
<totfact> 0.29683184E-01</totfact>
</mgrwt>
</event>
<event>
 6    1  0.1014650E-006  0.4670542E+03  0.7818608E-02  0.1022755E+00
         -2   -1    0    0    0  501 -0.00000000000E+00  0.00000000000E+00  0.56009681725E+02  0.56009681725E+02  0.00000000000E+00 0.  1.
          2   -1    0    0  501    0  0.00000000000E+00 -0.00000000000E+00 -0.97366910004E+03  0.97366910004E+03  0.00000000000E+00 0. -1.
         23    2    1    2    0    0 -0.21000607604E+03 -0.41217590126E+02 -0.32590744931E+03  0.40041585220E+03  0.91190720271E+02 0.  0.
         11    1    3    3    0    0 -0.13306162836E+03  0.16881041395E+02 -0.16272642290E+03  0.21087971740E+03  0.00000000000E+00 0. -1.
        -11    1    3    3    0    0 -0.76944447685E+02 -0.58098631522E+02 -0.16318102641E+03  0.18953613480E+03  0.00000000000E+00 0.  1.
         22    1    1    2    0    0  0.21000607604E+03  0.41217590126E+02 -0.59175196901E+03  0.62926292957E+03  0.00000000000E+00 0. -1.
<mgrwt>
<rscale>  0 0.46705416E+03</rscale>
<asrwt>0</asrwt>
<pdfrwt beam="1">  1        2 0.14979524E+00 0.46705416E+03</pdfrwt>
<pdfrwt beam="2">  1       -2 0.86168746E-02 0.46705416E+03</pdfrwt>
<totfact> 0.22971043E+03</totfact>
</mgrwt>
</event>
<event>
 6    1  0.1014650E-006  0.2475520E+04  0.7818608E-02  0.8411759E-01
         -1   -1    0    0    0  501 -0.00000000000E+00  0.00000000000E+00  0.53436358398E+03  0.53436358398E+03  0.00000000000E+00 0.  1.
          1   -1    0    0  501    0  0.00000000000E+00 -0.00000000000E+00 -0.28670542673E+04  0.28670542673E+04  0.00000000000E+00 0. -1.
         23    2    1    2    0    0  0.61497483476E+03  0.72231796827E+03 -0.22568474795E+04  0.24497406549E+04  0.89058609146E+02 0.  0.
         13    1    3    3    0    0  0.61581282480E+02  0.48142634370E+02 -0.23887938212E+03  0.25134304605E+03  0.00000000000E+00 0. -1.
        -13    1    3    3    0    0  0.55339355228E+03  0.67417533390E+03 -0.20179680974E+04  0.21983976088E+04  0.00000000000E+00 0.  1.
         22    1    1    2    0    0 -0.61497483476E+03 -0.72231796827E+03 -0.75843203895E+02  0.95167719645E+03  0.00000000000E+00 0.  1.
<mgrwt>
<rscale>  0 0.24755197E+04</rscale>
<asrwt>0</asrwt>
<pdfrwt beam="1">  1        1 0.44108525E+00 0.24755197E+04</pdfrwt>
<pdfrwt beam="2">  1       -1 0.82209785E-01 0.24755197E+04</pdfrwt>
<totfact> 0.97739420E-01</totfact>
</mgrwt>
</event>
<event>
 6    1  0.1014650E-006  0.2609989E+04  0.7818608E-02  0.8364816E-01
          2   -1    0    0  501    0  0.00000000000E+00  0.00000000000E+00  0.21017643921E+04  0.21017643921E+04  0.00000000000E+00 0. -1.
         -2   -1    0    0    0  501 -0.00000000000E+00 -0.00000000000E+00 -0.81027668569E+03  0.81027668569E+03  0.00000000000E+00 0.  1.
         23    2    1    2    0    0 -0.11896312175E+04  0.34343126064E+03  0.19210910018E+03  0.12562026846E+04  0.89285016658E+02 0.  0.
         13    1    3    3    0    0 -0.53431872988E+03  0.11265068994E+03  0.10393445915E+03  0.55586783936E+03  0.00000000000E+00 0.  1.
        -13    1    3    3    0    0 -0.65531248758E+03  0.23078057069E+03  0.88174641034E+02  0.70033484528E+03  0.00000000000E+00 0. -1.
         22    1    1    2    0    0  0.11896312175E+04 -0.34343126064E+03  0.10993786062E+04  0.16558383931E+04  0.00000000000E+00 0.  1.
<mgrwt>
<rscale>  0 0.26099890E+04</rscale>
<asrwt>0</asrwt>
<pdfrwt beam="1">  1        2 0.32334837E+00 0.26099890E+04</pdfrwt>
<pdfrwt beam="2">  1       -2 0.12465795E+00 0.26099890E+04</pdfrwt>
<totfact> 0.25015017E+00</totfact>
</mgrwt>
</event>
<event>
 6    1  0.1014650E-006  0.1727152E+04  0.7818608E-02  0.8746029E-01
         -2   -1    0    0    0  501 -0.00000000000E+00  0.00000000000E+00  0.31870997170E+03  0.31870997170E+03  0.00000000000E+00 0.  1.
          2   -1    0    0  501    0  0.00000000000E+00 -0.00000000000E+00 -0.23399431115E+04  0.23399431115E+04  0.00000000000E+00 0. -1.
         23    2    1    2    0    0 -0.92030271685E+02  0.13482693940E+03 -0.23150092941E+04  0.23225693089E+04  0.91718528429E+02 0.  0.
         13    1    3    3    0    0 -0.66931726217E+02  0.33691771044E+02 -0.65053823567E+03  0.65483966547E+03  0.00000000000E+00 0. -1.
        -13    1    3    3    0    0 -0.25098545468E+02  0.10113516835E+03 -0.16644710585E+04  0.16677296435E+04  0.00000000000E+00 0.  1.
         22    1    1    2    0    0  0.92030271685E+02 -0.13482693940E+03  0.29377615430E+03  0.33608377428E+03  0.00000000000E+00 0.  1.
<mgrwt>
<rscale>  0 0.17271516E+04</rscale>
<asrwt>0</asrwt>
<pdfrwt beam="1">  1        2 0.35999125E+00 0.17271516E+04</pdfrwt>
<pdfrwt beam="2">  1       -2 0.49032303E-01 0.17271516E+04</pdfrwt>
<totfact> 0.16102694E+01</totfact>
</mgrwt>
</event>
<event>
 6    1  0.1014650E-006  0.2915198E+04  0.7818608E-02  0.8268370E-01
          1   -1    0    0  501    0  0.00000000000E+00  0.00000000000E+00  0.21036413053E+04  0.21036413053E+04  0.00000000000E+00 0. -1.
         -1   -1    0    0    0  501 -0.00000000000E+00 -0.00000000000E+00 -0.10099604533E+04  0.10099604533E+04  0.00000000000E+00 0.  1.
         23    2    1    2    0    0  0.93731681912E+03 -0.98825981981E+03 -0.20250452699E+01  0.13655194654E+04  0.97051628642E+02 0.  0.
         13    1    3    3    0    0  0.49194616598E+03 -0.44819196898E+03 -0.12920856558E+01  0.66549886609E+03  0.00000000000E+00 0. -1.
        -13    1    3    3    0    0  0.44537065313E+03 -0.54006785082E+03 -0.73295961410E+00  0.70002059927E+03  0.00000000000E+00 0.  1.
         22    1    1    2    0    0 -0.93731681912E+03  0.98825981981E+03  0.10957058972E+04  0.17480822933E+04  0.00000000000E+00 0. -1.
<mgrwt>
<rscale>  0 0.29151978E+04</rscale>
<asrwt>0</asrwt>
<pdfrwt beam="1">  1        1 0.32363712E+00 0.29151978E+04</pdfrwt>
<pdfrwt beam="2">  1       -1 0.15537853E+00 0.29151978E+04</pdfrwt>
<totfact> 0.68850279E-01</totfact>
</mgrwt>
</event>
<event>
 6    1  0.1014650E-006  0.6646688E+03  0.7818608E-02  0.9779637E-01
         -2   -1    0    0    0  501 -0.00000000000E+00  0.00000000000E+00  0.10215149713E+03  0.10215149713E+03  0.00000000000E+00 0.  1.
          2   -1    0    0  501    0  0.00000000000E+00 -0.00000000000E+00 -0.10811997002E+04  0.10811997002E+04  0.00000000000E+00 0. -1.
         23    2    1    2    0    0 -0.10402878647E+03 -0.15189784448E+03 -0.18553345506E+02  0.20537097515E+03  0.89095831729E+02 0.  0.
         13    1    3    3    0    0 -0.27056350988E+02 -0.71944551562E+02  0.32196553554E+02  0.83334762789E+02  0.00000000000E+00 0. -1.
        -13    1    3    3    0    0 -0.76972435482E+02 -0.79953292921E+02 -0.50749899059E+02  0.12203621236E+03  0.00000000000E+00 0.  1.
         22    1    1    2    0    0  0.10402878647E+03  0.15189784448E+03 -0.96049485752E+03  0.97798022214E+03  0.00000000000E+00 0. -1.
<mgrwt>
<rscale>  0 0.66466884E+03</rscale>
<asrwt>0</asrwt>
<pdfrwt beam="1">  1        2 0.16633842E+00 0.66466884E+03</pdfrwt>
<pdfrwt beam="2">  1       -2 0.15715614E-01 0.66466884E+03</pdfrwt>
<totfact> 0.73061695E+02</totfact>
</mgrwt>
</event>
<event>
 6    1  0.1014650E-006  0.1034738E+04  0.7818608E-02  0.9271244E-01
          1   -1    0    0  501    0  0.00000000000E+00  0.00000000000E+00  0.97635892632E+03  0.97635892632E+03  0.00000000000E+00 0. -1.
         -1   -1    0    0    0  501 -0.00000000000E+00 -0.00000000000E+00 -0.27415211491E+03  0.27415211491E+03  0.00000000000E+00 0.  1.
         23    2    1    2    0    0  0.91542454171E+02  0.48278767596E+03  0.53138034852E+03  0.73027490119E+03  0.97326232556E+02 0.  0.
         11    1    3    3    0    0 -0.95069060526E+01  0.17149898895E+03  0.21367289549E+03  0.27415030684E+03  0.00000000000E+00 0. -1.
        -11    1    3    3    0    0  0.10104936022E+03  0.31128868701E+03  0.31770745303E+03  0.45612459435E+03  0.00000000000E+00 0.  1.
         22    1    1    2    0    0 -0.91542454171E+02 -0.48278767596E+03  0.17082646290E+03  0.52023614004E+03  0.00000000000E+00 0.  1.
<mgrwt>
<rscale>  0 0.10347384E+04</rscale>
<asrwt>0</asrwt>
<pdfrwt beam="1">  1        1 0.15020906E+00 0.10347384E+04</pdfrwt>
<pdfrwt beam="2">  1       -1 0.42177249E-01 0.10347384E+04</pdfrwt>
<totfact> 0.87230975E+01</totfact>
</mgrwt>
</event>
<event>
 6    1  0.1014650E-006  0.4459028E+04  0.7818608E-02  0.7917849E-01
         -2   -1    0    0    0  501 -0.00000000000E+00  0.00000000000E+00  0.11030890922E+04  0.11030890922E+04  0.00000000000E+00 0.  1.
          2   -1    0    0  501    0  0.00000000000E+00 -0.00000000000E+00 -0.45061926411E+04  0.45061926411E+04  0.00000000000E+00 0. -1.
         23    2    1    2    0    0  0.74727732676E+03 -0.18584539963E+04 -0.47331417108E+03  0.20602057328E+04  0.90259059119E+02 0.  0.
         11    1    3    3    0    0  0.36771997536E+03 -0.80527298571E+03 -0.22818742289E+03  0.91419476139E+03  0.00000000000E+00 0. -1.
        -11    1    3    3    0    0  0.37955735140E+03 -0.10531810106E+04 -0.24512674819E+03  0.11460109714E+04  0.00000000000E+00 0.  1.
         22    1    1    2    0    0 -0.74727732676E+03  0.18584539963E+04 -0.29297893778E+04  0.35490760005E+04  0.00000000000E+00 0. -1.
<mgrwt>
<rscale>  0 0.44590277E+04</rscale>
<asrwt>0</asrwt>
<pdfrwt beam="1">  1        2 0.69326041E+00 0.44590277E+04</pdfrwt>
<pdfrwt beam="2">  1       -2 0.16970601E+00 0.44590277E+04</pdfrwt>
<totfact> 0.19590960E-02</totfact>
</mgrwt>
</event>
<event>
 6    1  0.1014650E-006  0.3013607E+04  0.7818608E-02  0.8239856E-01
          1   -1    0    0  501    0  0.00000000000E+00  0.00000000000E+00  0.89989344839E+03  0.89989344839E+03  0.00000000000E+00 0. -1.
         -1   -1    0    0    0  501 -0.00000000000E+00 -0.00000000000E+00 -0.25230277459E+04  0.25230277459E+04  0.00000000000E+00 0.  1.
         23    2    1    2    0    0  0.59909645643E+03  0.11775005390E+04  0.75121282723E+01  0.13242473632E+04  0.90280470670E+02 0.  0.
         13    1    3    3    0    0  0.17247145453E+03  0.43124430482E+03  0.12889464054E+02  0.46463339458E+03  0.00000000000E+00 0. -1.
        -13    1    3    3    0    0  0.42662500190E+03  0.74625623418E+03 -0.53773357820E+01  0.85961396862E+03  0.00000000000E+00 0.  1.
         22    1    1    2    0    0 -0.59909645643E+03 -0.11775005390E+04 -0.16306464258E+04  0.20986738311E+04  0.00000000000E+00 0.  1.
<mgrwt>
<rscale>  0 0.30136066E+04</rscale>
<asrwt>0</asrwt>
<pdfrwt beam="1">  1        1 0.13844515E+00 0.30136066E+04</pdfrwt>
<pdfrwt beam="2">  1       -1 0.38815811E+00 0.30136066E+04</pdfrwt>
<totfact> 0.13320390E-01</totfact>
</mgrwt>
</event>
<event>
 6    1  0.1014650E-006  0.5367823E+03  0.7818608E-02  0.1004600E+00
          2   -1    0    0  501    0  0.00000000000E+00  0.00000000000E+00  0.47551543050E+03  0.47551543050E+03  0.00000000000E+00 0. -1.
         -2   -1    0    0    0  501 -0.00000000000E+00 -0.00000000000E+00 -0.15148576632E+03  0.15148576632E+03  0.00000000000E+00 0.  1.
         23    2    1    2    0    0 -0.85187110752E+02  0.15197894106E+03  0.39297886063E+03  0.43962874938E+03  0.92122798555E+02 0.  0.
         13    1    3    3    0    0 -0.10334070725E+03  0.11417706770E+03  0.32704987912E+03  0.36149319219E+03  0.00000000000E+00 0.  1.
        -13    1    3    3    0    0  0.18153596494E+02  0.37801873358E+02  0.65928981510E+02  0.78135557194E+02  0.00000000000E+00 0. -1.
         22    1    1    2    0    0  0.85187110752E+02 -0.15197894106E+03 -0.68949196460E+02  0.18737244743E+03  0.00000000000E+00 0.  1.
<mgrwt>
<rscale>  0 0.53678234E+03</rscale>
<asrwt>0</asrwt>
<pdfrwt beam="1">  1        2 0.73156219E-01 0.53678234E+03</pdfrwt>
<pdfrwt beam="2">  1       -2 0.23305503E-01 0.53678234E+03</pdfrwt>
<totfact> 0.10640603E+03</totfact>
</mgrwt>
</event>
<event>
 6    1  0.1014650E-006  0.5080881E+04  0.7818608E-02  0.7816150E-01
         -1   -1    0    0    0  501 -0.00000000000E+00  0.00000000000E+00  0.32369704655E+04  0.32369704655E+04  0.00000000000E+00 0.  1.
          1   -1    0    0  501    0  0.00000000000E+00 -0.00000000000E+00 -0.19937896900E+04  0.19937896900E+04  0.00000000000E+00 0. -1.
         23    2    1    2    0    0  0.12279761495E+04 -0.18734234808E+04  0.18540164352E+04  0.29089588795E+04  0.83808463491E+02 0.  0.
         11    1    3    3    0    0  0.33565903347E+03 -0.52808251537E+03  0.56588701650E+03  0.84366240003E+03  0.00000000000E+00 0.  1.
        -11    1    3    3    0    0  0.89231711607E+03 -0.13453409654E+04  0.12881294187E+04  0.20652964795E+04  0.00000000000E+00 0. -1.
         22    1    1    2    0    0 -0.12279761495E+04  0.18734234808E+04 -0.61083565966E+03  0.23218012760E+04  0.00000000000E+00 0. -1.
<mgrwt>
<rscale>  0 0.50808812E+04</rscale>
<asrwt>0</asrwt>
<pdfrwt beam="1">  1        1 0.30673688E+00 0.50808812E+04</pdfrwt>
<pdfrwt beam="2">  1       -1 0.49799546E+00 0.50808812E+04</pdfrwt>
<totfact> 0.33345255E-03</totfact>
</mgrwt>
</event>
<event>
 6    1  0.1014650E-006  0.2578876E+04  0.7818608E-02  0.8375412E-01
          2   -1    0    0  501    0  0.00000000000E+00  0.00000000000E+00  0.21625794244E+04  0.21625794244E+04  0.00000000000E+00 0. -1.
         -2   -1    0    0    0  501 -0.00000000000E+00 -0.00000000000E+00 -0.76882744103E+03  0.76882744103E+03  0.00000000000E+00 0.  1.
         23    2    1    2    0    0  0.12111140451E+04  0.43736905088E+03  0.67528341623E+03  0.14568608340E+04  0.91361263860E+02 0.  0.
         13    1    3    3    0    0  0.41499991281E+03  0.10856525307E+03  0.20371825864E+03  0.47488153334E+03  0.00000000000E+00 0.  1.
        -13    1    3    3    0    0  0.79611413225E+03  0.32880379781E+03  0.47156515759E+03  0.98197930064E+03  0.00000000000E+00 0. -1.
         22    1    1    2    0    0 -0.12111140451E+04 -0.43736905088E+03  0.71846856710E+03  0.14745460314E+04  0.00000000000E+00 0. -1.
<mgrwt>
<rscale>  0 0.25788760E+04</rscale>
<asrwt>0</asrwt>
<pdfrwt beam="1">  1        2 0.33270452E+00 0.25788760E+04</pdfrwt>
<pdfrwt beam="2">  1       -2 0.11828115E+00 0.25788760E+04</pdfrwt>
<totfact> 0.26430865E+00</totfact>
</mgrwt>
</event>
<event>
 6    1  0.1014650E-006  0.4488327E+04  0.7818608E-02  0.7912684E-01
         -1   -1    0    0    0  501 -0.00000000000E+00  0.00000000000E+00  0.24250539754E+04  0.24250539754E+04  0.00000000000E+00 0.  1.
          1   -1    0    0  501    0  0.00000000000E+00 -0.00000000000E+00 -0.20767661214E+04  0.20767661214E+04  0.00000000000E+00 0. -1.
         23    2    1    2    0    0  0.14173326321E+04 -0.11930543390E+04  0.14428852759E+04  0.23499943693E+04  0.91351904590E+02 0.  0.
         13    1    3    3    0    0  0.41209321566E+03 -0.29376545063E+03  0.39140990829E+03  0.63978173988E+03  0.00000000000E+00 0.  1.
        -13    1    3    3    0    0  0.10052394164E+04 -0.89928888832E+03  0.10514753676E+04  0.17102126294E+04  0.00000000000E+00 0. -1.
         22    1    1    2    0    0 -0.14173326321E+04  0.11930543390E+04 -0.10945974219E+04  0.21518257275E+04  0.00000000000E+00 0. -1.
<mgrwt>
<rscale>  0 0.44883271E+04</rscale>
<asrwt>0</asrwt>
<pdfrwt beam="1">  1        1 0.31950248E+00 0.44883271E+04</pdfrwt>
<pdfrwt beam="2">  1       -1 0.37308523E+00 0.44883271E+04</pdfrwt>
<totfact> 0.21650075E-02</totfact>
</mgrwt>
</event>
<event>
 6    1  0.1014650E-006  0.1211958E+04  0.7818608E-02  0.9102454E-01
         -2   -1    0    0    0  501 -0.00000000000E+00  0.00000000000E+00  0.28959572719E+03  0.28959572719E+03  0.00000000000E+00 0.  1.
          2   -1    0    0  501    0  0.00000000000E+00 -0.00000000000E+00 -0.12680099752E+04  0.12680099752E+04  0.00000000000E+00 0. -1.
         23    2    1    2    0    0  0.19575204119E+03  0.51408314078E+03 -0.80804813999E+03  0.98173683881E+03  0.90912523154E+02 0.  0.
         11    1    3    3    0    0  0.10985254976E+03  0.17510339023E+03 -0.33107629257E+03  0.39030794439E+03  0.00000000000E+00 0. -1.
        -11    1    3    3    0    0  0.85899491432E+02  0.33897975055E+03 -0.47697184742E+03  0.59142889441E+03  0.00000000000E+00 0.  1.
         22    1    1    2    0    0 -0.19575204119E+03 -0.51408314078E+03 -0.17036610800E+03  0.57586886357E+03  0.00000000000E+00 0.  1.
<mgrwt>
<rscale>  0 0.12119575E+04</rscale>
<asrwt>0</asrwt>
<pdfrwt beam="1">  1        2 0.19507846E+00 0.12119575E+04</pdfrwt>
<pdfrwt beam="2">  1       -2 0.44553189E-01 0.12119575E+04</pdfrwt>
<totfact> 0.81269555E+01</totfact>
</mgrwt>
</event>
<event>
 6    1  0.1014650E-006  0.2900642E+04  0.7818608E-02  0.8272686E-01
          2   -1    0    0  501    0  0.00000000000E+00  0.00000000000E+00  0.24203933780E+04  0.24203933780E+04  0.00000000000E+00 0. -1.
         -2   -1    0    0    0  501 -0.00000000000E+00 -0.00000000000E+00 -0.86904510455E+03  0.86904510455E+03  0.00000000000E+00 0.  1.
         23    2    1    2    0    0 -0.49335855573E+03  0.73112553167E+03  0.20804035940E+04  0.22609217156E+04  0.75767292080E+02 0.  0.
         11    1    3    3    0    0 -0.31849487262E+02  0.77840741946E+02  0.23644576556E+03  0.25095850454E+03  0.00000000000E+00 0. -1.
        -11    1    3    3    0    0 -0.46150906846E+03  0.65328478973E+03  0.18439578285E+04  0.20099632111E+04  0.00000000000E+00 0.  1.
         22    1    1    2    0    0  0.49335855573E+03 -0.73112553167E+03 -0.52905532060E+03  0.10285167669E+04  0.00000000000E+00 0.  1.
<mgrwt>
<rscale>  0 0.29006420E+04</rscale>
<asrwt>0</asrwt>
<pdfrwt beam="1">  1        2 0.37236821E+00 0.29006420E+04</pdfrwt>
<pdfrwt beam="2">  1       -2 0.13369925E+00 0.29006420E+04</pdfrwt>
<totfact> 0.13503094E+00</totfact>
</mgrwt>
</event>
<event>
 6    1  0.1014650E-006  0.2144417E+04  0.7818608E-02  0.8541926E-01
          1   -1    0    0  501    0  0.00000000000E+00  0.00000000000E+00  0.82933372845E+03  0.82933372845E+03  0.00000000000E+00 0. -1.
         -1   -1    0    0    0  501 -0.00000000000E+00 -0.00000000000E+00 -0.13862100255E+04  0.13862100255E+04  0.00000000000E+00 0.  1.
         23    2    1    2    0    0 -0.84057776086E+03 -0.51087187753E+03 -0.71469472688E+03  0.12193170206E+04  0.91566352508E+02 0.  0.
         11    1    3    3    0    0 -0.46847903122E+03 -0.25414116585E+03 -0.34036245616E+03  0.63238195454E+03  0.00000000000E+00 0.  1.
        -11    1    3    3    0    0 -0.37209872964E+03 -0.25673071168E+03 -0.37433227072E+03  0.58693506611E+03  0.00000000000E+00 0. -1.
         22    1    1    2    0    0  0.84057776086E+03  0.51087187753E+03  0.15781842985E+03  0.99622673328E+03  0.00000000000E+00 0.  1.
<mgrwt>
<rscale>  0 0.21444167E+04</rscale>
<asrwt>0</asrwt>
<pdfrwt beam="1">  1        1 0.12758980E+00 0.21444167E+04</pdfrwt>
<pdfrwt beam="2">  1       -1 0.21326308E+00 0.21444167E+04</pdfrwt>
<totfact> 0.23340203E+00</totfact>
</mgrwt>
</event>
<event>
 6    1  0.1014650E-006  0.3969690E+04  0.7818608E-02  0.8010689E-01
         -2   -1    0    0    0  501 -0.00000000000E+00  0.00000000000E+00  0.11651454145E+04  0.11651454145E+04  0.00000000000E+00 0.  1.
          2   -1    0    0  501    0  0.00000000000E+00 -0.00000000000E+00 -0.33812167204E+04  0.33812167204E+04  0.00000000000E+00 0. -1.
         23    2    1    2    0    0 -0.18204521188E+04  0.48085998681E+02 -0.20098778050E+04  0.27136390407E+04  0.88712299834E+02 0.  0.
         11    1    3    3    0    0 -0.69978217186E+03 -0.22359148961E+02 -0.79271446379E+03  0.10576347388E+04  0.00000000000E+00 0. -1.
        -11    1    3    3    0    0 -0.11206699470E+04  0.70445147642E+02 -0.12171633412E+04  0.16560043019E+04  0.00000000000E+00 0.  1.
         22    1    1    2    0    0  0.18204521188E+04 -0.48085998681E+02 -0.20619350095E+03  0.18327230942E+04  0.00000000000E+00 0. -1.
<mgrwt>
<rscale>  0 0.39696897E+04</rscale>
<asrwt>0</asrwt>
<pdfrwt beam="1">  1        2 0.52018719E+00 0.39696897E+04</pdfrwt>
<pdfrwt beam="2">  1       -2 0.17925314E+00 0.39696897E+04</pdfrwt>
<totfact> 0.14228286E-01</totfact>
</mgrwt>
</event>
<event>
 6    1  0.1014650E-006  0.2142941E+04  0.7818608E-02  0.8542560E-01
         -2   -1    0    0    0  501 -0.00000000000E+00  0.00000000000E+00  0.11574473799E+04  0.11574473799E+04  0.00000000000E+00 0.  1.
          2   -1    0    0  501    0  0.00000000000E+00 -0.00000000000E+00 -0.99188045545E+03  0.99188045545E+03  0.00000000000E+00 0. -1.
         23    2    1    2    0    0  0.33793735490E+03  0.54293257142E+03 -0.77703746401E+03  0.10102578348E+04  0.88635429922E+02 0.  0.
         11    1    3    3    0    0  0.93819489709E+02  0.15295383362E+03 -0.15880520734E+03  0.23961649723E+03  0.00000000000E+00 0.  1.
        -11    1    3    3    0    0  0.24411786519E+03  0.38997873780E+03 -0.61823225667E+03  0.77064133761E+03  0.00000000000E+00 0. -1.
         22    1    1    2    0    0 -0.33793735490E+03 -0.54293257142E+03  0.94260438850E+03  0.11390700006E+04  0.00000000000E+00 0.  1.
<mgrwt>
<rscale>  0 0.21429414E+04</rscale>
<asrwt>0</asrwt>
<pdfrwt beam="1">  1        2 0.15259699E+00 0.21429414E+04</pdfrwt>
<pdfrwt beam="2">  1       -2 0.17806883E+00 0.21429414E+04</pdfrwt>
<totfact> 0.43772257E+00</totfact>
</mgrwt>
</event>
<event>
 6    1  0.1014650E-006  0.1263055E+04  0.7818608E-02  0.9059387E-01
         -2   -1    0    0    0  501 -0.00000000000E+00  0.00000000000E+00  0.15911136869E+03  0.15911136869E+03  0.00000000000E+00 0.  1.
          2   -1    0    0  501    0  0.00000000000E+00 -0.00000000000E+00 -0.25065886215E+04  0.25065886215E+04  0.00000000000E+00 0. -1.
         23    2    1    2    0    0 -0.11302832762E+03  0.52308134481E+03 -0.48553085012E+03  0.72837350697E+03  0.91642037856E+02 0.  0.
         11    1    3    3    0    0 -0.65430608894E+02  0.21729000170E+03 -0.26201279614E+03  0.34662200560E+03  0.00000000000E+00 0.  1.
        -11    1    3    3    0    0 -0.47597718726E+02  0.30579134310E+03 -0.22351805398E+03  0.38175150137E+03  0.00000000000E+00 0. -1.
         22    1    1    2    0    0  0.11302832762E+03 -0.52308134481E+03 -0.18619464027E+04  0.19373264832E+04  0.00000000000E+00 0. -1.
<mgrwt>
<rscale>  0 0.12630546E+04</rscale>
<asrwt>0</asrwt>
<pdfrwt beam="1">  1        2 0.38562901E+00 0.12630546E+04</pdfrwt>
<pdfrwt beam="2">  1       -2 0.24478673E-01 0.12630546E+04</pdfrwt>
<totfact> 0.50809209E+01</totfact>
</mgrwt>
</event>
<event>
 6    1  0.1014650E-006  0.1540846E+04  0.7818608E-02  0.8857736E-01
         -1   -1    0    0    0  501 -0.00000000000E+00  0.00000000000E+00  0.42971977606E+03  0.42971977606E+03  0.00000000000E+00 0.  1.
          1   -1    0    0  501    0  0.00000000000E+00 -0.00000000000E+00 -0.13812525981E+04  0.13812525981E+04  0.00000000000E+00 0. -1.
         23    2    1    2    0    0  0.52518297029E+03 -0.45914004890E+03 -0.99502300024E+02  0.70979902395E+03  0.85365156219E+02 0.  0.
         11    1    3    3    0    0  0.33640945868E+03 -0.27866354856E+03 -0.10215488385E+03  0.44862046039E+03  0.00000000000E+00 0. -1.
        -11    1    3    3    0    0  0.18877351161E+03 -0.18047650034E+03  0.26525838228E+01  0.26117856356E+03  0.00000000000E+00 0.  1.
         22    1    1    2    0    0 -0.52518297029E+03  0.45914004890E+03 -0.85203052202E+03  0.11011733502E+04  0.00000000000E+00 0. -1.
<mgrwt>
<rscale>  0 0.15408459E+04</rscale>
<asrwt>0</asrwt>
<pdfrwt beam="1">  1        1 0.21250040E+00 0.15408459E+04</pdfrwt>
<pdfrwt beam="2">  1       -1 0.66110734E-01 0.15408459E+04</pdfrwt>
<totfact> 0.17705926E+01</totfact>
</mgrwt>
</event>
<event>
 6    1  0.1014650E-006  0.4539602E+04  0.7818608E-02  0.7903740E-01
          2   -1    0    0  501    0  0.00000000000E+00  0.00000000000E+00  0.21828097532E+04  0.21828097532E+04  0.00000000000E+00 0. -1.
         -2   -1    0    0    0  501 -0.00000000000E+00 -0.00000000000E+00 -0.23602592642E+04  0.23602592642E+04  0.00000000000E+00 0.  1.
         23    2    1    2    0    0  0.20010323599E+04 -0.10176965866E+04  0.24040072318E+03  0.22595551318E+04  0.89219046808E+02 0.  0.
         11    1    3    3    0    0  0.63012071373E+03 -0.27860241595E+03  0.56335778225E+02  0.69126343745E+03  0.00000000000E+00 0.  1.
        -11    1    3    3    0    0  0.13709116461E+04 -0.73909417064E+03  0.18406494496E+03  0.15682916943E+04  0.00000000000E+00 0. -1.
         22    1    1    2    0    0 -0.20010323599E+04  0.10176965866E+04 -0.41785023417E+03  0.22835138856E+04  0.00000000000E+00 0. -1.
<mgrwt>
<rscale>  0 0.45396022E+04</rscale>
<asrwt>0</asrwt>
<pdfrwt beam="1">  1        2 0.33581688E+00 0.45396022E+04</pdfrwt>
<pdfrwt beam="2">  1       -2 0.36311681E+00 0.45396022E+04</pdfrwt>
<totfact> 0.51234097E-02</totfact>
</mgrwt>
</event>
<event>
 6    1  0.1014650E-006  0.1281550E+04  0.7818608E-02  0.9044326E-01
          1   -1    0    0  501    0  0.00000000000E+00  0.00000000000E+00  0.42708970482E+03  0.42708970482E+03  0.00000000000E+00 0. -1.
         -1   -1    0    0    0  501 -0.00000000000E+00 -0.00000000000E+00 -0.96137264141E+03  0.96137264141E+03  0.00000000000E+00 0.  1.
         23    2    1    2    0    0  0.46754461980E+03 -0.27249811429E+03 -0.63367829426E+03  0.83825090421E+03  0.90902167171E+02 0.  0.
         13    1    3    3    0    0  0.28036122921E+03 -0.15683316827E+03 -0.30679680484E+03  0.44421091946E+03  0.00000000000E+00 0.  1.
        -13    1    3    3    0    0  0.18718339059E+03 -0.11566494602E+03 -0.32688148942E+03  0.39403998475E+03  0.00000000000E+00 0. -1.
         22    1    1    2    0    0 -0.46754461980E+03  0.27249811429E+03  0.99395357673E+02  0.55021144201E+03  0.00000000000E+00 0. -1.
<mgrwt>
<rscale>  0 0.12815496E+04</rscale>
<asrwt>0</asrwt>
<pdfrwt beam="1">  1        1 0.65706109E-01 0.12815496E+04</pdfrwt>
<pdfrwt beam="2">  1       -1 0.14790348E+00 0.12815496E+04</pdfrwt>
<totfact> 0.19593381E+01</totfact>
</mgrwt>
</event>
<event>
 6    1  0.1014650E-006  0.1575739E+04  0.7818608E-02  0.8835593E-01
         -2   -1    0    0    0  501 -0.00000000000E+00  0.00000000000E+00  0.24646556896E+03  0.24646556896E+03  0.00000000000E+00 0.  1.
          2   -1    0    0  501    0  0.00000000000E+00 -0.00000000000E+00 -0.25185604773E+04  0.25185604773E+04  0.00000000000E+00 0. -1.
         23    2    1    2    0    0 -0.77292959759E+01  0.62241400805E+03 -0.19798124724E+04  0.20773575492E+04  0.91093479263E+02 0.  0.
         11    1    3    3    0    0 -0.81494976796E+01  0.31911892040E+03 -0.11644243143E+04  0.12073886215E+04  0.00000000000E+00 0.  1.
        -11    1    3    3    0    0  0.42020170369E+00  0.30329508765E+03 -0.81538815813E+03  0.86996892771E+03  0.00000000000E+00 0. -1.
         22    1    1    2    0    0  0.77292959759E+01 -0.62241400805E+03 -0.29228243588E+03  0.68766849700E+03  0.00000000000E+00 0.  1.
<mgrwt>
<rscale>  0 0.15757391E+04</rscale>
<asrwt>0</asrwt>
<pdfrwt beam="1">  1        2 0.38747084E+00 0.15757391E+04</pdfrwt>
<pdfrwt beam="2">  1       -2 0.37917780E-01 0.15757391E+04</pdfrwt>
<totfact> 0.21467145E+01</totfact>
</mgrwt>
</event>
<event>
 6    1  0.1014650E-006  0.1609430E+04  0.7818608E-02  0.8814776E-01
          2   -1    0    0  501    0  0.00000000000E+00  0.00000000000E+00  0.29752255746E+04  0.29752255746E+04  0.00000000000E+00 0. -1.
         -2   -1    0    0    0  501 -0.00000000000E+00 -0.00000000000E+00 -0.21765276017E+03  0.21765276017E+03  0.00000000000E+00 0.  1.
         23    2    1    2    0    0 -0.79185132763E+03 -0.10290897244E+03  0.12331672556E+04  0.14719974297E+04  0.91957441393E+02 0.  0.
         11    1    3    3    0    0 -0.11986153354E+03 -0.43483315870E+02  0.16302818046E+03  0.20696804972E+03  0.00000000000E+00 0.  1.
        -11    1    3    3    0    0 -0.67198979409E+03 -0.59425656566E+02  0.10701390752E+04  0.12650293800E+04  0.00000000000E+00 0. -1.
         22    1    1    2    0    0  0.79185132763E+03  0.10290897244E+03  0.15244055588E+04  0.17208809050E+04  0.00000000000E+00 0. -1.
<mgrwt>
<rscale>  0 0.16094298E+04</rscale>
<asrwt>0</asrwt>
<pdfrwt beam="1">  1        2 0.45772698E+00 0.16094298E+04</pdfrwt>
<pdfrwt beam="2">  1       -2 0.33485042E-01 0.16094298E+04</pdfrwt>
<totfact> 0.14494897E+01</totfact>
</mgrwt>
</event>
<event>
 6    1  0.1014650E-006  0.3016585E+04  0.7818608E-02  0.8239011E-01
          2   -1    0    0  501    0  0.00000000000E+00  0.00000000000E+00  0.12117693258E+04  0.12117693258E+04  0.00000000000E+00 0. -1.
         -2   -1    0    0    0  501 -0.00000000000E+00 -0.00000000000E+00 -0.18773752671E+04  0.18773752671E+04  0.00000000000E+00 0.  1.
         23    2    1    2    0    0 -0.37089295947E+03  0.59469746943E+03 -0.16995623702E+04  0.18400278792E+04  0.77224856550E+02 0.  0.
         11    1    3    3    0    0 -0.73977944360E+02  0.93420708189E+02 -0.36131227757E+03  0.38045594606E+03  0.00000000000E+00 0. -1.
        -11    1    3    3    0    0 -0.29691501511E+03  0.50127676124E+03 -0.13382500927E+04  0.14595719332E+04  0.00000000000E+00 0.  1.
         22    1    1    2    0    0  0.37089295947E+03 -0.59469746943E+03  0.10339564289E+04  0.12491167137E+04  0.00000000000E+00 0. -1.
<mgrwt>
<rscale>  0 0.30165847E+04</rscale>
<asrwt>0</asrwt>
<pdfrwt beam="1">  1        2 0.18642605E+00 0.30165847E+04</pdfrwt>
<pdfrwt beam="2">  1       -2 0.28882696E+00 0.30165847E+04</pdfrwt>
<totfact> 0.59259966E-01</totfact>
</mgrwt>
</event>
<event>
 6    1  0.1014650E-006  0.1718219E+04  0.7818608E-02  0.8751041E-01
          1   -1    0    0  501    0  0.00000000000E+00  0.00000000000E+00  0.72209315677E+03  0.72209315677E+03  0.00000000000E+00 0. -1.
         -1   -1    0    0    0  501 -0.00000000000E+00 -0.00000000000E+00 -0.10221243641E+04  0.10221243641E+04  0.00000000000E+00 0.  1.
         23    2    1    2    0    0 -0.51507213763E+03  0.25569139229E+03 -0.79513178530E+03  0.98540135244E+03  0.90021521567E+02 0.  0.
         11    1    3    3    0    0 -0.22228182443E+03  0.75709234025E+02 -0.27034255915E+03  0.35808685661E+03  0.00000000000E+00 0. -1.
        -11    1    3    3    0    0 -0.29279031320E+03  0.17998215827E+03 -0.52478922615E+03  0.62731449583E+03  0.00000000000E+00 0.  1.
         22    1    1    2    0    0  0.51507213763E+03 -0.25569139229E+03  0.49510057801E+03  0.75881616838E+03  0.00000000000E+00 0. -1.
<mgrwt>
<rscale>  0 0.17182189E+04</rscale>
<asrwt>0</asrwt>
<pdfrwt beam="1">  1        1 0.11109125E+00 0.17182189E+04</pdfrwt>
<pdfrwt beam="2">  1       -1 0.15724990E+00 0.17182189E+04</pdfrwt>
<totfact> 0.75699550E+00</totfact>
</mgrwt>
</event>
<event>
 6    1  0.1014650E-006  0.6014560E+04  0.7818608E-02  0.7688599E-01
         -1   -1    0    0    0  501 -0.00000000000E+00  0.00000000000E+00  0.36199321324E+04  0.36199321324E+04  0.00000000000E+00 0.  1.
          1   -1    0    0  501    0  0.00000000000E+00 -0.00000000000E+00 -0.24983157970E+04  0.24983157970E+04  0.00000000000E+00 0. -1.
         23    2    1    2    0    0  0.11180488457E+04  0.14023385901E+04  0.30158691795E+04  0.35096504941E+04  0.74785962032E+02 0.  0.
         13    1    3    3    0    0  0.65138395348E+03  0.81191161721E+03  0.16780474682E+04  0.19746758809E+04  0.00000000000E+00 0.  1.
        -13    1    3    3    0    0  0.46666489220E+03  0.59042697294E+03  0.13378217113E+04  0.15349746132E+04  0.00000000000E+00 0. -1.
         22    1    1    2    0    0 -0.11180488457E+04 -0.14023385901E+04 -0.18942528440E+04  0.26085974354E+04  0.00000000000E+00 0. -1.
<mgrwt>
<rscale>  0 0.60145602E+04</rscale>
<asrwt>0</asrwt>
<pdfrwt beam="1">  1        1 0.38435627E+00 0.60145602E+04</pdfrwt>
<pdfrwt beam="2">  1       -1 0.55691264E+00 0.60145602E+04</pdfrwt>
<totfact> 0.63776018E-04</totfact>
</mgrwt>
</event>
<event>
 6    1  0.1014650E-006  0.7787344E+03  0.7818608E-02  0.9591319E-01
         -2   -1    0    0    0  501 -0.00000000000E+00  0.00000000000E+00  0.25326428920E+03  0.25326428920E+03  0.00000000000E+00 0.  1.
          2   -1    0    0  501    0  0.00000000000E+00 -0.00000000000E+00 -0.59861105657E+03  0.59861105657E+03  0.00000000000E+00 0. -1.
         23    2    1    2    0    0 -0.14996863277E+03  0.34898183627E+03 -0.23492840191E+03  0.45631102952E+03  0.93538702006E+02 0.  0.
         11    1    3    3    0    0 -0.13231657775E+03  0.26874434476E+03 -0.22266675262E+03  0.37324480212E+03  0.00000000000E+00 0. -1.
        -11    1    3    3    0    0 -0.17652055023E+02  0.80237491510E+02 -0.12261649287E+02  0.83066227394E+02  0.00000000000E+00 0.  1.
         22    1    1    2    0    0  0.14996863277E+03 -0.34898183627E+03 -0.11041836546E+03  0.39556431625E+03  0.00000000000E+00 0.  1.
<mgrwt>
<rscale>  0 0.77873437E+03</rscale>
<asrwt>0</asrwt>
<pdfrwt beam="1">  1        2 0.92094008E-01 0.77873437E+03</pdfrwt>
<pdfrwt beam="2">  1       -2 0.38963737E-01 0.77873437E+03</pdfrwt>
<totfact> 0.31161416E+02</totfact>
</mgrwt>
</event>
<event>
 6    1  0.1014650E-006  0.2141778E+04  0.7818608E-02  0.8543060E-01
         -1   -1    0    0    0  501 -0.00000000000E+00  0.00000000000E+00  0.12979351628E+04  0.12979351628E+04  0.00000000000E+00 0.  1.
          1   -1    0    0  501    0  0.00000000000E+00 -0.00000000000E+00 -0.88356003673E+03  0.88356003673E+03  0.00000000000E+00 0. -1.
         23    2    1    2    0    0  0.31350913598E+03 -0.82966319173E+03  0.81522128384E+03  0.12081984143E+04  0.92350834036E+02 0.  0.
         11    1    3    3    0    0  0.46020569915E+01 -0.19760443764E+02  0.41948038668E+02  0.46597124530E+02  0.00000000000E+00 0. -1.
        -11    1    3    3    0    0  0.30890707899E+03 -0.80990274796E+03  0.77327324517E+03  0.11616012897E+04  0.00000000000E+00 0.  1.
         22    1    1    2    0    0 -0.31350913598E+03  0.82966319173E+03 -0.40084615777E+03  0.97329678528E+03  0.00000000000E+00 0. -1.
<mgrwt>
<rscale>  0 0.21417784E+04</rscale>
<asrwt>0</asrwt>
<pdfrwt beam="1">  1        1 0.13593231E+00 0.21417784E+04</pdfrwt>
<pdfrwt beam="2">  1       -1 0.19968233E+00 0.21417784E+04</pdfrwt>
<totfact> 0.26021339E+00</totfact>
</mgrwt>
</event>
<event>
 6    1  0.1014650E-006  0.2742034E+04  0.7818608E-02  0.8321494E-01
         -2   -1    0    0    0  501 -0.00000000000E+00  0.00000000000E+00  0.12974976886E+04  0.12974976886E+04  0.00000000000E+00 0.  1.
          2   -1    0    0  501    0  0.00000000000E+00 -0.00000000000E+00 -0.14487022239E+04  0.14487022239E+04  0.00000000000E+00 0. -1.
         23    2    1    2    0    0  0.68526368827E+02  0.13033472234E+04 -0.49105362244E+03  0.13975312171E+04  0.92466181049E+02 0.  0.
         11    1    3    3    0    0  0.14814534300E+02  0.70781211294E+03 -0.30914856614E+03  0.77252203438E+03  0.00000000000E+00 0. -1.
        -11    1    3    3    0    0  0.53711834527E+02  0.59553511044E+03 -0.18190505630E+03  0.62500918269E+03  0.00000000000E+00 0.  1.
         22    1    1    2    0    0 -0.68526368827E+02 -0.13033472234E+04  0.33984908717E+03  0.13486686954E+04  0.00000000000E+00 0.  1.
<mgrwt>
<rscale>  0 0.27420341E+04</rscale>
<asrwt>0</asrwt>
<pdfrwt beam="1">  1        2 0.22287726E+00 0.27420341E+04</pdfrwt>
<pdfrwt beam="2">  1       -2 0.19961503E+00 0.27420341E+04</pdfrwt>
<totfact> 0.15876739E+00</totfact>
</mgrwt>
</event>
<event>
 6    1  0.1014650E-006  0.1889081E+04  0.7818608E-02  0.8660311E-01
         -2   -1    0    0    0  501 -0.00000000000E+00  0.00000000000E+00  0.11351919374E+04  0.11351919374E+04  0.00000000000E+00 0.  1.
          2   -1    0    0  501    0  0.00000000000E+00 -0.00000000000E+00 -0.78590818560E+03  0.78590818560E+03  0.00000000000E+00 0. -1.
         23    2    1    2    0    0 -0.59907764018E+03  0.27583224578E+03  0.85984973436E+03  0.10870407310E+04  0.85665269075E+02 0.  0.
         11    1    3    3    0    0 -0.50106179603E+03  0.23500629155E+03  0.66526459784E+03  0.86537151886E+03  0.00000000000E+00 0. -1.
        -11    1    3    3    0    0 -0.98015844152E+02  0.40825954229E+02  0.19458513652E+03  0.22166921211E+03  0.00000000000E+00 0.  1.
         22    1    1    2    0    0  0.59907764018E+03 -0.27583224578E+03 -0.51056598260E+03  0.83405939199E+03  0.00000000000E+00 0. -1.
<mgrwt>
<rscale>  0 0.18890809E+04</rscale>
<asrwt>0</asrwt>
<pdfrwt beam="1">  1        2 0.12090895E+00 0.18890809E+04</pdfrwt>
<pdfrwt beam="2">  1       -2 0.17464491E+00 0.18890809E+04</pdfrwt>
<totfact> 0.65296207E+00</totfact>
</mgrwt>
</event>
<event>
 6    1  0.1014650E-006  0.3743711E+04  0.7818608E-02  0.8058343E-01
         -2   -1    0    0    0  501 -0.00000000000E+00  0.00000000000E+00  0.12575119602E+04  0.12575119602E+04  0.00000000000E+00 0.  1.
          2   -1    0    0  501    0  0.00000000000E+00 -0.00000000000E+00 -0.27863302090E+04  0.27863302090E+04  0.00000000000E+00 0. -1.
         23    2    1    2    0    0 -0.10213142584E+04  0.31022287531E+03 -0.24243839724E+04  0.26505155700E+04  0.90962049061E+02 0.  0.
         13    1    3    3    0    0 -0.24242097366E+03  0.35228664999E+02 -0.58028104558E+03  0.62986909685E+03  0.00000000000E+00 0. -1.
        -13    1    3    3    0    0 -0.77889328473E+03  0.27499421031E+03 -0.18441029268E+04  0.20206464731E+04  0.00000000000E+00 0.  1.
         22    1    1    2    0    0  0.10213142584E+04 -0.31022287531E+03  0.89556572357E+03  0.13933265992E+04  0.00000000000E+00 0.  1.
<mgrwt>
<rscale>  0 0.37437113E+04</rscale>
<asrwt>0</asrwt>
<pdfrwt beam="1">  1        2 0.42866618E+00 0.37437113E+04</pdfrwt>
<pdfrwt beam="2">  1       -2 0.19346338E+00 0.37437113E+04</pdfrwt>
<totfact> 0.27887534E-01</totfact>
</mgrwt>
</event>
<event>
 6    1  0.1014650E-006  0.3564901E+04  0.7818608E-02  0.8098579E-01
          2   -1    0    0  501    0  0.00000000000E+00  0.00000000000E+00  0.30854683308E+04  0.30854683308E+04  0.00000000000E+00 0. -1.
         -2   -1    0    0    0  501 -0.00000000000E+00 -0.00000000000E+00 -0.10297073011E+04  0.10297073011E+04  0.00000000000E+00 0.  1.
         23    2    1    2    0    0  0.87554401544E+03  0.15505042592E+04  0.10841825328E+04  0.20867265800E+04  0.91297724775E+02 0.  0.
         11    1    3    3    0    0  0.15171591270E+03  0.25350699981E+03  0.21959486757E+03  0.36811061243E+03  0.00000000000E+00 0.  1.
        -11    1    3    3    0    0  0.72382810274E+03  0.12969972594E+04  0.86458766521E+03  0.17186159676E+04  0.00000000000E+00 0. -1.
         22    1    1    2    0    0 -0.87554401544E+03 -0.15505042592E+04  0.97157849693E+03  0.20284490520E+04  0.00000000000E+00 0. -1.
<mgrwt>
<rscale>  0 0.35649007E+04</rscale>
<asrwt>0</asrwt>
<pdfrwt beam="1">  1        2 0.47468743E+00 0.35649007E+04</pdfrwt>
<pdfrwt beam="2">  1       -2 0.15841651E+00 0.35649007E+04</pdfrwt>
<totfact> 0.32493558E-01</totfact>
</mgrwt>
</event>
<event>
 6    1  0.1014650E-006  0.3518768E+04  0.7818608E-02  0.8109357E-01
          1   -1    0    0  501    0  0.00000000000E+00  0.00000000000E+00  0.92113170353E+03  0.92113170353E+03  0.00000000000E+00 0. -1.
         -1   -1    0    0    0  501 -0.00000000000E+00 -0.00000000000E+00 -0.33604662239E+04  0.33604662239E+04  0.00000000000E+00 0.  1.
         23    2    1    2    0    0 -0.13288693551E+04 -0.81067712373E+03 -0.22589196585E+03  0.15756010494E+04  0.91653285710E+02 0.  0.
         11    1    3    3    0    0 -0.38063067656E+03 -0.24868105467E+03 -0.26459771920E+02  0.45543616283E+03  0.00000000000E+00 0.  1.
        -11    1    3    3    0    0 -0.94823867853E+03 -0.56199606906E+03 -0.19943219393E+03  0.11201648866E+04  0.00000000000E+00 0. -1.
         22    1    1    2    0    0  0.13288693551E+04  0.81067712373E+03 -0.22134425546E+04  0.27059968781E+04  0.00000000000E+00 0.  1.
<mgrwt>
<rscale>  0 0.35187680E+04</rscale>
<asrwt>0</asrwt>
<pdfrwt beam="1">  1        1 0.14171257E+00 0.35187680E+04</pdfrwt>
<pdfrwt beam="2">  1       -1 0.51699480E+00 0.35187680E+04</pdfrwt>
<totfact> 0.16556393E-02</totfact>
</mgrwt>
</event>
<event>
 6    1  0.1014650E-006  0.1465238E+04  0.7818608E-02  0.8907904E-01
          2   -1    0    0  501    0  0.00000000000E+00  0.00000000000E+00  0.27951853710E+04  0.27951853710E+04  0.00000000000E+00 0. -1.
         -2   -1    0    0    0  501 -0.00000000000E+00 -0.00000000000E+00 -0.19201956968E+03  0.19201956968E+03  0.00000000000E+00 0.  1.
         23    2    1    2    0    0 -0.65512973989E+03  0.32098712817E+03  0.12364191336E+04  0.14379392545E+04  0.81910397727E+02 0.  0.
         11    1    3    3    0    0 -0.21707841373E+03  0.13129317997E+03  0.36810094133E+03  0.44705619314E+03  0.00000000000E+00 0. -1.
        -11    1    3    3    0    0 -0.43805132615E+03  0.18969394820E+03  0.86831819227E+03  0.99088306139E+03  0.00000000000E+00 0.  1.
         22    1    1    2    0    0  0.65512973989E+03 -0.32098712817E+03  0.13667466677E+04  0.15492656862E+04  0.00000000000E+00 0.  1.
<mgrwt>
<rscale>  0 0.14652376E+04</rscale>
<asrwt>0</asrwt>
<pdfrwt beam="1">  1        2 0.43002849E+00 0.14652376E+04</pdfrwt>
<pdfrwt beam="2">  1       -2 0.29541474E-01 0.14652376E+04</pdfrwt>
<totfact> 0.23934410E+01</totfact>
</mgrwt>
</event>
<event>
 6    1  0.1014650E-006  0.2494431E+04  0.7818608E-02  0.8404972E-01
         -2   -1    0    0    0  501 -0.00000000000E+00  0.00000000000E+00  0.68736435750E+03  0.68736435750E+03  0.00000000000E+00 0.  1.
          2   -1    0    0  501    0  0.00000000000E+00 -0.00000000000E+00 -0.22630604466E+04  0.22630604466E+04  0.00000000000E+00 0. -1.
         23    2    1    2    0    0 -0.88462607817E+03 -0.48836503818E+03  0.73063432400E+02  0.10166534452E+04  0.84748178827E+02 0.  0.
         11    1    3    3    0    0 -0.28738919615E+03 -0.17668185183E+03 -0.12369888346E+02  0.33758264317E+03  0.00000000000E+00 0. -1.
        -11    1    3    3    0    0 -0.59723688202E+03 -0.31168318635E+03  0.85433320746E+02  0.67907080205E+03  0.00000000000E+00 0.  1.
         22    1    1    2    0    0  0.88462607817E+03  0.48836503818E+03 -0.16487595215E+04  0.19337713589E+04  0.00000000000E+00 0. -1.
<mgrwt>
<rscale>  0 0.24944315E+04</rscale>
<asrwt>0</asrwt>
<pdfrwt beam="1">  1        2 0.34816314E+00 0.24944315E+04</pdfrwt>
<pdfrwt beam="2">  1       -2 0.10574836E+00 0.24944315E+04</pdfrwt>
<totfact> 0.30672096E+00</totfact>
</mgrwt>
</event>
<event>
 6    1  0.1014650E-006  0.3466015E+04  0.7818608E-02  0.8121891E-01
          2   -1    0    0  501    0  0.00000000000E+00  0.00000000000E+00  0.13990762719E+04  0.13990762719E+04  0.00000000000E+00 0. -1.
         -2   -1    0    0    0  501 -0.00000000000E+00 -0.00000000000E+00 -0.21466418810E+04  0.21466418810E+04  0.00000000000E+00 0.  1.
         23    2    1    2    0    0 -0.29608633816E+03 -0.11298664030E+04  0.93399528142E+03  0.14983021628E+04  0.91087743070E+02 0.  0.
         11    1    3    3    0    0 -0.22442638027E+03 -0.87015716158E+03  0.76598690466E+03  0.11807949120E+04  0.00000000000E+00 0. -1.
        -11    1    3    3    0    0 -0.71659957889E+02 -0.25970924146E+03  0.16800837676E+03  0.31750725083E+03  0.00000000000E+00 0.  1.
         22    1    1    2    0    0  0.29608633816E+03  0.11298664030E+04 -0.16815608905E+04  0.20474159901E+04  0.00000000000E+00 0.  1.
<mgrwt>
<rscale>  0 0.34660154E+04</rscale>
<asrwt>0</asrwt>
<pdfrwt beam="1">  1        2 0.21524250E+00 0.34660154E+04</pdfrwt>
<pdfrwt beam="2">  1       -2 0.33025260E+00 0.34660154E+04</pdfrwt>
<totfact> 0.24685724E-01</totfact>
</mgrwt>
</event>
<event>
 6    1  0.1014650E-006  0.1624475E+04  0.7818608E-02  0.8805651E-01
          2   -1    0    0  501    0  0.00000000000E+00  0.00000000000E+00  0.14556100568E+04  0.14556100568E+04  0.00000000000E+00 0. -1.
         -2   -1    0    0    0  501 -0.00000000000E+00 -0.00000000000E+00 -0.45323263008E+03  0.45323263008E+03  0.00000000000E+00 0.  1.
         23    2    1    2    0    0  0.77378199385E+03  0.22921629322E+03  0.42602805159E+03  0.91714853779E+03  0.91557941001E+02 0.  0.
         13    1    3    3    0    0  0.46390139481E+03  0.13642456320E+03  0.20405882289E+03  0.52483918370E+03  0.00000000000E+00 0. -1.
        -13    1    3    3    0    0  0.30988059904E+03  0.92791730014E+02  0.22196922870E+03  0.39230935409E+03  0.00000000000E+00 0.  1.
         22    1    1    2    0    0 -0.77378199385E+03 -0.22921629322E+03  0.57634937509E+03  0.99169414904E+03  0.00000000000E+00 0.  1.
<mgrwt>
<rscale>  0 0.16244753E+04</rscale>
<asrwt>0</asrwt>
<pdfrwt beam="1">  1        2 0.22394001E+00 0.16244753E+04</pdfrwt>
<pdfrwt beam="2">  1       -2 0.69728097E-01 0.16244753E+04</pdfrwt>
<totfact> 0.24135624E+01</totfact>
</mgrwt>
</event>
<event>
 6    1  0.1014650E-006  0.2743913E+04  0.7818608E-02  0.8320896E-01
         -2   -1    0    0    0  501 -0.00000000000E+00  0.00000000000E+00  0.48534222906E+03  0.48534222906E+03  0.00000000000E+00 0.  1.
          2   -1    0    0  501    0  0.00000000000E+00 -0.00000000000E+00 -0.38782224020E+04  0.38782224020E+04  0.00000000000E+00 0. -1.
         23    2    1    2    0    0 -0.45525635875E+03 -0.10445983692E+04 -0.48730038020E+03  0.12425330649E+04  0.89345685533E+02 0.  0.
         13    1    3    3    0    0 -0.29788959097E+03 -0.78105002844E+03 -0.34892985833E+03  0.90583077966E+03  0.00000000000E+00 0.  1.
        -13    1    3    3    0    0 -0.15736676778E+03 -0.26354834080E+03 -0.13837052187E+03  0.33670228521E+03  0.00000000000E+00 0. -1.
         22    1    1    2    0    0  0.45525635875E+03  0.10445983692E+04 -0.29055797928E+04  0.31210315662E+04  0.00000000000E+00 0. -1.
<mgrwt>
<rscale>  0 0.27439133E+04</rscale>
<asrwt>0</asrwt>
<pdfrwt beam="1">  1        2 0.59664958E+00 0.27439133E+04</pdfrwt>
<pdfrwt beam="2">  1       -2 0.74668037E-01 0.27439133E+04</pdfrwt>
<totfact> 0.60313041E-01</totfact>
</mgrwt>
</event>
<event>
 6    1  0.1014650E-006  0.1233079E+04  0.7818608E-02  0.9084385E-01
          2   -1    0    0  501    0  0.00000000000E+00  0.00000000000E+00  0.11573382319E+04  0.11573382319E+04  0.00000000000E+00 0. -1.
         -2   -1    0    0    0  501 -0.00000000000E+00 -0.00000000000E+00 -0.32844431407E+03  0.32844431407E+03  0.00000000000E+00 0.  1.
         23    2    1    2    0    0  0.31142548232E+03 -0.51319528282E+03  0.26667132820E+03  0.66331706363E+03  0.92307639330E+02 0.  0.
         13    1    3    3    0    0  0.79321860269E+02 -0.12105878054E+03  0.22902074635E+02  0.14653221791E+03  0.00000000000E+00 0.  1.
        -13    1    3    3    0    0  0.23210362205E+03 -0.39213650227E+03  0.24376925356E+03  0.51678484572E+03  0.00000000000E+00 0. -1.
         22    1    1    2    0    0 -0.31142548232E+03  0.51319528282E+03  0.56222258963E+03  0.82246548233E+03  0.00000000000E+00 0. -1.
<mgrwt>
<rscale>  0 0.12330793E+04</rscale>
<asrwt>0</asrwt>
<pdfrwt beam="1">  1        2 0.17805203E+00 0.12330793E+04</pdfrwt>
<pdfrwt beam="2">  1       -2 0.50529895E-01 0.12330793E+04</pdfrwt>
<totfact> 0.73260892E+01</totfact>
</mgrwt>
</event>
<event>
 6    1  0.1014650E-006  0.3513272E+04  0.7818608E-02  0.8110652E-01
          2   -1    0    0  501    0  0.00000000000E+00  0.00000000000E+00  0.40308555773E+04  0.40308555773E+04  0.00000000000E+00 0. -1.
         -2   -1    0    0    0  501 -0.00000000000E+00 -0.00000000000E+00 -0.76553741632E+03  0.76553741632E+03  0.00000000000E+00 0.  1.
         23    2    1    2    0    0 -0.91672087707E+03  0.10455507742E+04  0.30965650567E+04  0.33956677536E+04  0.91053578833E+02 0.  0.
         11    1    3    3    0    0 -0.37099117199E+03  0.44349208543E+03  0.13927235638E+04  0.15079783170E+04  0.00000000000E+00 0. -1.
        -11    1    3    3    0    0 -0.54572970508E+03  0.60205868880E+03  0.17038414929E+04  0.18876894365E+04  0.00000000000E+00 0.  1.
         22    1    1    2    0    0  0.91672087707E+03 -0.10455507742E+04  0.16875310427E+03  0.14007252401E+04  0.00000000000E+00 0.  1.
<mgrwt>
<rscale>  0 0.35132724E+04</rscale>
<asrwt>0</asrwt>
<pdfrwt beam="1">  1        2 0.62013162E+00 0.35132724E+04</pdfrwt>
<pdfrwt beam="2">  1       -2 0.11777499E+00 0.35132724E+04</pdfrwt>
<totfact> 0.14699764E-01</totfact>
</mgrwt>
</event>
<event>
 6    1  0.1014650E-006  0.8252654E+03  0.7818608E-02  0.9524150E-01
         -1   -1    0    0    0  501 -0.00000000000E+00  0.00000000000E+00  0.23160773541E+03  0.23160773541E+03  0.00000000000E+00 0.  1.
          1   -1    0    0  501    0  0.00000000000E+00 -0.00000000000E+00 -0.73514711644E+03  0.73514711644E+03  0.00000000000E+00 0. -1.
         23    2    1    2    0    0  0.45740644333E+02  0.40503553737E+03 -0.24175565054E+03  0.48232042426E+03  0.89672760742E+02 0.  0.
         11    1    3    3    0    0  0.55514653699E+02  0.15691256362E+03 -0.70966163735E+02  0.18094094559E+03  0.00000000000E+00 0. -1.
        -11    1    3    3    0    0 -0.97740093662E+01  0.24812297375E+03 -0.17078948680E+03  0.30137947867E+03  0.00000000000E+00 0.  1.
         22    1    1    2    0    0 -0.45740644333E+02 -0.40503553737E+03 -0.26178373049E+03  0.48443442758E+03  0.00000000000E+00 0.  1.
<mgrwt>
<rscale>  0 0.82526543E+03</rscale>
<asrwt>0</asrwt>
<pdfrwt beam="1">  1        1 0.11309956E+00 0.82526543E+03</pdfrwt>
<pdfrwt beam="2">  1       -1 0.35631959E-01 0.82526543E+03</pdfrwt>
<totfact> 0.19164119E+02</totfact>
</mgrwt>
</event>
<event>
 6    1  0.1014650E-006  0.1270440E+04  0.7818608E-02  0.9053341E-01
          1   -1    0    0  501    0  0.00000000000E+00  0.00000000000E+00  0.87113272798E+03  0.87113272798E+03  0.00000000000E+00 0. -1.
         -1   -1    0    0    0  501 -0.00000000000E+00 -0.00000000000E+00 -0.46319499598E+03  0.46319499598E+03  0.00000000000E+00 0.  1.
         23    2    1    2    0    0  0.28703552569E+03  0.45086291166E+03 -0.14883038094E+03  0.56253922333E+03  0.92914677955E+02 0.  0.
         11    1    3    3    0    0  0.11262273130E+03  0.12059451089E+03 -0.14570523114E+02  0.16564786689E+03  0.00000000000E+00 0.  1.
        -11    1    3    3    0    0  0.17441279439E+03  0.33026840077E+03 -0.13425985783E+03  0.39689135644E+03  0.00000000000E+00 0. -1.
         22    1    1    2    0    0 -0.28703552569E+03 -0.45086291166E+03  0.55676811294E+03  0.77178850063E+03  0.00000000000E+00 0. -1.
<mgrwt>
<rscale>  0 0.12704398E+04</rscale>
<asrwt>0</asrwt>
<pdfrwt beam="1">  1        1 0.13402042E+00 0.12704398E+04</pdfrwt>
<pdfrwt beam="2">  1       -1 0.71260769E-01 0.12704398E+04</pdfrwt>
<totfact> 0.37658387E+01</totfact>
</mgrwt>
</event>
<event>
 6    1  0.1014650E-006  0.2357422E+04  0.7818608E-02  0.8455618E-01
          1   -1    0    0  501    0  0.00000000000E+00  0.00000000000E+00  0.14032830163E+04  0.14032830163E+04  0.00000000000E+00 0. -1.
         -1   -1    0    0    0  501 -0.00000000000E+00 -0.00000000000E+00 -0.99007774104E+03  0.99007774104E+03  0.00000000000E+00 0.  1.
         23    2    1    2    0    0 -0.59255208236E+03 -0.14326001830E+03 -0.81522035473E+03  0.10219851955E+04  0.90708929699E+02 0.  0.
         13    1    3    3    0    0 -0.52622770057E+03 -0.99751704021E+02 -0.68540638826E+03  0.86985510999E+03  0.00000000000E+00 0.  1.
        -13    1    3    3    0    0 -0.66324381787E+02 -0.43508314278E+02 -0.12981396647E+03  0.15213008552E+03  0.00000000000E+00 0. -1.
         22    1    1    2    0    0  0.59255208236E+03  0.14326001830E+03  0.12284256300E+04  0.13713755618E+04  0.00000000000E+00 0. -1.
<mgrwt>
<rscale>  0 0.23574217E+04</rscale>
<asrwt>0</asrwt>
<pdfrwt beam="1">  1        1 0.21588970E+00 0.23574217E+04</pdfrwt>
<pdfrwt beam="2">  1       -1 0.15231965E+00 0.23574217E+04</pdfrwt>
<totfact> 0.23006377E+00</totfact>
</mgrwt>
</event>
<event>
 6    1  0.1014650E-006  0.1780979E+04  0.7818608E-02  0.8716480E-01
         -1   -1    0    0    0  501 -0.00000000000E+00  0.00000000000E+00  0.28337870129E+03  0.28337870129E+03  0.00000000000E+00 0.  1.
          1   -1    0    0  501    0  0.00000000000E+00 -0.00000000000E+00 -0.27982762583E+04  0.27982762583E+04  0.00000000000E+00 0. -1.
         23    2    1    2    0    0  0.34487328049E+02  0.62716420304E+03 -0.23472282344E+04  0.24315493412E+04  0.91801419866E+02 0.  0.
         11    1    3    3    0    0  0.32986272168E+02  0.40506553890E+03 -0.13478170892E+04  0.14077560480E+04  0.00000000000E+00 0.  1.
        -11    1    3    3    0    0  0.15010558805E+01  0.22209866414E+03 -0.99941114526E+03  0.10237932931E+04  0.00000000000E+00 0. -1.
         22    1    1    2    0    0 -0.34487328049E+02 -0.62716420304E+03 -0.16766932259E+03  0.65010561842E+03  0.00000000000E+00 0.  1.
<mgrwt>
<rscale>  0 0.17809794E+04</rscale>
<asrwt>0</asrwt>
<pdfrwt beam="1">  1        1 0.43050405E+00 0.17809794E+04</pdfrwt>
<pdfrwt beam="2">  1       -1 0.43596722E-01 0.17809794E+04</pdfrwt>
<totfact> 0.41134208E+00</totfact>
</mgrwt>
</event>
<event>
 6    1  0.1014650E-006  0.6468810E+03  0.7818608E-02  0.9812649E-01
          2   -1    0    0  501    0  0.00000000000E+00  0.00000000000E+00  0.59404862623E+03  0.59404862623E+03  0.00000000000E+00 0. -1.
         -2   -1    0    0    0  501 -0.00000000000E+00 -0.00000000000E+00 -0.17610304582E+03  0.17610304582E+03  0.00000000000E+00 0.  1.
         23    2    1    2    0    0 -0.28175545406E+03 -0.10673419331E+03  0.33085556270E+03  0.45652291843E+03  0.90384997454E+02 0.  0.
         11    1    3    3    0    0 -0.23319322826E+03 -0.10872522615E+03  0.23235112558E+03  0.34668040335E+03  0.00000000000E+00 0.  1.
        -11    1    3    3    0    0 -0.48562225805E+02  0.19910328422E+01  0.98504437117E+02  0.10984251508E+03  0.00000000000E+00 0. -1.
         22    1    1    2    0    0  0.28175545406E+03  0.10673419331E+03  0.87090017713E+02  0.31362875363E+03  0.00000000000E+00 0. -1.
<mgrwt>
<rscale>  0 0.64688105E+03</rscale>
<asrwt>0</asrwt>
<pdfrwt beam="1">  1        2 0.91392095E-01 0.64688105E+03</pdfrwt>
<pdfrwt beam="2">  1       -2 0.27092777E-01 0.64688105E+03</pdfrwt>
<totfact> 0.62506651E+02</totfact>
</mgrwt>
</event>
<event>
 6    1  0.1014650E-006  0.2915906E+04  0.7818608E-02  0.8268161E-01
         -2   -1    0    0    0  501 -0.00000000000E+00  0.00000000000E+00  0.51226204302E+03  0.51226204302E+03  0.00000000000E+00 0.  1.
          2   -1    0    0  501    0  0.00000000000E+00 -0.00000000000E+00 -0.41494916597E+04  0.41494916597E+04  0.00000000000E+00 0. -1.
         23    2    1    2    0    0  0.68181581576E+00 -0.11301494930E+04 -0.35163113570E+03  0.11872183784E+04  0.92761420018E+02 0.  0.
         13    1    3    3    0    0 -0.37487030736E+02 -0.77922508179E+03 -0.22095910864E+03  0.81081436423E+03  0.00000000000E+00 0. -1.
        -13    1    3    3    0    0  0.38168846552E+02 -0.35092441123E+03 -0.13067202706E+03  0.37640401420E+03  0.00000000000E+00 0.  1.
         22    1    1    2    0    0 -0.68181581576E+00  0.11301494930E+04 -0.32855984809E+04  0.34745353242E+04  0.00000000000E+00 0. -1.
<mgrwt>
<rscale>  0 0.29159061E+04</rscale>
<asrwt>0</asrwt>
<pdfrwt beam="1">  1        2 0.63838333E+00 0.29159061E+04</pdfrwt>
<pdfrwt beam="2">  1       -2 0.78809545E-01 0.29159061E+04</pdfrwt>
<totfact> 0.31671977E-01</totfact>
</mgrwt>
</event>
<event>
 6    1  0.1014650E-006  0.4010834E+04  0.7818608E-02  0.8002365E-01
         -1   -1    0    0    0  501 -0.00000000000E+00  0.00000000000E+00  0.13994888302E+04  0.13994888302E+04  0.00000000000E+00 0.  1.
          1   -1    0    0  501    0  0.00000000000E+00 -0.00000000000E+00 -0.28736903796E+04  0.28736903796E+04  0.00000000000E+00 0. -1.
         23    2    1    2    0    0  0.47272603920E+03 -0.11005617796E+04  0.97496062865E+03  0.15468077175E+04  0.85788977999E+02 0.  0.
         13    1    3    3    0    0  0.17618333153E+03 -0.51587908496E+03  0.45445115661E+03  0.70971659861E+03  0.00000000000E+00 0. -1.
        -13    1    3    3    0    0  0.29654270767E+03 -0.58468269466E+03  0.52050947204E+03  0.83709111893E+03  0.00000000000E+00 0.  1.
         22    1    1    2    0    0 -0.47272603920E+03  0.11005617796E+04 -0.24491621781E+04  0.27263714922E+04  0.00000000000E+00 0. -1.
<mgrwt>
<rscale>  0 0.40108341E+04</rscale>
<asrwt>0</asrwt>
<pdfrwt beam="1">  1        1 0.44210621E+00 0.40108341E+04</pdfrwt>
<pdfrwt beam="2">  1       -1 0.21530598E+00 0.40108341E+04</pdfrwt>
<totfact> 0.68275133E-02</totfact>
</mgrwt>
</event>
<event>
 6    1  0.1014650E-006  0.1926282E+04  0.7818608E-02  0.8641884E-01
         -2   -1    0    0    0  501 -0.00000000000E+00  0.00000000000E+00  0.59478638464E+03  0.59478638464E+03  0.00000000000E+00 0.  1.
          2   -1    0    0  501    0  0.00000000000E+00 -0.00000000000E+00 -0.15596196683E+04  0.15596196683E+04  0.00000000000E+00 0. -1.
         23    2    1    2    0    0  0.61098280417E+03  0.72454926888E+03 -0.66067010351E+03  0.11590232773E+04  0.92619336655E+02 0.  0.
         13    1    3    3    0    0  0.33748468934E+03  0.35155405084E+03 -0.38035367064E+03  0.61818693045E+03  0.00000000000E+00 0.  1.
        -13    1    3    3    0    0  0.27349811483E+03  0.37299521804E+03 -0.28031643286E+03  0.54083634681E+03  0.00000000000E+00 0. -1.
         22    1    1    2    0    0 -0.61098280417E+03 -0.72454926888E+03 -0.30416318020E+03  0.99538277573E+03  0.00000000000E+00 0.  1.
<mgrwt>
<rscale>  0 0.19262820E+04</rscale>
<asrwt>0</asrwt>
<pdfrwt beam="1">  1        2 0.23994148E+00 0.19262820E+04</pdfrwt>
<pdfrwt beam="2">  1       -2 0.91505599E-01 0.19262820E+04</pdfrwt>
<totfact> 0.11167668E+01</totfact>
</mgrwt>
</event>
<event>
 6    1  0.1014650E-006  0.3897983E+04  0.7818608E-02  0.8025449E-01
         -2   -1    0    0    0  501 -0.00000000000E+00  0.00000000000E+00  0.13998070070E+04  0.13998070070E+04  0.00000000000E+00 0.  1.
          2   -1    0    0  501    0  0.00000000000E+00 -0.00000000000E+00 -0.27136365452E+04  0.27136365452E+04  0.00000000000E+00 0. -1.
         23    2    1    2    0    0 -0.12090734778E+04  0.84517490806E+03 -0.19997450742E+04  0.24865878664E+04  0.89216342456E+02 0.  0.
         11    1    3    3    0    0 -0.78830718102E+03  0.51852312970E+03 -0.13339832259E+04  0.16339540063E+04  0.00000000000E+00 0. -1.
        -11    1    3    3    0    0 -0.42076629678E+03  0.32665177836E+03 -0.66576184831E+03  0.85263386015E+03  0.00000000000E+00 0.  1.
         22    1    1    2    0    0  0.12090734778E+04 -0.84517490806E+03  0.68591553598E+03  0.16268556858E+04  0.00000000000E+00 0.  1.
<mgrwt>
<rscale>  0 0.38979828E+04</rscale>
<asrwt>0</asrwt>
<pdfrwt beam="1">  1        2 0.41748254E+00 0.38979828E+04</pdfrwt>
<pdfrwt beam="2">  1       -2 0.21535493E+00 0.38979828E+04</pdfrwt>
<totfact> 0.21927300E-01</totfact>
</mgrwt>
</event>
<event>
 6    1  0.1014650E-006  0.8535694E+03  0.7818608E-02  0.9485559E-01
         -1   -1    0    0    0  501 -0.00000000000E+00  0.00000000000E+00  0.12609797176E+03  0.12609797176E+03  0.00000000000E+00 0.  1.
          1   -1    0    0  501    0  0.00000000000E+00 -0.00000000000E+00 -0.14444736039E+04  0.14444736039E+04  0.00000000000E+00 0. -1.
         23    2    1    2    0    0 -0.12906467641E+03  0.21469173593E+03 -0.42308642129E+02  0.27014964598E+03  0.91872617532E+02 0.  0.
         11    1    3    3    0    0 -0.11800600272E+03  0.12851395792E+03 -0.22833441980E+01  0.17448916218E+03  0.00000000000E+00 0. -1.
        -11    1    3    3    0    0 -0.11058673690E+02  0.86177778011E+02 -0.40025297931E+02  0.95660483802E+02  0.00000000000E+00 0.  1.
         22    1    1    2    0    0  0.12906467641E+03 -0.21469173593E+03 -0.12760669900E+04  0.13004219297E+04  0.00000000000E+00 0. -1.
<mgrwt>
<rscale>  0 0.85356943E+03</rscale>
<asrwt>0</asrwt>
<pdfrwt beam="1">  1        1 0.22222671E+00 0.85356943E+03</pdfrwt>
<pdfrwt beam="2">  1       -1 0.19399688E-01 0.85356943E+03</pdfrwt>
<totfact> 0.15560194E+02</totfact>
</mgrwt>
</event>
<event>
 6    1  0.1014650E-006  0.1000310E+04  0.7818608E-02  0.9308204E-01
          2   -1    0    0  501    0  0.00000000000E+00  0.00000000000E+00  0.30923854094E+04  0.30923854094E+04  0.00000000000E+00 0. -1.
         -2   -1    0    0    0  501 -0.00000000000E+00 -0.00000000000E+00 -0.80893930407E+02  0.80893930407E+02  0.00000000000E+00 0.  1.
         23    2    1    2    0    0 -0.36218098475E+03  0.38776978479E+02  0.25861065542E+04  0.26132516137E+04  0.91968293658E+02 0.  0.
         13    1    3    3    0    0 -0.30046471582E+03  0.43680000629E+02  0.23334449289E+04  0.23531154294E+04  0.00000000000E+00 0.  1.
        -13    1    3    3    0    0 -0.61716268934E+02 -0.49030221501E+01  0.25266162528E+03  0.26013618427E+03  0.00000000000E+00 0. -1.
         22    1    1    2    0    0  0.36218098475E+03 -0.38776978479E+02  0.42538492482E+03  0.56002772614E+03  0.00000000000E+00 0.  1.
<mgrwt>
<rscale>  0 0.10003104E+04</rscale>
<asrwt>0</asrwt>
<pdfrwt beam="1">  1        2 0.47575151E+00 0.10003104E+04</pdfrwt>
<pdfrwt beam="2">  1       -2 0.12445222E-01 0.10003104E+04</pdfrwt>
<totfact> 0.74953805E+01</totfact>
</mgrwt>
</event>
<event>
 6    1  0.1014650E-006  0.2651233E+04  0.7818608E-02  0.8351004E-01
         -1   -1    0    0    0  501 -0.00000000000E+00  0.00000000000E+00  0.19119763155E+04  0.19119763155E+04  0.00000000000E+00 0.  1.
          1   -1    0    0  501    0  0.00000000000E+00 -0.00000000000E+00 -0.91907967497E+03  0.91907967497E+03  0.00000000000E+00 0. -1.
         23    2    1    2    0    0  0.25866777430E+03  0.68243082523E+03 -0.68262324496E+03  0.10034926577E+04  0.91663355600E+02 0.  0.
         13    1    3    3    0    0  0.12930318829E+03  0.29592071428E+03 -0.36043735022E+03  0.48394572741E+03  0.00000000000E+00 0. -1.
        -13    1    3    3    0    0  0.12936458602E+03  0.38651011095E+03 -0.32218589474E+03  0.51954693027E+03  0.00000000000E+00 0.  1.
         22    1    1    2    0    0 -0.25866777430E+03 -0.68243082523E+03  0.16755198855E+04  0.18275633328E+04  0.00000000000E+00 0.  1.
<mgrwt>
<rscale>  0 0.26512326E+04</rscale>
<asrwt>0</asrwt>
<pdfrwt beam="1">  1        1 0.14139687E+00 0.26512326E+04</pdfrwt>
<pdfrwt beam="2">  1       -1 0.29415020E+00 0.26512326E+04</pdfrwt>
<totfact> 0.55471724E-01</totfact>
</mgrwt>
</event>
<event>
 6    1  0.1014650E-006  0.4701020E+04  0.7818608E-02  0.7876359E-01
         -1   -1    0    0    0  501 -0.00000000000E+00  0.00000000000E+00  0.23826028534E+04  0.23826028534E+04  0.00000000000E+00 0.  1.
          1   -1    0    0  501    0  0.00000000000E+00 -0.00000000000E+00 -0.23188497092E+04  0.23188497092E+04  0.00000000000E+00 0. -1.
         23    2    1    2    0    0 -0.11032849133E+04  0.10811928187E+04 -0.17384178508E+04  0.23278401666E+04  0.10260461055E+03 0.  0.
         13    1    3    3    0    0 -0.70283898119E+03  0.75572185386E+03 -0.11696830439E+04  0.15598899247E+04  0.00000000000E+00 0.  1.
        -13    1    3    3    0    0 -0.40044593212E+03  0.32547096481E+03 -0.56873480689E+03  0.76795024191E+03  0.00000000000E+00 0. -1.
         22    1    1    2    0    0  0.11032849133E+04 -0.10811928187E+04  0.18021709951E+04  0.23736123960E+04  0.00000000000E+00 0.  1.
<mgrwt>
<rscale>  0 0.47010203E+04</rscale>
<asrwt>0</asrwt>
<pdfrwt beam="1">  1        1 0.35674611E+00 0.47010203E+04</pdfrwt>
<pdfrwt beam="2">  1       -1 0.36655429E+00 0.47010203E+04</pdfrwt>
<totfact> 0.16094905E-02</totfact>
</mgrwt>
</event>
<event>
 6    1  0.1014650E-006  0.4253183E+04  0.7818608E-02  0.7955332E-01
         -2   -1    0    0    0  501 -0.00000000000E+00  0.00000000000E+00  0.16054933360E+04  0.16054933360E+04  0.00000000000E+00 0.  1.
          2   -1    0    0  501    0  0.00000000000E+00 -0.00000000000E+00 -0.28168228949E+04  0.28168228949E+04  0.00000000000E+00 0. -1.
         23    2    1    2    0    0 -0.59912792259E+03  0.12353982842E+02  0.15145623186E+04  0.16313319214E+04  0.90763054732E+02 0.  0.
         11    1    3    3    0    0 -0.19755027806E+03 -0.32701673987E+02  0.44491190114E+03  0.48789559500E+03  0.00000000000E+00 0. -1.
        -11    1    3    3    0    0 -0.40157764453E+03  0.45055656829E+02  0.10696504175E+04  0.11434363264E+04  0.00000000000E+00 0.  1.
         22    1    1    2    0    0  0.59912792259E+03 -0.12353982842E+02 -0.27258918775E+04  0.27909843096E+04  0.00000000000E+00 0. -1.
<mgrwt>
<rscale>  0 0.42531825E+04</rscale>
<asrwt>0</asrwt>
<pdfrwt beam="1">  1        2 0.43335736E+00 0.42531825E+04</pdfrwt>
<pdfrwt beam="2">  1       -2 0.24699898E+00 0.42531825E+04</pdfrwt>
<totfact> 0.11704165E-01</totfact>
</mgrwt>
</event>
<event>
 6    1  0.1014650E-006  0.2972582E+04  0.7818608E-02  0.8251604E-01
         -1   -1    0    0    0  501 -0.00000000000E+00  0.00000000000E+00  0.81257921200E+03  0.81257921200E+03  0.00000000000E+00 0.  1.
          1   -1    0    0  501    0  0.00000000000E+00 -0.00000000000E+00 -0.27185783344E+04  0.27185783344E+04  0.00000000000E+00 0. -1.
         23    2    1    2    0    0 -0.13539797041E+04  0.46008796031E+03 -0.47878739520E+03  0.15107924100E+04  0.91183144737E+02 0.  0.
         11    1    3    3    0    0 -0.10647938302E+04  0.33007207588E+03 -0.39681697590E+03  0.11832992810E+04  0.00000000000E+00 0. -1.
        -11    1    3    3    0    0 -0.28918587392E+03  0.13001588443E+03 -0.81970419301E+02  0.32749312897E+03  0.00000000000E+00 0.  1.
         22    1    1    2    0    0  0.13539797041E+04 -0.46008796031E+03 -0.14272117272E+04  0.20203651364E+04  0.00000000000E+00 0.  1.
<mgrwt>
<rscale>  0 0.29725815E+04</rscale>
<asrwt>0</asrwt>
<pdfrwt beam="1">  1        1 0.41824281E+00 0.29725815E+04</pdfrwt>
<pdfrwt beam="2">  1       -1 0.12501219E+00 0.29725815E+04</pdfrwt>
<totfact> 0.45417801E-01</totfact>
</mgrwt>
</event>
<event>
 6    1  0.1014650E-006  0.8072799E+03  0.7818608E-02  0.9549539E-01
          1   -1    0    0  501    0  0.00000000000E+00  0.00000000000E+00  0.84231139787E+03  0.84231139787E+03  0.00000000000E+00 0. -1.
         -1   -1    0    0    0  501 -0.00000000000E+00 -0.00000000000E+00 -0.19342635424E+03  0.19342635424E+03  0.00000000000E+00 0.  1.
         23    2    1    2    0    0  0.33009051504E+03  0.22115914203E+03  0.29405281322E+03  0.50303049106E+03  0.93281851155E+02 0.  0.
         13    1    3    3    0    0  0.15054026811E+03  0.15685272879E+03  0.15497934738E+03  0.26699016642E+03  0.00000000000E+00 0.  1.
        -13    1    3    3    0    0  0.17955024693E+03  0.64306413243E+02  0.13907346584E+03  0.23604032464E+03  0.00000000000E+00 0. -1.
         22    1    1    2    0    0 -0.33009051504E+03 -0.22115914203E+03  0.35483223041E+03  0.53270726104E+03  0.00000000000E+00 0. -1.
<mgrwt>
<rscale>  0 0.80727993E+03</rscale>
<asrwt>0</asrwt>
<pdfrwt beam="1">  1        1 0.12958637E+00 0.80727993E+03</pdfrwt>
<pdfrwt beam="2">  1       -1 0.29757901E-01 0.80727993E+03</pdfrwt>
<totfact> 0.21241369E+02</totfact>
</mgrwt>
</event>
<event>
 6    1  0.1014650E-006  0.1751148E+04  0.7818608E-02  0.8732719E-01
          1   -1    0    0  501    0  0.00000000000E+00  0.00000000000E+00  0.25695899431E+04  0.25695899431E+04  0.00000000000E+00 0. -1.
         -1   -1    0    0    0  501 -0.00000000000E+00 -0.00000000000E+00 -0.29834720184E+03  0.29834720184E+03  0.00000000000E+00 0.  1.
         23    2    1    2    0    0 -0.35728703374E+03  0.25624314695E+03  0.23742794731E+04  0.24163497858E+04  0.90712162780E+02 0.  0.
         13    1    3    3    0    0 -0.20177061060E+03  0.15159679784E+03  0.11156764866E+04  0.11438649357E+04  0.00000000000E+00 0.  1.
        -13    1    3    3    0    0 -0.15551642314E+03  0.10464634911E+03  0.12586029865E+04  0.12724848501E+04  0.00000000000E+00 0. -1.
         22    1    1    2    0    0  0.35728703374E+03 -0.25624314695E+03 -0.10303673176E+03  0.45158735913E+03  0.00000000000E+00 0.  1.
<mgrwt>
<rscale>  0 0.17511482E+04</rscale>
<asrwt>0</asrwt>
<pdfrwt beam="1">  1        1 0.39532151E+00 0.17511482E+04</pdfrwt>
<pdfrwt beam="2">  1       -1 0.45899571E-01 0.17511482E+04</pdfrwt>
<totfact> 0.54266365E+00</totfact>
</mgrwt>
</event>
<event>
 6    1  0.1014650E-006  0.1687238E+04  0.7818608E-02  0.8768677E-01
         -2   -1    0    0    0  501 -0.00000000000E+00  0.00000000000E+00  0.44249052586E+03  0.44249052586E+03  0.00000000000E+00 0.  1.
          2   -1    0    0  501    0  0.00000000000E+00 -0.00000000000E+00 -0.16083797271E+04  0.16083797271E+04  0.00000000000E+00 0. -1.
         23    2    1    2    0    0  0.32655426503E+03  0.20407702115E+03  0.32433482355E+03  0.51169750027E+03  0.91411899888E+02 0.  0.
         11    1    3    3    0    0  0.42193293943E+02  0.35545881196E+02  0.93364115867E+02  0.10844649305E+03  0.00000000000E+00 0. -1.
        -11    1    3    3    0    0  0.28436097109E+03  0.16853113995E+03  0.23097070768E+03  0.40325100721E+03  0.00000000000E+00 0.  1.
         22    1    1    2    0    0 -0.32655426503E+03 -0.20407702115E+03 -0.14902240248E+04  0.15391727527E+04  0.00000000000E+00 0. -1.
<mgrwt>
<rscale>  0 0.16872377E+04</rscale>
<asrwt>0</asrwt>
<pdfrwt beam="1">  1        2 0.24744303E+00 0.16872377E+04</pdfrwt>
<pdfrwt beam="2">  1       -2 0.68075467E-01 0.16872377E+04</pdfrwt>
<totfact> 0.20755597E+01</totfact>
</mgrwt>
</event>
<event>
 6    1  0.1014650E-006  0.5060295E+04  0.7818608E-02  0.7819273E-01
         -1   -1    0    0    0  501 -0.00000000000E+00  0.00000000000E+00  0.18662858833E+04  0.18662858833E+04  0.00000000000E+00 0.  1.
          1   -1    0    0  501    0  0.00000000000E+00 -0.00000000000E+00 -0.34301531724E+04  0.34301531724E+04  0.00000000000E+00 0. -1.
         23    2    1    2    0    0 -0.44033962821E+03 -0.11043783675E+04  0.15544725763E+04  0.19591356407E+04  0.90977477408E+02 0.  0.
         13    1    3    3    0    0 -0.33103707494E+03 -0.90225608933E+03  0.12927545977E+04  0.16108587913E+04  0.00000000000E+00 0. -1.
        -13    1    3    3    0    0 -0.10930255326E+03 -0.20212227820E+03  0.26171797862E+03  0.34827684940E+03  0.00000000000E+00 0.  1.
         22    1    1    2    0    0  0.44033962821E+03  0.11043783675E+04 -0.31183398654E+04  0.33373034149E+04  0.00000000000E+00 0. -1.
<mgrwt>
<rscale>  0 0.50602950E+04</rscale>
<asrwt>0</asrwt>
<pdfrwt beam="1">  1        1 0.52771587E+00 0.50602950E+04</pdfrwt>
<pdfrwt beam="2">  1       -1 0.28712091E+00 0.50602950E+04</pdfrwt>
<totfact> 0.81447999E-03</totfact>
</mgrwt>
</event>
<event>
 6    1  0.1014650E-006  0.8939538E+03  0.7818608E-02  0.9433171E-01
         -1   -1    0    0    0  501 -0.00000000000E+00  0.00000000000E+00  0.55697627025E+02  0.55697627025E+02  0.00000000000E+00 0.  1.
          1   -1    0    0  501    0  0.00000000000E+00 -0.00000000000E+00 -0.35870170219E+04  0.35870170219E+04  0.00000000000E+00 0. -1.
         23    2    1    2    0    0 -0.39782785620E+03  0.17456068996E+03 -0.21342784150E+04  0.21796828867E+04  0.84467132398E+02 0.  0.
         13    1    3    3    0    0 -0.36433421627E+03  0.13908688488E+03 -0.19736070493E+04  0.20117677221E+04  0.00000000000E+00 0. -1.
        -13    1    3    3    0    0 -0.33493639929E+02  0.35473805079E+02 -0.16067136568E+03  0.16791516463E+03  0.00000000000E+00 0.  1.
         22    1    1    2    0    0  0.39782785620E+03 -0.17456068996E+03 -0.13970409799E+04  0.14630317622E+04  0.00000000000E+00 0.  1.
<mgrwt>
<rscale>  0 0.89395377E+03</rscale>
<asrwt>0</asrwt>
<pdfrwt beam="1">  1        1 0.55184898E+00 0.89395377E+03</pdfrwt>
<pdfrwt beam="2">  1       -1 0.85688626E-02 0.89395377E+03</pdfrwt>
<totfact> 0.18127837E+01</totfact>
</mgrwt>
</event>
<event>
 6    1  0.1014650E-006  0.3634281E+04  0.7818608E-02  0.8082684E-01
          2   -1    0    0  501    0  0.00000000000E+00  0.00000000000E+00  0.16978962803E+04  0.16978962803E+04  0.00000000000E+00 0. -1.
         -2   -1    0    0    0  501 -0.00000000000E+00 -0.00000000000E+00 -0.19447593344E+04  0.19447593344E+04  0.00000000000E+00 0.  1.
         23    2    1    2    0    0 -0.48926487828E+03 -0.25076921041E+03  0.16114483333E+04  0.17047220425E+04  0.83941607381E+02 0.  0.
         11    1    3    3    0    0 -0.32816034302E+03 -0.19033444506E+03  0.10005776292E+04  0.10700803726E+04  0.00000000000E+00 0.  1.
        -11    1    3    3    0    0 -0.16110453525E+03 -0.60434765351E+02  0.61087070409E+03  0.63464166997E+03  0.00000000000E+00 0. -1.
         22    1    1    2    0    0  0.48926487828E+03  0.25076921041E+03 -0.18583113873E+04  0.19379335722E+04  0.00000000000E+00 0.  1.
<mgrwt>
<rscale>  0 0.36342810E+04</rscale>
<asrwt>0</asrwt>
<pdfrwt beam="1">  1        2 0.26121481E+00 0.36342810E+04</pdfrwt>
<pdfrwt beam="2">  1       -2 0.29919374E+00 0.36342810E+04</pdfrwt>
<totfact> 0.25690633E-01</totfact>
</mgrwt>
</event>
<event>
 6    1  0.1014650E-006  0.2461089E+04  0.7818608E-02  0.8416980E-01
          2   -1    0    0  501    0  0.00000000000E+00  0.00000000000E+00  0.15083790523E+04  0.15083790523E+04  0.00000000000E+00 0. -1.
         -2   -1    0    0    0  501 -0.00000000000E+00 -0.00000000000E+00 -0.10038856754E+04  0.10038856754E+04  0.00000000000E+00 0.  1.
         23    2    1    2    0    0  0.50575552684E+03 -0.10827205929E+03  0.13904405799E+04  0.14863924461E+04  0.92336372659E+02 0.  0.
         13    1    3    3    0    0  0.17671668671E+03 -0.29834725038E+02  0.61044044011E+03  0.63620470692E+03  0.00000000000E+00 0. -1.
        -13    1    3    3    0    0  0.32903884013E+03 -0.78437334248E+02  0.78000013983E+03  0.85018773918E+03  0.00000000000E+00 0.  1.
         22    1    1    2    0    0 -0.50575552684E+03  0.10827205929E+03 -0.88594720298E+03  0.10258722816E+04  0.00000000000E+00 0.  1.
<mgrwt>
<rscale>  0 0.24610893E+04</rscale>
<asrwt>0</asrwt>
<pdfrwt beam="1">  1        2 0.23205832E+00 0.24610893E+04</pdfrwt>
<pdfrwt beam="2">  1       -2 0.15444395E+00 0.24610893E+04</pdfrwt>
<totfact> 0.31145076E+00</totfact>
</mgrwt>
</event>
<event>
 6    1  0.1014650E-006  0.6902353E+03  0.7818608E-02  0.9734078E-01
          2   -1    0    0  501    0  0.00000000000E+00  0.00000000000E+00  0.21341015039E+04  0.21341015039E+04  0.00000000000E+00 0. -1.
         -2   -1    0    0    0  501 -0.00000000000E+00 -0.00000000000E+00 -0.55810932204E+02  0.55810932204E+02  0.00000000000E+00 0.  1.
         23    2    1    2    0    0 -0.31300326341E+03  0.87970508536E+02  0.13635347043E+04  0.14046826587E+04  0.90535234382E+02 0.  0.
         11    1    3    3    0    0 -0.28100738916E+03  0.10168294140E+03  0.12749331373E+04  0.13094880977E+04  0.00000000000E+00 0. -1.
        -11    1    3    3    0    0 -0.31995874247E+02 -0.13712432866E+02  0.88601566963E+02  0.95194561043E+02  0.00000000000E+00 0.  1.
         22    1    1    2    0    0  0.31300326341E+03 -0.87970508536E+02  0.71475586737E+03  0.78522977733E+03  0.00000000000E+00 0.  1.
<mgrwt>
<rscale>  0 0.69023531E+03</rscale>
<asrwt>0</asrwt>
<pdfrwt beam="1">  1        2 0.32832325E+00 0.69023531E+03</pdfrwt>
<pdfrwt beam="2">  1       -2 0.85862989E-02 0.69023531E+03</pdfrwt>
<totfact> 0.50961730E+02</totfact>
</mgrwt>
</event>
<event>
 6    1  0.1014650E-006  0.2729678E+04  0.7818608E-02  0.8325439E-01
          2   -1    0    0  501    0  0.00000000000E+00  0.00000000000E+00  0.69718745771E+03  0.69718745771E+03  0.00000000000E+00 0. -1.
         -2   -1    0    0    0  501 -0.00000000000E+00 -0.00000000000E+00 -0.26718566729E+04  0.26718566729E+04  0.00000000000E+00 0.  1.
         23    2    1    2    0    0 -0.74216943505E+03 -0.10147937537E+04 -0.16390787234E+04  0.20677974933E+04  0.92658399637E+02 0.  0.
         11    1    3    3    0    0 -0.18851616906E+03 -0.32607526523E+03 -0.51148439457E+03  0.63520052777E+03  0.00000000000E+00 0. -1.
        -11    1    3    3    0    0 -0.55365326599E+03 -0.68871848849E+03 -0.11275943288E+04  0.14325969656E+04  0.00000000000E+00 0.  1.
         22    1    1    2    0    0  0.74216943505E+03  0.10147937537E+04 -0.33559049181E+03  0.13012466373E+04  0.00000000000E+00 0. -1.
<mgrwt>
<rscale>  0 0.27296776E+04</rscale>
<asrwt>0</asrwt>
<pdfrwt beam="1">  1        2 0.10725961E+00 0.27296776E+04</pdfrwt>
<pdfrwt beam="2">  1       -2 0.41105487E+00 0.27296776E+04</pdfrwt>
<totfact> 0.22626210E-01</totfact>
</mgrwt>
</event>
<event>
 6    1  0.1014650E-006  0.2234725E+04  0.7818608E-02  0.8504112E-01
          2   -1    0    0  501    0  0.00000000000E+00  0.00000000000E+00  0.19463046583E+04  0.19463046583E+04  0.00000000000E+00 0. -1.
         -2   -1    0    0    0  501 -0.00000000000E+00 -0.00000000000E+00 -0.64147159600E+03  0.64147159600E+03  0.00000000000E+00 0.  1.
         23    2    1    2    0    0 -0.64213980650E+03 -0.90153408829E+03  0.49347381866E+03  0.12154020103E+04  0.92619616704E+02 0.  0.
         13    1    3    3    0    0 -0.37203310531E+03 -0.52909451213E+03  0.23830527382E+03  0.68930329880E+03  0.00000000000E+00 0.  1.
        -13    1    3    3    0    0 -0.27010670119E+03 -0.37243957616E+03  0.25516854484E+03  0.52609871146E+03  0.00000000000E+00 0. -1.
         22    1    1    2    0    0  0.64213980650E+03  0.90153408829E+03  0.81135924361E+03  0.13723742440E+04  0.00000000000E+00 0.  1.
<mgrwt>
<rscale>  0 0.22347252E+04</rscale>
<asrwt>0</asrwt>
<pdfrwt beam="1">  1        2 0.29943148E+00 0.22347252E+04</pdfrwt>
<pdfrwt beam="2">  1       -2 0.98687939E-01 0.22347252E+04</pdfrwt>
<totfact> 0.55587618E+00</totfact>
</mgrwt>
</event>
<event>
 6    1  0.1014650E-006  0.1871397E+04  0.7818608E-02  0.8669227E-01
         -1   -1    0    0    0  501 -0.00000000000E+00  0.00000000000E+00  0.44935969366E+03  0.44935969366E+03  0.00000000000E+00 0.  1.
          1   -1    0    0  501    0  0.00000000000E+00 -0.00000000000E+00 -0.19483973180E+04  0.19483973180E+04  0.00000000000E+00 0. -1.
         23    2    1    2    0    0  0.81090856196E+03 -0.36841844873E+03 -0.39359114259E+03  0.97813848078E+03  0.92390750821E+02 0.  0.
         11    1    3    3    0    0  0.49853071457E+03 -0.24306659114E+03 -0.29057012505E+03  0.62613516006E+03  0.00000000000E+00 0.  1.
        -11    1    3    3    0    0  0.31237784739E+03 -0.12535185760E+03 -0.10302101754E+03  0.35200332072E+03  0.00000000000E+00 0. -1.
         22    1    1    2    0    0 -0.81090856196E+03  0.36841844873E+03 -0.11054464818E+04  0.14196185309E+04  0.00000000000E+00 0. -1.
<mgrwt>
<rscale>  0 0.18713965E+04</rscale>
<asrwt>0</asrwt>
<pdfrwt beam="1">  1        1 0.29975342E+00 0.18713965E+04</pdfrwt>
<pdfrwt beam="2">  1       -1 0.69132263E-01 0.18713965E+04</pdfrwt>
<totfact> 0.64130836E+00</totfact>
</mgrwt>
</event>
<event>
 6    1  0.1014650E-006  0.2468897E+04  0.7818608E-02  0.8414151E-01
         -2   -1    0    0    0  501 -0.00000000000E+00  0.00000000000E+00  0.10924290010E+04  0.10924290010E+04  0.00000000000E+00 0.  1.
          2   -1    0    0  501    0  0.00000000000E+00 -0.00000000000E+00 -0.13949307812E+04  0.13949307812E+04  0.00000000000E+00 0. -1.
         23    2    1    2    0    0  0.12313919465E+03  0.10978125562E+04  0.39972143458E+03  0.11783627947E+04  0.91684136293E+02 0.  0.
         11    1    3    3    0    0  0.57316746891E+02  0.29908921945E+03  0.14605582471E+03  0.33774528064E+03  0.00000000000E+00 0.  1.
        -11    1    3    3    0    0  0.65822447757E+02  0.79872333673E+03  0.25366560987E+03  0.84061751403E+03  0.00000000000E+00 0. -1.
         22    1    1    2    0    0 -0.12313919465E+03 -0.10978125562E+04 -0.70222321478E+03  0.13089969874E+04  0.00000000000E+00 0. -1.
<mgrwt>
<rscale>  0 0.24688968E+04</rscale>
<asrwt>0</asrwt>
<pdfrwt beam="1">  1        2 0.21460473E+00 0.24688968E+04</pdfrwt>
<pdfrwt beam="2">  1       -2 0.16806600E+00 0.24688968E+04</pdfrwt>
<totfact> 0.28664009E+00</totfact>
</mgrwt>
</event>
<event>
 6    1  0.1014650E-006  0.6410091E+03  0.7818608E-02  0.9823798E-01
          1   -1    0    0  501    0  0.00000000000E+00  0.00000000000E+00  0.27945099239E+04  0.27945099239E+04  0.00000000000E+00 0. -1.
         -1   -1    0    0    0  501 -0.00000000000E+00 -0.00000000000E+00 -0.36758924345E+02  0.36758924345E+02  0.00000000000E+00 0.  1.
         23    2    1    2    0    0  0.31104109945E+03 -0.15300840391E+02  0.15869283839E+04  0.16197382962E+04  0.90718086526E+02 0.  0.
         11    1    3    3    0    0  0.23436388160E+03 -0.43292495924E+02  0.10551102747E+04  0.10816923597E+04  0.00000000000E+00 0.  1.
        -11    1    3    3    0    0  0.76677217848E+02  0.27991655534E+02  0.53181810923E+03  0.53804593653E+03  0.00000000000E+00 0. -1.
         22    1    1    2    0    0 -0.31104109945E+03  0.15300840391E+02  0.11708226157E+04  0.12115305521E+04  0.00000000000E+00 0.  1.
<mgrwt>
<rscale>  0 0.64100914E+03</rscale>
<asrwt>0</asrwt>
<pdfrwt beam="1">  1        1 0.42992443E+00 0.64100914E+03</pdfrwt>
<pdfrwt beam="2">  1       -1 0.56552214E-02 0.64100914E+03</pdfrwt>
<totfact> 0.13751625E+02</totfact>
</mgrwt>
</event>
<event>
 6    1  0.1014650E-006  0.1692258E+04  0.7818608E-02  0.8765792E-01
         -1   -1    0    0    0  501 -0.00000000000E+00  0.00000000000E+00  0.28093648463E+03  0.28093648463E+03  0.00000000000E+00 0.  1.
          1   -1    0    0  501    0  0.00000000000E+00 -0.00000000000E+00 -0.25483861517E+04  0.25483861517E+04  0.00000000000E+00 0. -1.
         23    2    1    2    0    0  0.26665146045E+03 -0.76958846285E+03 -0.76839171783E+03  0.11232909430E+04  0.89371735250E+02 0.  0.
         13    1    3    3    0    0  0.70559297455E+02 -0.29803542872E+03 -0.33012996257E+03  0.45032157778E+03  0.00000000000E+00 0. -1.
        -13    1    3    3    0    0  0.19609216300E+03 -0.47155303412E+03 -0.43826175527E+03  0.67296936521E+03  0.00000000000E+00 0.  1.
         22    1    1    2    0    0 -0.26665146045E+03  0.76958846285E+03 -0.14990579493E+04  0.17060316934E+04  0.00000000000E+00 0. -1.
<mgrwt>
<rscale>  0 0.16922584E+04</rscale>
<asrwt>0</asrwt>
<pdfrwt beam="1">  1        1 0.39205940E+00 0.16922584E+04</pdfrwt>
<pdfrwt beam="2">  1       -1 0.43220999E-01 0.16922584E+04</pdfrwt>
<totfact> 0.63141909E+00</totfact>
</mgrwt>
</event>
<event>
 6    1  0.1014650E-006  0.2951340E+04  0.7818608E-02  0.8257764E-01
          2   -1    0    0  501    0  0.00000000000E+00  0.00000000000E+00  0.34766457344E+04  0.34766457344E+04  0.00000000000E+00 0. -1.
         -2   -1    0    0    0  501 -0.00000000000E+00 -0.00000000000E+00 -0.62635159455E+03  0.62635159455E+03  0.00000000000E+00 0.  1.
         23    2    1    2    0    0 -0.13061900104E+04 -0.41849555602E+03  0.67509240695E+03  0.15314659851E+04  0.91473667362E+02 0.  0.
         11    1    3    3    0    0 -0.58395901844E+03 -0.21313505259E+03  0.26331809253E+03  0.67510821630E+03  0.00000000000E+00 0. -1.
        -11    1    3    3    0    0 -0.72223099198E+03 -0.20536050343E+03  0.41177431442E+03  0.85635776878E+03  0.00000000000E+00 0.  1.
         22    1    1    2    0    0  0.13061900104E+04  0.41849555602E+03  0.21752017329E+04  0.25715313439E+04  0.00000000000E+00 0. -1.
<mgrwt>
<rscale>  0 0.29513404E+04</rscale>
<asrwt>0</asrwt>
<pdfrwt beam="1">  1        2 0.53486856E+00 0.29513404E+04</pdfrwt>
<pdfrwt beam="2">  1       -2 0.96361786E-01 0.29513404E+04</pdfrwt>
<totfact> 0.65351898E-01</totfact>
</mgrwt>
</event>
<event>
 6    1  0.1014650E-006  0.1206929E+04  0.7818608E-02  0.9106813E-01
         -1   -1    0    0    0  501 -0.00000000000E+00  0.00000000000E+00  0.46032210448E+03  0.46032210448E+03  0.00000000000E+00 0.  1.
          1   -1    0    0  501    0  0.00000000000E+00 -0.00000000000E+00 -0.79111870948E+03  0.79111870948E+03  0.00000000000E+00 0. -1.
         23    2    1    2    0    0 -0.22958627710E+03 -0.17615709765E+03  0.37863287124E+03  0.48526109389E+03  0.91511181728E+02 0.  0.
         11    1    3    3    0    0 -0.16381821889E+03 -0.71360053517E+02  0.24372180410E+03  0.30220685610E+03  0.00000000000E+00 0. -1.
        -11    1    3    3    0    0 -0.65768058212E+02 -0.10479704413E+03  0.13491106713E+03  0.18305423780E+03  0.00000000000E+00 0.  1.
         22    1    1    2    0    0  0.22958627710E+03  0.17615709765E+03 -0.70942947623E+03  0.76617972006E+03  0.00000000000E+00 0. -1.
<mgrwt>
<rscale>  0 0.12069290E+04</rscale>
<asrwt>0</asrwt>
<pdfrwt beam="1">  1        1 0.12171057E+00 0.12069290E+04</pdfrwt>
<pdfrwt beam="2">  1       -1 0.70818785E-01 0.12069290E+04</pdfrwt>
<totfact> 0.44868450E+01</totfact>
</mgrwt>
</event>
<event>
 6    1  0.1014650E-006  0.1628497E+04  0.7818608E-02  0.8803230E-01
         -2   -1    0    0    0  501 -0.00000000000E+00  0.00000000000E+00  0.52959673179E+03  0.52959673179E+03  0.00000000000E+00 0.  1.
          2   -1    0    0  501    0  0.00000000000E+00 -0.00000000000E+00 -0.12518965141E+04  0.12518965141E+04  0.00000000000E+00 0. -1.
         23    2    1    2    0    0  0.35049308926E+03 -0.64576247691E+03  0.15248539836E+02  0.74042066932E+03  0.90197934484E+02 0.  0.
         13    1    3    3    0    0  0.24064862877E+03 -0.38274121089E+03  0.42403719023E+02  0.45409324200E+03  0.00000000000E+00 0. -1.
        -13    1    3    3    0    0  0.10984446048E+03 -0.26302126602E+03 -0.27155179187E+02  0.28632742732E+03  0.00000000000E+00 0.  1.
         22    1    1    2    0    0 -0.35049308926E+03  0.64576247691E+03 -0.73754832219E+03  0.10410725766E+04  0.00000000000E+00 0. -1.
<mgrwt>
<rscale>  0 0.16284966E+04</rscale>
<asrwt>0</asrwt>
<pdfrwt beam="1">  1        2 0.19259946E+00 0.16284966E+04</pdfrwt>
<pdfrwt beam="2">  1       -2 0.81476421E-01 0.16284966E+04</pdfrwt>
<totfact> 0.22393678E+01</totfact>
</mgrwt>
</event>
<event>
 6    1  0.1014650E-006  0.2137194E+04  0.7818608E-02  0.8545034E-01
         -1   -1    0    0    0  501 -0.00000000000E+00  0.00000000000E+00  0.76328269429E+03  0.76328269429E+03  0.00000000000E+00 0.  1.
          1   -1    0    0  501    0  0.00000000000E+00 -0.00000000000E+00 -0.14960368302E+04  0.14960368302E+04  0.00000000000E+00 0. -1.
         23    2    1    2    0    0  0.10551615210E+04  0.37412657908E+02 -0.52683622651E+03  0.11836022160E+04  0.92694410234E+02 0.  0.
         11    1    3    3    0    0  0.72177822763E+03  0.11021487231E+02 -0.40472695331E+03  0.82758032226E+03  0.00000000000E+00 0. -1.
        -11    1    3    3    0    0  0.33338329341E+03  0.26391170677E+02 -0.12210927320E+03  0.35602189373E+03  0.00000000000E+00 0.  1.
         22    1    1    2    0    0 -0.10551615210E+04 -0.37412657908E+02 -0.20591790944E+03  0.10757173085E+04  0.00000000000E+00 0.  1.
<mgrwt>
<rscale>  0 0.21371935E+04</rscale>
<asrwt>0</asrwt>
<pdfrwt beam="1">  1        1 0.23015951E+00 0.21371935E+04</pdfrwt>
<pdfrwt beam="2">  1       -1 0.11742811E+00 0.21371935E+04</pdfrwt>
<totfact> 0.39388417E+00</totfact>
</mgrwt>
</event>
<event>
 6    1  0.1014650E-006  0.1830716E+04  0.7818608E-02  0.8690134E-01
         -1   -1    0    0    0  501 -0.00000000000E+00  0.00000000000E+00  0.12689219239E+04  0.12689219239E+04  0.00000000000E+00 0.  1.
          1   -1    0    0  501    0  0.00000000000E+00 -0.00000000000E+00 -0.66030850561E+03  0.66030850561E+03  0.00000000000E+00 0. -1.
         23    2    1    2    0    0 -0.45887936342E+03 -0.25475597157E+03 -0.48231123613E+03  0.71861592570E+03  0.91180288131E+02 0.  0.
         13    1    3    3    0    0 -0.10687459022E+03 -0.10603122027E+03 -0.13987908073E+03  0.20550171516E+03  0.00000000000E+00 0. -1.
        -13    1    3    3    0    0 -0.35200477320E+03 -0.14872475130E+03 -0.34243215540E+03  0.51311421054E+03  0.00000000000E+00 0.  1.
         22    1    1    2    0    0  0.45887936342E+03  0.25475597157E+03  0.10909246544E+04  0.12106145038E+04  0.00000000000E+00 0.  1.
<mgrwt>
<rscale>  0 0.18307156E+04</rscale>
<asrwt>0</asrwt>
<pdfrwt beam="1">  1        1 0.10158592E+00 0.18307156E+04</pdfrwt>
<pdfrwt beam="2">  1       -1 0.19521876E+00 0.18307156E+04</pdfrwt>
<totfact> 0.45477804E+00</totfact>
</mgrwt>
</event>
<event>
 6    1  0.1014650E-006  0.3210779E+04  0.7818608E-02  0.8185976E-01
          1   -1    0    0  501    0  0.00000000000E+00  0.00000000000E+00  0.15641274985E+04  0.15641274985E+04  0.00000000000E+00 0. -1.
         -1   -1    0    0    0  501 -0.00000000000E+00 -0.00000000000E+00 -0.16477400770E+04  0.16477400770E+04  0.00000000000E+00 0.  1.
         23    2    1    2    0    0  0.11599915524E+02 -0.75827742782E+03  0.13721949033E+04  0.15703759857E+04  0.89680924989E+02 0.  0.
         13    1    3    3    0    0 -0.24884005885E+02 -0.57783201365E+03  0.10023150051E+04  0.11572140766E+04  0.00000000000E+00 0.  1.
        -13    1    3    3    0    0  0.36483921408E+02 -0.18044541418E+03  0.36987989817E+03  0.41316190905E+03  0.00000000000E+00 0. -1.
         22    1    1    2    0    0 -0.11599915524E+02  0.75827742782E+03 -0.14558074817E+04  0.16414915898E+04  0.00000000000E+00 0.  1.
<mgrwt>
<rscale>  0 0.32107791E+04</rscale>
<asrwt>0</asrwt>
<pdfrwt beam="1">  1        1 0.24063500E+00 0.32107791E+04</pdfrwt>
<pdfrwt beam="2">  1       -1 0.25349847E+00 0.32107791E+04</pdfrwt>
<totfact> 0.32657848E-01</totfact>
</mgrwt>
</event>
<event>
 6    1  0.1014650E-006  0.8429291E+03  0.7818608E-02  0.9499877E-01
          1   -1    0    0  501    0  0.00000000000E+00  0.00000000000E+00  0.25699800009E+04  0.25699800009E+04  0.00000000000E+00 0. -1.
         -1   -1    0    0    0  501 -0.00000000000E+00 -0.00000000000E+00 -0.69118183958E+02  0.69118183958E+02  0.00000000000E+00 0.  1.
         23    2    1    2    0    0  0.16658176118E+03  0.11368977149E+03  0.24061533857E+04  0.24162876504E+04  0.90537543019E+02 0.  0.
         13    1    3    3    0    0  0.12422775694E+03  0.11183518242E+03  0.21644351585E+04  0.21708798214E+04  0.00000000000E+00 0.  1.
        -13    1    3    3    0    0  0.42354004247E+02  0.18545890699E+01  0.24171822720E+03  0.24540782901E+03  0.00000000000E+00 0. -1.
         22    1    1    2    0    0 -0.16658176118E+03 -0.11368977149E+03  0.94708431188E+02  0.22281053440E+03  0.00000000000E+00 0.  1.
<mgrwt>
<rscale>  0 0.84292906E+03</rscale>
<asrwt>0</asrwt>
<pdfrwt beam="1">  1        1 0.39538147E+00 0.84292906E+03</pdfrwt>
<pdfrwt beam="2">  1       -1 0.10633569E-01 0.84292906E+03</pdfrwt>
<totfact> 0.71674297E+01</totfact>
</mgrwt>
</event>
<event>
 6    1  0.1014650E-006  0.1005089E+04  0.7818608E-02  0.9302981E-01
         -2   -1    0    0    0  501 -0.00000000000E+00  0.00000000000E+00  0.86547470636E+02  0.86547470636E+02  0.00000000000E+00 0.  1.
          2   -1    0    0  501    0  0.00000000000E+00 -0.00000000000E+00 -0.29180641067E+04  0.29180641067E+04  0.00000000000E+00 0. -1.
         23    2    1    2    0    0 -0.32993574281E+03 -0.31283133422E+03 -0.81313244832E+03  0.93565150827E+03  0.86823547281E+02 0.  0.
         11    1    3    3    0    0 -0.16607330659E+03 -0.10716599869E+03 -0.39530154512E+03  0.44195950721E+03  0.00000000000E+00 0. -1.
        -11    1    3    3    0    0 -0.16386243622E+03 -0.20566533553E+03 -0.41783090320E+03  0.49369200106E+03  0.00000000000E+00 0.  1.
         22    1    1    2    0    0  0.32993574281E+03  0.31283133422E+03 -0.20183841878E+04  0.20689600691E+04  0.00000000000E+00 0. -1.
<mgrwt>
<rscale>  0 0.10050892E+04</rscale>
<asrwt>0</asrwt>
<pdfrwt beam="1">  1        2 0.44893295E+00 0.10050892E+04</pdfrwt>
<pdfrwt beam="2">  1       -2 0.13314995E-01 0.10050892E+04</pdfrwt>
<totfact> 0.85729836E+01</totfact>
</mgrwt>
</event>
<event>
 6    1  0.1014650E-006  0.1960068E+04  0.7818608E-02  0.8625521E-01
          1   -1    0    0  501    0  0.00000000000E+00  0.00000000000E+00  0.31884851671E+04  0.31884851671E+04  0.00000000000E+00 0. -1.
         -1   -1    0    0    0  501 -0.00000000000E+00 -0.00000000000E+00 -0.30122975171E+03  0.30122975171E+03  0.00000000000E+00 0.  1.
         23    2    1    2    0    0 -0.73653059453E+03  0.38927448514E+03  0.23585640742E+04  0.25030404660E+04  0.91515797757E+02 0.  0.
         11    1    3    3    0    0 -0.29836144737E+03  0.11025632047E+03  0.93966416298E+03  0.99204069910E+03  0.00000000000E+00 0.  1.
        -11    1    3    3    0    0 -0.43816914716E+03  0.27901816467E+03  0.14188999112E+04  0.15109997669E+04  0.00000000000E+00 0. -1.
         22    1    1    2    0    0  0.73653059453E+03 -0.38927448514E+03  0.52869134122E+03  0.98667445277E+03  0.00000000000E+00 0.  1.
<mgrwt>
<rscale>  0 0.19600680E+04</rscale>
<asrwt>0</asrwt>
<pdfrwt beam="1">  1        1 0.49053616E+00 0.19600680E+04</pdfrwt>
<pdfrwt beam="2">  1       -1 0.46343041E-01 0.19600680E+04</pdfrwt>
<totfact> 0.18762416E+00</totfact>
</mgrwt>
</event>
<event>
 6    1  0.1014650E-006  0.9219320E+03  0.7818608E-02  0.9398573E-01
          2   -1    0    0  501    0  0.00000000000E+00  0.00000000000E+00  0.50803112213E+03  0.50803112213E+03  0.00000000000E+00 0. -1.
         -2   -1    0    0    0  501 -0.00000000000E+00 -0.00000000000E+00 -0.41826105975E+03  0.41826105975E+03  0.00000000000E+00 0.  1.
         23    2    1    2    0    0 -0.10334117142E+03 -0.31924072135E+03  0.35598562832E+03  0.49796431281E+03  0.92998136461E+02 0.  0.
         13    1    3    3    0    0 -0.37861318771E+02 -0.92143757591E+02  0.17071323750E+03  0.19765363892E+03  0.00000000000E+00 0. -1.
        -13    1    3    3    0    0 -0.65479852647E+02 -0.22709696376E+03  0.18527239082E+03  0.30031067389E+03  0.00000000000E+00 0.  1.
         22    1    1    2    0    0  0.10334117142E+03  0.31924072135E+03 -0.26621556594E+03  0.42832786907E+03  0.00000000000E+00 0.  1.
<mgrwt>
<rscale>  0 0.92193196E+03</rscale>
<asrwt>0</asrwt>
<pdfrwt beam="1">  1        2 0.78158634E-01 0.92193196E+03</pdfrwt>
<pdfrwt beam="2">  1       -2 0.64347856E-01 0.92193196E+03</pdfrwt>
<totfact> 0.13525837E+02</totfact>
</mgrwt>
</event>
<event>
 6    1  0.1014650E-006  0.4157449E+04  0.7818608E-02  0.7973516E-01
         -2   -1    0    0    0  501 -0.00000000000E+00  0.00000000000E+00  0.16691841709E+04  0.16691841709E+04  0.00000000000E+00 0.  1.
          2   -1    0    0  501    0  0.00000000000E+00 -0.00000000000E+00 -0.25887474835E+04  0.25887474835E+04  0.00000000000E+00 0. -1.
         23    2    1    2    0    0 -0.16444317271E+04 -0.12588824668E+04 -0.63028830910E+03  0.21668504035E+04  0.95060762045E+02 0.  0.
         13    1    3    3    0    0 -0.88109268226E+03 -0.65792294172E+03 -0.28696719336E+03  0.11364581303E+04  0.00000000000E+00 0.  1.
        -13    1    3    3    0    0 -0.76333904479E+03 -0.60095952508E+03 -0.34332111574E+03  0.10303922732E+04  0.00000000000E+00 0. -1.
         22    1    1    2    0    0  0.16444317271E+04  0.12588824668E+04 -0.28927500349E+03  0.20910812509E+04  0.00000000000E+00 0. -1.
<mgrwt>
<rscale>  0 0.41574494E+04</rscale>
<asrwt>0</asrwt>
<pdfrwt beam="1">  1        2 0.39826884E+00 0.41574494E+04</pdfrwt>
<pdfrwt beam="2">  1       -2 0.25679757E+00 0.41574494E+04</pdfrwt>
<totfact> 0.14048203E-01</totfact>
</mgrwt>
</event>
<event>
 6    1  0.1014650E-006  0.2402054E+04  0.7818608E-02  0.8438735E-01
         -1   -1    0    0    0  501 -0.00000000000E+00  0.00000000000E+00  0.20902603226E+04  0.20902603226E+04  0.00000000000E+00 0.  1.
          1   -1    0    0  501    0  0.00000000000E+00 -0.00000000000E+00 -0.69008923723E+03  0.69008923723E+03  0.00000000000E+00 0. -1.
         23    2    1    2    0    0  0.53435559206E+03 -0.49614845344E+03 -0.40107155523E+03  0.83711147948E+03  0.90543083853E+02 0.  0.
         11    1    3    3    0    0  0.11875197820E+03 -0.12753587479E+03 -0.13884083413E+03  0.22280980433E+03  0.00000000000E+00 0.  1.
        -11    1    3    3    0    0  0.41560361386E+03 -0.36861257865E+03 -0.26223072111E+03  0.61430167514E+03  0.00000000000E+00 0. -1.
         22    1    1    2    0    0 -0.53435559206E+03  0.49614845344E+03  0.18012426406E+04  0.19432380804E+04  0.00000000000E+00 0.  1.
<mgrwt>
<rscale>  0 0.24020542E+04</rscale>
<asrwt>0</asrwt>
<pdfrwt beam="1">  1        1 0.10616758E+00 0.24020542E+04</pdfrwt>
<pdfrwt beam="2">  1       -1 0.32157851E+00 0.24020542E+04</pdfrwt>
<totfact> 0.59638573E-01</totfact>
</mgrwt>
</event>
<event>
 6    1  0.1014650E-006  0.1007607E+04  0.7818608E-02  0.9300241E-01
         -2   -1    0    0    0  501 -0.00000000000E+00  0.00000000000E+00  0.45360993996E+03  0.45360993996E+03  0.00000000000E+00 0.  1.
          2   -1    0    0  501    0  0.00000000000E+00 -0.00000000000E+00 -0.55955101171E+03  0.55955101171E+03  0.00000000000E+00 0. -1.
         23    2    1    2    0    0 -0.21147037205E+03  0.38735651509E+03 -0.28952542947E+03  0.53517768373E+03  0.88461239029E+02 0.  0.
         13    1    3    3    0    0 -0.18456919603E+03  0.25789573972E+03 -0.21809061420E+03  0.38488896670E+03  0.00000000000E+00 0.  1.
        -13    1    3    3    0    0 -0.26901176018E+02  0.12946077537E+03 -0.71434815269E+02  0.15028871702E+03  0.00000000000E+00 0. -1.
         22    1    1    2    0    0  0.21147037205E+03 -0.38735651509E+03  0.18358435772E+03  0.47798326795E+03  0.00000000000E+00 0.  1.
<mgrwt>
<rscale>  0 0.10076069E+04</rscale>
<asrwt>0</asrwt>
<pdfrwt beam="1">  1        2 0.86084771E-01 0.10076069E+04</pdfrwt>
<pdfrwt beam="2">  1       -2 0.69786144E-01 0.10076069E+04</pdfrwt>
<totfact> 0.10080986E+02</totfact>
</mgrwt>
</event>
<event>
 6    1  0.1014650E-006  0.4769984E+04  0.7818608E-02  0.7865003E-01
          1   -1    0    0  501    0  0.00000000000E+00  0.00000000000E+00  0.31654118766E+04  0.31654118766E+04  0.00000000000E+00 0. -1.
         -1   -1    0    0    0  501 -0.00000000000E+00 -0.00000000000E+00 -0.17969817937E+04  0.17969817937E+04  0.00000000000E+00 0.  1.
         23    2    1    2    0    0 -0.73919582613E+03 -0.13448019159E+04  0.25826647897E+04  0.30055419677E+04  0.90677677480E+02 0.  0.
         11    1    3    3    0    0 -0.96903654144E+02 -0.12353786089E+03  0.24430147063E+03  0.29040511327E+03  0.00000000000E+00 0.  1.
        -11    1    3    3    0    0 -0.64229217199E+03 -0.12212640551E+04  0.23383633191E+04  0.27151368545E+04  0.00000000000E+00 0. -1.
         22    1    1    2    0    0  0.73919582613E+03  0.13448019159E+04 -0.12142347069E+04  0.19568517026E+04  0.00000000000E+00 0.  1.
<mgrwt>
<rscale>  0 0.47699843E+04</rscale>
<asrwt>0</asrwt>
<pdfrwt beam="1">  1        1 0.48698644E+00 0.47699843E+04</pdfrwt>
<pdfrwt beam="2">  1       -1 0.27645874E+00 0.47699843E+04</pdfrwt>
<totfact> 0.15558781E-02</totfact>
</mgrwt>
</event>
<event>
 6    1  0.1014650E-006  0.3786577E+04  0.7818608E-02  0.8049042E-01
         -2   -1    0    0    0  501 -0.00000000000E+00  0.00000000000E+00  0.14242505202E+04  0.14242505202E+04  0.00000000000E+00 0.  1.
          2   -1    0    0  501    0  0.00000000000E+00 -0.00000000000E+00 -0.25167907284E+04  0.25167907284E+04  0.00000000000E+00 0. -1.
         23    2    1    2    0    0 -0.12283507287E+04 -0.11832226459E+04  0.30637278475E+03  0.17351811206E+04  0.90154841557E+02 0.  0.
         11    1    3    3    0    0 -0.46725786193E+03 -0.49140764270E+03  0.15487008239E+03  0.69555454369E+03  0.00000000000E+00 0. -1.
        -11    1    3    3    0    0 -0.76109286681E+03 -0.69181500319E+03  0.15150270236E+03  0.10396265769E+04  0.00000000000E+00 0.  1.
         22    1    1    2    0    0  0.12283507287E+04  0.11832226459E+04 -0.13989129930E+04  0.22058601280E+04  0.00000000000E+00 0. -1.
<mgrwt>
<rscale>  0 0.37865766E+04</rscale>
<asrwt>0</asrwt>
<pdfrwt beam="1">  1        2 0.38719857E+00 0.37865766E+04</pdfrwt>
<pdfrwt beam="2">  1       -2 0.21911547E+00 0.37865766E+04</pdfrwt>
<totfact> 0.27353941E-01</totfact>
</mgrwt>
</event>
<event>
 6    1  0.1935076E-006  0.4172192E+04  0.7818608E-02  0.7970683E-01
         -1   -1    0    0    0  501 -0.00000000000E+00  0.00000000000E+00  0.18931949469E+04  0.18931949469E+04  0.00000000000E+00 0.  1.
          1   -1    0    0  501    0  0.00000000000E+00 -0.00000000000E+00 -0.22986516114E+04  0.22986516114E+04  0.00000000000E+00 0. -1.
         23    2    1    2    0    0  0.93811014055E+03  0.16915981192E+04  0.57946269888E+03  0.20212196937E+04  0.89427053504E+02 0.  0.
         13    1    3    3    0    0  0.60829836315E+03  0.10660337037E+04  0.40964978031E+03  0.12939349669E+04  0.00000000000E+00 0.  1.
        -13    1    3    3    0    0  0.32981177740E+03  0.62556441557E+03  0.16981291856E+03  0.72728472681E+03  0.00000000000E+00 0. -1.
         22    1    1    2    0    0 -0.93811014055E+03 -0.16915981192E+04 -0.98491936340E+03  0.21706268646E+04  0.00000000000E+00 0.  1.
<mgrwt>
<rscale>  0 0.41721916E+04</rscale>
<asrwt>0</asrwt>
<pdfrwt beam="1">  1        1 0.35363871E+00 0.41721916E+04</pdfrwt>
<pdfrwt beam="2">  1       -1 0.29126076E+00 0.41721916E+04</pdfrwt>
<totfact> 0.54160513E-02</totfact>
</mgrwt>
</event>
<event>
 6    1  0.1014650E-006  0.1408871E+04  0.7818608E-02  0.8947422E-01
          1   -1    0    0  501    0  0.00000000000E+00  0.00000000000E+00  0.54234448758E+03  0.54234448758E+03  0.00000000000E+00 0. -1.
         -1   -1    0    0    0  501 -0.00000000000E+00 -0.00000000000E+00 -0.91497130690E+03  0.91497130690E+03  0.00000000000E+00 0.  1.
         23    2    1    2    0    0 -0.27185737005E+03 -0.25285868413E+03  0.42869795029E+03  0.57415933598E+03  0.89627377063E+02 0.  0.
         11    1    3    3    0    0 -0.97320129178E+02 -0.90324371396E+02  0.22140921641E+03  0.25816998417E+03  0.00000000000E+00 0. -1.
        -11    1    3    3    0    0 -0.17453724087E+03 -0.16253431274E+03  0.20728873387E+03  0.31598935181E+03  0.00000000000E+00 0.  1.
         22    1    1    2    0    0  0.27185737005E+03  0.25285868413E+03 -0.80132476961E+03  0.88315645850E+03  0.00000000000E+00 0.  1.
<mgrwt>
<rscale>  0 0.14088714E+04</rscale>
<asrwt>0</asrwt>
<pdfrwt beam="1">  1        1 0.83437614E-01 0.14088714E+04</pdfrwt>
<pdfrwt beam="2">  1       -1 0.14076481E+00 0.14088714E+04</pdfrwt>
<totfact> 0.15933319E+01</totfact>
</mgrwt>
</event>
<event>
 6    1  0.1014650E-006  0.1475824E+04  0.7818608E-02  0.8900691E-01
          1   -1    0    0  501    0  0.00000000000E+00  0.00000000000E+00  0.31834116916E+04  0.31834116916E+04  0.00000000000E+00 0. -1.
         -1   -1    0    0    0  501 -0.00000000000E+00 -0.00000000000E+00 -0.17104732871E+03  0.17104732871E+03  0.00000000000E+00 0.  1.
         23    2    1    2    0    0  0.40173355164E+03 -0.42385208415E+03  0.49718510953E+03  0.77237321378E+03  0.91251917593E+02 0.  0.
         13    1    3    3    0    0  0.18009609531E+03 -0.18306495684E+03  0.27817451232E+03  0.37858742884E+03  0.00000000000E+00 0. -1.
        -13    1    3    3    0    0  0.22163745633E+03 -0.24078712732E+03  0.21901059721E+03  0.39378578494E+03  0.00000000000E+00 0.  1.
         22    1    1    2    0    0 -0.40173355164E+03  0.42385208415E+03  0.25151792534E+04  0.25820858066E+04  0.00000000000E+00 0. -1.
<mgrwt>
<rscale>  0 0.14758239E+04</rscale>
<asrwt>0</asrwt>
<pdfrwt beam="1">  1        1 0.48975560E+00 0.14758239E+04</pdfrwt>
<pdfrwt beam="2">  1       -1 0.26314976E-01 0.14758239E+04</pdfrwt>
<totfact> 0.54827508E+00</totfact>
</mgrwt>
</event>
<event>
 6    1  0.1014650E-006  0.4261086E+04  0.7818608E-02  0.7953853E-01
          2   -1    0    0  501    0  0.00000000000E+00  0.00000000000E+00  0.26064499938E+04  0.26064499938E+04  0.00000000000E+00 0. -1.
         -2   -1    0    0    0  501 -0.00000000000E+00 -0.00000000000E+00 -0.17415307688E+04  0.17415307688E+04  0.00000000000E+00 0.  1.
         23    2    1    2    0    0  0.27517334802E+02 -0.11712008095E+04 -0.13819803417E+04  0.18140063739E+04  0.90999560766E+02 0.  0.
         13    1    3    3    0    0  0.46335530829E+02 -0.66403345052E+03 -0.73289592677E+03  0.99006254565E+03  0.00000000000E+00 0. -1.
        -13    1    3    3    0    0 -0.18818196027E+02 -0.50716735901E+03 -0.64908441489E+03  0.82394382830E+03  0.00000000000E+00 0.  1.
         22    1    1    2    0    0 -0.27517334802E+02  0.11712008095E+04  0.22468995666E+04  0.25339743887E+04  0.00000000000E+00 0. -1.
<mgrwt>
<rscale>  0 0.42610857E+04</rscale>
<asrwt>0</asrwt>
<pdfrwt beam="1">  1        2 0.40099231E+00 0.42610857E+04</pdfrwt>
<pdfrwt beam="2">  1       -2 0.26792781E+00 0.42610857E+04</pdfrwt>
<totfact> 0.11627872E-01</totfact>
</mgrwt>
</event>
<event>
 6    1  0.1014650E-006  0.1818365E+04  0.7818608E-02  0.8696594E-01
          1   -1    0    0  501    0  0.00000000000E+00  0.00000000000E+00  0.16041391758E+04  0.16041391758E+04  0.00000000000E+00 0. -1.
         -1   -1    0    0    0  501 -0.00000000000E+00 -0.00000000000E+00 -0.51530004182E+03  0.51530004182E+03  0.00000000000E+00 0.  1.
         23    2    1    2    0    0  0.66671198387E+03  0.61480129222E+03  0.54553571735E+03  0.10622428778E+04  0.90913223783E+02 0.  0.
         13    1    3    3    0    0  0.17444095860E+03  0.21214136590E+03  0.14396396689E+03  0.31009551903E+03  0.00000000000E+00 0.  1.
        -13    1    3    3    0    0  0.49227102527E+03  0.40265992632E+03  0.40157175046E+03  0.75214735880E+03  0.00000000000E+00 0. -1.
         22    1    1    2    0    0 -0.66671198387E+03 -0.61480129222E+03  0.54330341664E+03  0.10571963398E+04  0.00000000000E+00 0. -1.
<mgrwt>
<rscale>  0 0.18183652E+04</rscale>
<asrwt>0</asrwt>
<pdfrwt beam="1">  1        1 0.24679064E+00 0.18183652E+04</pdfrwt>
<pdfrwt beam="2">  1       -1 0.79276930E-01 0.18183652E+04</pdfrwt>
<totfact> 0.83056899E+00</totfact>
</mgrwt>
</event>
<event>
 6    1  0.1014650E-006  0.1957854E+04  0.7818608E-02  0.8626583E-01
         -2   -1    0    0    0  501 -0.00000000000E+00  0.00000000000E+00  0.20337549873E+04  0.20337549873E+04  0.00000000000E+00 0.  1.
          2   -1    0    0  501    0  0.00000000000E+00 -0.00000000000E+00 -0.47119624908E+03  0.47119624908E+03  0.00000000000E+00 0. -1.
         23    2    1    2    0    0 -0.94410737192E+03 -0.21515249914E+03  0.61791559575E+03  0.11521837049E+04  0.89879245332E+02 0.  0.
         13    1    3    3    0    0 -0.45312799395E+03 -0.12847961899E+03  0.25567794450E+03  0.53591342836E+03  0.00000000000E+00 0. -1.
        -13    1    3    3    0    0 -0.49097937797E+03 -0.86672880143E+02  0.36223765125E+03  0.61627027653E+03  0.00000000000E+00 0.  1.
         22    1    1    2    0    0  0.94410737192E+03  0.21515249914E+03  0.94464314242E+03  0.13527675314E+04  0.00000000000E+00 0.  1.
<mgrwt>
<rscale>  0 0.19578536E+04</rscale>
<asrwt>0</asrwt>
<pdfrwt beam="1">  1        2 0.72491732E-01 0.19578536E+04</pdfrwt>
<pdfrwt beam="2">  1       -2 0.31288538E+00 0.19578536E+04</pdfrwt>
<totfact> 0.16314787E+00</totfact>
</mgrwt>
</event>
<event>
 6    1  0.1014650E-006  0.1193407E+04  0.7818608E-02  0.9118647E-01
          2   -1    0    0  501    0  0.00000000000E+00  0.00000000000E+00  0.41855500217E+03  0.41855500217E+03  0.00000000000E+00 0. -1.
         -2   -1    0    0    0  501 -0.00000000000E+00 -0.00000000000E+00 -0.85067741060E+03  0.85067741060E+03  0.00000000000E+00 0.  1.
         23    2    1    2    0    0  0.94399481579E+02  0.56554284263E+03 -0.37932312770E+03  0.69343927888E+03  0.90675406321E+02 0.  0.
         13    1    3    3    0    0 -0.13766673735E+02  0.14544757966E+03 -0.82092830522E+02  0.16758207708E+03  0.00000000000E+00 0. -1.
        -13    1    3    3    0    0  0.10816615531E+03  0.42009526297E+03 -0.29723029718E+03  0.52585720181E+03  0.00000000000E+00 0.  1.
         22    1    1    2    0    0 -0.94399481579E+02 -0.56554284263E+03 -0.52799280727E+02  0.57579313388E+03  0.00000000000E+00 0. -1.
<mgrwt>
<rscale>  0 0.11934074E+04</rscale>
<asrwt>0</asrwt>
<pdfrwt beam="1">  1        2 0.64393078E-01 0.11934074E+04</pdfrwt>
<pdfrwt beam="2">  1       -2 0.13087345E+00 0.11934074E+04</pdfrwt>
<totfact> 0.31818675E+01</totfact>
</mgrwt>
</event>
<event>
 6    1  0.1014650E-006  0.2108681E+04  0.7818608E-02  0.8557429E-01
          1   -1    0    0  501    0  0.00000000000E+00  0.00000000000E+00  0.16502639045E+04  0.16502639045E+04  0.00000000000E+00 0. -1.
         -1   -1    0    0    0  501 -0.00000000000E+00 -0.00000000000E+00 -0.67360949313E+03  0.67360949313E+03  0.00000000000E+00 0.  1.
         23    2    1    2    0    0  0.53939173964E+03  0.63421672588E+03 -0.22013683736E+03  0.86596956089E+03  0.90932662086E+02 0.  0.
         13    1    3    3    0    0  0.75207974119E+02  0.95958469666E+02 -0.85654646230E-01  0.12191913143E+03  0.00000000000E+00 0. -1.
        -13    1    3    3    0    0  0.46418376552E+03  0.53825825622E+03 -0.22005118271E+03  0.74405042946E+03  0.00000000000E+00 0.  1.
         22    1    1    2    0    0 -0.53939173964E+03 -0.63421672588E+03  0.11967912488E+04  0.14579038368E+04  0.00000000000E+00 0.  1.
<mgrwt>
<rscale>  0 0.21086806E+04</rscale>
<asrwt>0</asrwt>
<pdfrwt beam="1">  1        1 0.25388675E+00 0.21086806E+04</pdfrwt>
<pdfrwt beam="2">  1       -1 0.10363223E+00 0.21086806E+04</pdfrwt>
<totfact> 0.41572321E+00</totfact>
</mgrwt>
</event>
<event>
 6    1  0.1014650E-006  0.2378682E+04  0.7818608E-02  0.8447528E-01
          2   -1    0    0  501    0  0.00000000000E+00  0.00000000000E+00  0.23942917814E+04  0.23942917814E+04  0.00000000000E+00 0. -1.
         -2   -1    0    0    0  501 -0.00000000000E+00 -0.00000000000E+00 -0.59079357267E+03  0.59079357267E+03  0.00000000000E+00 0.  1.
         23    2    1    2    0    0  0.75087649166E+03  0.46382406058E+03 -0.94211455899E+02  0.89218061755E+03  0.90344844956E+02 0.  0.
         11    1    3    3    0    0  0.14173223013E+03  0.12115870006E+03 -0.43274505694E+02  0.19141613960E+03  0.00000000000E+00 0. -1.
        -11    1    3    3    0    0  0.60914426153E+03  0.34266536052E+03 -0.50936950204E+02  0.70076447795E+03  0.00000000000E+00 0.  1.
         22    1    1    2    0    0 -0.75087649166E+03 -0.46382406058E+03  0.18977096647E+04  0.20929047365E+04  0.00000000000E+00 0. -1.
<mgrwt>
<rscale>  0 0.23786822E+04</rscale>
<asrwt>0</asrwt>
<pdfrwt beam="1">  1        2 0.36835258E+00 0.23786822E+04</pdfrwt>
<pdfrwt beam="2">  1       -2 0.90891320E-01 0.23786822E+04</pdfrwt>
<totfact> 0.37267977E+00</totfact>
</mgrwt>
</event>
<event>
 6    1  0.1014650E-006  0.4203956E+04  0.7818608E-02  0.7964620E-01
          1   -1    0    0  501    0  0.00000000000E+00  0.00000000000E+00  0.16196938243E+04  0.16196938243E+04  0.00000000000E+00 0. -1.
         -1   -1    0    0    0  501 -0.00000000000E+00 -0.00000000000E+00 -0.27278683096E+04  0.27278683096E+04  0.00000000000E+00 0.  1.
         23    2    1    2    0    0 -0.14712239695E+04  0.17847742849E+03  0.98652989427E+03  0.17816041064E+04  0.67214572812E+02 0.  0.
         11    1    3    3    0    0 -0.13607066383E+04  0.18280033476E+03  0.91355810703E+03  0.16490988245E+04  0.00000000000E+00 0.  1.
        -11    1    3    3    0    0 -0.11051733120E+03 -0.43229062725E+01  0.72971787238E+02  0.13250528196E+03  0.00000000000E+00 0. -1.
         22    1    1    2    0    0  0.14712239695E+04 -0.17847742849E+03 -0.20947043796E+04  0.25659580275E+04  0.00000000000E+00 0.  1.
<mgrwt>
<rscale>  0 0.42039560E+04</rscale>
<asrwt>0</asrwt>
<pdfrwt beam="1">  1        1 0.24918367E+00 0.42039560E+04</pdfrwt>
<pdfrwt beam="2">  1       -1 0.41967204E+00 0.42039560E+04</pdfrwt>
<totfact> 0.21813279E-02</totfact>
</mgrwt>
</event>
<event>
 6    1  0.1014650E-006  0.5222681E+04  0.7818608E-02  0.7795045E-01
          1   -1    0    0  501    0  0.00000000000E+00  0.00000000000E+00  0.24138752075E+04  0.24138752075E+04  0.00000000000E+00 0. -1.
         -1   -1    0    0    0  501 -0.00000000000E+00 -0.00000000000E+00 -0.28249596141E+04  0.28249596141E+04  0.00000000000E+00 0.  1.
         23    2    1    2    0    0  0.10464645455E+04 -0.15897445376E+04  0.15859203957E+04  0.24801387673E+04  0.11648632294E+03 0.  0.
         13    1    3    3    0    0  0.57876357184E+03 -0.98307112172E+03  0.94743660535E+03  0.14829134242E+04  0.00000000000E+00 0.  1.
        -13    1    3    3    0    0  0.46770097368E+03 -0.60667341591E+03  0.63848379034E+03  0.99722534308E+03  0.00000000000E+00 0. -1.
         22    1    1    2    0    0 -0.10464645455E+04  0.15897445376E+04 -0.19970048023E+04  0.27586960544E+04  0.00000000000E+00 0.  1.
<mgrwt>
<rscale>  0 0.52226813E+04</rscale>
<asrwt>0</asrwt>
<pdfrwt beam="1">  1        1 0.37136542E+00 0.52226813E+04</pdfrwt>
<pdfrwt beam="2">  1       -1 0.43460917E+00 0.52226813E+04</pdfrwt>
<totfact> 0.45651841E-03</totfact>
</mgrwt>
</event>
<event>
 6    1  0.1014650E-006  0.2836162E+04  0.7818608E-02  0.8292129E-01
         -2   -1    0    0    0  501 -0.00000000000E+00  0.00000000000E+00  0.10886828242E+04  0.10886828242E+04  0.00000000000E+00 0.  1.
          2   -1    0    0  501    0  0.00000000000E+00 -0.00000000000E+00 -0.18471433211E+04  0.18471433211E+04  0.00000000000E+00 0. -1.
         23    2    1    2    0    0 -0.69829542655E+03  0.84173687309E+03 -0.13116963135E+04  0.17101804644E+04  0.89624414818E+02 0.  0.
         11    1    3    3    0    0 -0.28773009963E+03  0.41674369323E+03 -0.60838866251E+03  0.79158112708E+03  0.00000000000E+00 0. -1.
        -11    1    3    3    0    0 -0.41056532691E+03  0.42499317986E+03 -0.70330765099E+03  0.91859933732E+03  0.00000000000E+00 0.  1.
         22    1    1    2    0    0  0.69829542655E+03 -0.84173687309E+03  0.55323581658E+03  0.12256456809E+04  0.00000000000E+00 0.  1.
<mgrwt>
<rscale>  0 0.28361616E+04</rscale>
<asrwt>0</asrwt>
<pdfrwt beam="1">  1        2 0.28417589E+00 0.28361616E+04</pdfrwt>
<pdfrwt beam="2">  1       -2 0.16748967E+00 0.28361616E+04</pdfrwt>
<totfact> 0.15658788E+00</totfact>
</mgrwt>
</event>
<event>
 6    1  0.1014650E-006  0.1579704E+04  0.7818608E-02  0.8833114E-01
         -1   -1    0    0    0  501 -0.00000000000E+00  0.00000000000E+00  0.44261748760E+03  0.44261748760E+03  0.00000000000E+00 0.  1.
          1   -1    0    0  501    0  0.00000000000E+00 -0.00000000000E+00 -0.14094936297E+04  0.14094936297E+04  0.00000000000E+00 0. -1.
         23    2    1    2    0    0 -0.21117558543E+03 -0.68932029793E+03 -0.85576975903E+03  0.11226577402E+04  0.90889603797E+02 0.  0.
         11    1    3    3    0    0 -0.68847080864E+01 -0.96598336679E+02 -0.82908812966E+02  0.12748532905E+03  0.00000000000E+00 0. -1.
        -11    1    3    3    0    0 -0.20429087734E+03 -0.59272196125E+03 -0.77286094607E+03  0.99517241112E+03  0.00000000000E+00 0.  1.
         22    1    1    2    0    0  0.21117558543E+03  0.68932029793E+03 -0.11110638305E+03  0.72945337710E+03  0.00000000000E+00 0. -1.
<mgrwt>
<rscale>  0 0.15797044E+04</rscale>
<asrwt>0</asrwt>
<pdfrwt beam="1">  1        1 0.21684517E+00 0.15797044E+04</pdfrwt>
<pdfrwt beam="2">  1       -1 0.68094999E-01 0.15797044E+04</pdfrwt>
<totfact> 0.15875694E+01</totfact>
</mgrwt>
</event>
<event>
 6    1  0.1014650E-006  0.1745938E+04  0.7818608E-02  0.8735590E-01
          1   -1    0    0  501    0  0.00000000000E+00  0.00000000000E+00  0.47897088089E+03  0.47897088089E+03  0.00000000000E+00 0. -1.
         -1   -1    0    0    0  501 -0.00000000000E+00 -0.00000000000E+00 -0.15910664929E+04  0.15910664929E+04  0.00000000000E+00 0.  1.
         23    2    1    2    0    0 -0.49137749321E+03 -0.68769766464E+03 -0.31020675682E+03  0.90495984207E+03  0.91346401159E+02 0.  0.
         11    1    3    3    0    0 -0.20234774875E+03 -0.33212606966E+03 -0.18032955531E+03  0.42868529960E+03  0.00000000000E+00 0. -1.
        -11    1    3    3    0    0 -0.28902974446E+03 -0.35557159498E+03 -0.12987720150E+03  0.47627454248E+03  0.00000000000E+00 0.  1.
         22    1    1    2    0    0  0.49137749321E+03  0.68769766464E+03 -0.80188885516E+03  0.11650775317E+04  0.00000000000E+00 0.  1.
<mgrwt>
<rscale>  0 0.17459376E+04</rscale>
<asrwt>0</asrwt>
<pdfrwt beam="1">  1        1 0.73687830E-01 0.17459376E+04</pdfrwt>
<pdfrwt beam="2">  1       -1 0.24477945E+00 0.17459376E+04</pdfrwt>
<totfact> 0.33625841E+00</totfact>
</mgrwt>
</event>
<event>
 6    1  0.1014650E-006  0.1525447E+04  0.7818608E-02  0.8867705E-01
         -2   -1    0    0    0  501 -0.00000000000E+00  0.00000000000E+00  0.33994271404E+03  0.33994271404E+03  0.00000000000E+00 0.  1.
          2   -1    0    0  501    0  0.00000000000E+00 -0.00000000000E+00 -0.17113096940E+04  0.17113096940E+04  0.00000000000E+00 0. -1.
         23    2    1    2    0    0 -0.43964242221E+03  0.13651248327E+03 -0.15012680174E+04  0.15729267899E+04  0.91498135133E+02 0.  0.
         13    1    3    3    0    0 -0.27739125853E+03  0.44184357309E+02 -0.83360774565E+03  0.87965904835E+03  0.00000000000E+00 0.  1.
        -13    1    3    3    0    0 -0.16225116368E+03  0.92328125960E+02 -0.66766027173E+03  0.69326774150E+03  0.00000000000E+00 0. -1.
         22    1    1    2    0    0  0.43964242221E+03 -0.13651248327E+03  0.12990103742E+03  0.47832561819E+03  0.00000000000E+00 0.  1.
<mgrwt>
<rscale>  0 0.15254472E+04</rscale>
<asrwt>0</asrwt>
<pdfrwt beam="1">  1        2 0.26327841E+00 0.15254472E+04</pdfrwt>
<pdfrwt beam="2">  1       -2 0.52298880E-01 0.15254472E+04</pdfrwt>
<totfact> 0.32161523E+01</totfact>
</mgrwt>
</event>
<event>
 6    1  0.1014650E-006  0.9443628E+03  0.7818608E-02  0.9371764E-01
         -2   -1    0    0    0  501 -0.00000000000E+00  0.00000000000E+00  0.16544032277E+03  0.16544032277E+03  0.00000000000E+00 0.  1.
          2   -1    0    0  501    0  0.00000000000E+00 -0.00000000000E+00 -0.13476476239E+04  0.13476476239E+04  0.00000000000E+00 0. -1.
         23    2    1    2    0    0 -0.39097525053E+03  0.42802699544E+02 -0.10019409533E+04  0.10804337270E+04  0.93582300711E+02 0.  0.
         11    1    3    3    0    0 -0.13723396740E+03 -0.23458460771E+02 -0.41022321667E+03  0.43320497306E+03  0.00000000000E+00 0. -1.
        -11    1    3    3    0    0 -0.25374128313E+03  0.66261160315E+02 -0.59171773659E+03  0.64722875394E+03  0.00000000000E+00 0.  1.
         22    1    1    2    0    0  0.39097525053E+03 -0.42802699544E+02 -0.18026634785E+03  0.43265421965E+03  0.00000000000E+00 0.  1.
<mgrwt>
<rscale>  0 0.94436276E+03</rscale>
<asrwt>0</asrwt>
<pdfrwt beam="1">  1        2 0.20733041E+00 0.94436276E+03</pdfrwt>
<pdfrwt beam="2">  1       -2 0.25452357E-01 0.94436276E+03</pdfrwt>
<totfact> 0.21529969E+02</totfact>
</mgrwt>
</event>
<event>
 6    1  0.1014650E-006  0.7940741E+03  0.7818608E-02  0.9568634E-01
         -2   -1    0    0    0  501 -0.00000000000E+00  0.00000000000E+00  0.92441735687E+02  0.92441735687E+02  0.00000000000E+00 0.  1.
          2   -1    0    0  501    0  0.00000000000E+00 -0.00000000000E+00 -0.17052732603E+04  0.17052732603E+04  0.00000000000E+00 0. -1.
         23    2    1    2    0    0  0.37445384211E+03 -0.11549559594E+03 -0.83312956435E+03  0.92508101808E+03  0.90083885737E+02 0.  0.
         13    1    3    3    0    0  0.24241477005E+03 -0.66090067921E+02 -0.43022097229E+03  0.49821973346E+03  0.00000000000E+00 0. -1.
        -13    1    3    3    0    0  0.13203907206E+03 -0.49405528016E+02 -0.40290859206E+03  0.42686128462E+03  0.00000000000E+00 0.  1.
         22    1    1    2    0    0 -0.37445384211E+03  0.11549559594E+03 -0.77970196027E+03  0.87263397791E+03  0.00000000000E+00 0.  1.
<mgrwt>
<rscale>  0 0.79407410E+03</rscale>
<asrwt>0</asrwt>
<pdfrwt beam="1">  1        2 0.26234971E+00 0.79407410E+03</pdfrwt>
<pdfrwt beam="2">  1       -2 0.14221806E-01 0.79407410E+03</pdfrwt>
<totfact> 0.37853301E+02</totfact>
</mgrwt>
</event>
<event>
 6    1  0.1014650E-006  0.2413815E+04  0.7818608E-02  0.8434349E-01
          1   -1    0    0  501    0  0.00000000000E+00  0.00000000000E+00  0.15789121299E+04  0.15789121299E+04  0.00000000000E+00 0. -1.
         -1   -1    0    0    0  501 -0.00000000000E+00 -0.00000000000E+00 -0.92255048348E+03  0.92255048348E+03  0.00000000000E+00 0.  1.
         23    2    1    2    0    0 -0.34908649098E+03  0.64174995844E+03  0.13219310631E+04  0.15131878359E+04  0.92365058003E+02 0.  0.
         11    1    3    3    0    0 -0.11018180062E+03  0.24690199902E+03  0.57108759245E+03  0.63185573081E+03  0.00000000000E+00 0. -1.
        -11    1    3    3    0    0 -0.23890469036E+03  0.39484795942E+03  0.75084347065E+03  0.88133210514E+03  0.00000000000E+00 0.  1.
         22    1    1    2    0    0  0.34908649098E+03 -0.64174995844E+03 -0.66556941666E+03  0.98827477745E+03  0.00000000000E+00 0.  1.
<mgrwt>
<rscale>  0 0.24138154E+04</rscale>
<asrwt>0</asrwt>
<pdfrwt beam="1">  1        1 0.24290956E+00 0.24138154E+04</pdfrwt>
<pdfrwt beam="2">  1       -1 0.14193084E+00 0.24138154E+04</pdfrwt>
<totfact> 0.20881152E+00</totfact>
</mgrwt>
</event>
<event>
 6    1  0.1014650E-006  0.2395597E+04  0.7818608E-02  0.8441154E-01
          3   -1    0    0  501    0  0.00000000000E+00  0.00000000000E+00  0.91421786172E+03  0.91421786172E+03  0.00000000000E+00 0. -1.
         -3   -1    0    0    0  501 -0.00000000000E+00 -0.00000000000E+00 -0.15693431580E+04  0.15693431580E+04  0.00000000000E+00 0.  1.
         23    2    1    2    0    0 -0.96947568965E+02  0.85063467785E+03 -0.11939883541E+04  0.14719526066E+04  0.89766921396E+02 0.  0.
         13    1    3    3    0    0 -0.80525250626E+02  0.33404545483E+03 -0.49804911709E+03  0.60508148618E+03  0.00000000000E+00 0. -1.
        -13    1    3    3    0    0 -0.16422318339E+02  0.51658922302E+03 -0.69593923699E+03  0.86687112044E+03  0.00000000000E+00 0.  1.
         22    1    1    2    0    0  0.96947568965E+02 -0.85063467785E+03  0.53886305782E+03  0.10116084131E+04  0.00000000000E+00 0. -1.
<mgrwt>
<rscale>  0 0.23955973E+04</rscale>
<asrwt>0</asrwt>
<pdfrwt beam="1">  1        3 0.14064890E+00 0.23955973E+04</pdfrwt>
<pdfrwt beam="2">  1       -3 0.24143740E+00 0.23955973E+04</pdfrwt>
<totfact> 0.73402029E-02</totfact>
</mgrwt>
</event>
<event>
 6    1  0.1014650E-006  0.3862473E+04  0.7818608E-02  0.8032880E-01
         -1   -1    0    0    0  501 -0.00000000000E+00  0.00000000000E+00  0.10296524776E+04  0.10296524776E+04  0.00000000000E+00 0.  1.
          1   -1    0    0  501    0  0.00000000000E+00 -0.00000000000E+00 -0.36222657914E+04  0.36222657914E+04  0.00000000000E+00 0. -1.
         23    2    1    2    0    0 -0.18779210659E+04 -0.15505877536E+03 -0.18007576877E+04  0.26079842959E+04  0.90681224748E+02 0.  0.
         13    1    3    3    0    0 -0.11085965447E+04 -0.89182362762E+02 -0.11240532105E+04  0.15812765136E+04  0.00000000000E+00 0. -1.
        -13    1    3    3    0    0 -0.76932452124E+03 -0.65876412595E+02 -0.67670447720E+03  0.10267077823E+04  0.00000000000E+00 0.  1.
         22    1    1    2    0    0  0.18779210659E+04  0.15505877536E+03 -0.79185562618E+03  0.20439339731E+04  0.00000000000E+00 0.  1.
<mgrwt>
<rscale>  0 0.38624733E+04</rscale>
<asrwt>0</asrwt>
<pdfrwt beam="1">  1        1 0.55727167E+00 0.38624733E+04</pdfrwt>
<pdfrwt beam="2">  1       -1 0.15840807E+00 0.38624733E+04</pdfrwt>
<totfact> 0.47384666E-02</totfact>
</mgrwt>
</event>
<event>
 6    1  0.1014650E-006  0.1701962E+04  0.7818608E-02  0.8760246E-01
         -2   -1    0    0    0  501 -0.00000000000E+00  0.00000000000E+00  0.36498937774E+03  0.36498937774E+03  0.00000000000E+00 0.  1.
          2   -1    0    0  501    0  0.00000000000E+00 -0.00000000000E+00 -0.19840812045E+04  0.19840812045E+04  0.00000000000E+00 0. -1.
         23    2    1    2    0    0  0.47209890685E+03  0.50996571721E+03 -0.13976575449E+03  0.71464467733E+03  0.90775206564E+02 0.  0.
         11    1    3    3    0    0  0.20400988187E+03  0.15629584383E+03 -0.55379318947E+02  0.26289787307E+03  0.00000000000E+00 0. -1.
        -11    1    3    3    0    0  0.26808902498E+03  0.35366987338E+03 -0.84386435544E+02  0.45174680425E+03  0.00000000000E+00 0.  1.
         22    1    1    2    0    0 -0.47209890685E+03 -0.50996571721E+03 -0.14793260723E+04  0.16344259049E+04  0.00000000000E+00 0. -1.
<mgrwt>
<rscale>  0 0.17019619E+04</rscale>
<asrwt>0</asrwt>
<pdfrwt beam="1">  1        2 0.30524326E+00 0.17019619E+04</pdfrwt>
<pdfrwt beam="2">  1       -2 0.56152213E-01 0.17019619E+04</pdfrwt>
<totfact> 0.19317385E+01</totfact>
</mgrwt>
</event>
<event>
 6    1  0.1014650E-006  0.3065149E+04  0.7818608E-02  0.8225368E-01
         -2   -1    0    0    0  501 -0.00000000000E+00  0.00000000000E+00  0.14580149860E+04  0.14580149860E+04  0.00000000000E+00 0.  1.
          2   -1    0    0  501    0  0.00000000000E+00 -0.00000000000E+00 -0.16109471697E+04  0.16109471697E+04  0.00000000000E+00 0. -1.
         23    2    1    2    0    0 -0.11705531150E+04 -0.42227788468E+03 -0.96844932218E+03  0.15811512101E+04  0.11675552454E+03 0.  0.
         11    1    3    3    0    0 -0.24667575455E+03 -0.60615810739E+02 -0.15004672949E+03  0.29502072033E+03  0.00000000000E+00 0.  1.
        -11    1    3    3    0    0 -0.92387736045E+03 -0.36166207394E+03 -0.81840259270E+03  0.12861304897E+04  0.00000000000E+00 0. -1.
         22    1    1    2    0    0  0.11705531150E+04  0.42227788468E+03  0.81551713850E+03  0.14878109457E+04  0.00000000000E+00 0.  1.
<mgrwt>
<rscale>  0 0.30651493E+04</rscale>
<asrwt>0</asrwt>
<pdfrwt beam="1">  1        2 0.24783803E+00 0.30651493E+04</pdfrwt>
<pdfrwt beam="2">  1       -2 0.22431000E+00 0.30651493E+04</pdfrwt>
<totfact> 0.86914410E-01</totfact>
</mgrwt>
</event>
<event>
 6    1  0.1014650E-006  0.7282737E+03  0.7818608E-02  0.9670066E-01
          1   -1    0    0  501    0  0.00000000000E+00  0.00000000000E+00  0.37290144168E+03  0.37290144168E+03  0.00000000000E+00 0. -1.
         -1   -1    0    0    0  501 -0.00000000000E+00 -0.00000000000E+00 -0.35557823392E+03  0.35557823392E+03  0.00000000000E+00 0.  1.
         23    2    1    2    0    0  0.25065965736E+03 -0.21935613011E+03 -0.12440587214E+03  0.36649278671E+03  0.88841240664E+02 0.  0.
         11    1    3    3    0    0  0.93839322919E+02 -0.69534687343E+02 -0.67505594995E+00  0.11679617704E+03  0.00000000000E+00 0. -1.
        -11    1    3    3    0    0  0.15682033444E+03 -0.14982144277E+03 -0.12373081619E+03  0.24969660967E+03  0.00000000000E+00 0.  1.
         22    1    1    2    0    0 -0.25065965736E+03  0.21935613011E+03  0.14172907989E+03  0.36198688889E+03  0.00000000000E+00 0. -1.
<mgrwt>
<rscale>  0 0.72827367E+03</rscale>
<asrwt>0</asrwt>
<pdfrwt beam="1">  1        1 0.57369453E-01 0.72827367E+03</pdfrwt>
<pdfrwt beam="2">  1       -1 0.54704344E-01 0.72827367E+03</pdfrwt>
<totfact> 0.22539474E+02</totfact>
</mgrwt>
</event>
<event>
 6    1  0.1014650E-006  0.9897837E+03  0.7818608E-02  0.9319821E-01
         -2   -1    0    0    0  501 -0.00000000000E+00  0.00000000000E+00  0.26561561337E+03  0.26561561337E+03  0.00000000000E+00 0.  1.
          2   -1    0    0  501    0  0.00000000000E+00 -0.00000000000E+00 -0.92207652468E+03  0.92207652468E+03  0.00000000000E+00 0. -1.
         23    2    1    2    0    0 -0.14032145461E+03  0.37845942144E+03 -0.66574770544E+03  0.78394978352E+03  0.91845584987E+02 0.  0.
         13    1    3    3    0    0 -0.10169294041E+03  0.22550593133E+03 -0.32481895713E+03  0.40829123687E+03  0.00000000000E+00 0.  1.
        -13    1    3    3    0    0 -0.38628514200E+02  0.15295349010E+03 -0.34092874831E+03  0.37565854665E+03  0.00000000000E+00 0. -1.
         22    1    1    2    0    0  0.14032145461E+03 -0.37845942144E+03  0.92867941270E+01  0.40374235453E+03  0.00000000000E+00 0.  1.
<mgrwt>
<rscale>  0 0.98978366E+03</rscale>
<asrwt>0</asrwt>
<pdfrwt beam="1">  1        2 0.14185793E+00 0.98978366E+03</pdfrwt>
<pdfrwt beam="2">  1       -2 0.40863940E-01 0.98978366E+03</pdfrwt>
<totfact> 0.16039069E+02</totfact>
</mgrwt>
</event>
<event>
 6    1  0.1014650E-006  0.2177244E+04  0.7818608E-02  0.8527960E-01
          2   -1    0    0  501    0  0.00000000000E+00  0.00000000000E+00  0.27633472689E+04  0.27633472689E+04  0.00000000000E+00 0. -1.
         -2   -1    0    0    0  501 -0.00000000000E+00 -0.00000000000E+00 -0.42886315996E+03  0.42886315996E+03  0.00000000000E+00 0.  1.
         23    2    1    2    0    0 -0.71860059867E+03  0.39838011399E+03  0.12622527614E+03  0.83604816615E+03  0.89163782766E+02 0.  0.
         11    1    3    3    0    0 -0.37069777855E+03  0.23838073894E+03  0.10183464686E+03  0.45234114893E+03  0.00000000000E+00 0. -1.
        -11    1    3    3    0    0 -0.34790282012E+03  0.15999937506E+03  0.24390629275E+02  0.38370701722E+03  0.00000000000E+00 0.  1.
         22    1    1    2    0    0  0.71860059867E+03 -0.39838011399E+03  0.22082588328E+04  0.23561622627E+04  0.00000000000E+00 0. -1.
<mgrwt>
<rscale>  0 0.21772440E+04</rscale>
<asrwt>0</asrwt>
<pdfrwt beam="1">  1        2 0.42513034E+00 0.21772440E+04</pdfrwt>
<pdfrwt beam="2">  1       -2 0.65978949E-01 0.21772440E+04</pdfrwt>
<totfact> 0.47134906E+00</totfact>
</mgrwt>
</event>
<event>
 6    1  0.1014650E-006  0.3188753E+04  0.7818608E-02  0.8191794E-01
          2   -1    0    0  501    0  0.00000000000E+00  0.00000000000E+00  0.45718124802E+04  0.45718124802E+04  0.00000000000E+00 0. -1.
         -2   -1    0    0    0  501 -0.00000000000E+00 -0.00000000000E+00 -0.55602377841E+03  0.55602377841E+03  0.00000000000E+00 0.  1.
         23    2    1    2    0    0 -0.77844533354E+03  0.12310543928E+04  0.96741332629E+03  0.17493655268E+04  0.54029132629E+02 0.  0.
         11    1    3    3    0    0 -0.28983679944E+03  0.48949419733E+03  0.40235395931E+03  0.69677733035E+03  0.00000000000E+00 0. -1.
        -11    1    3    3    0    0 -0.48860853411E+03  0.74156019552E+03  0.56505936698E+03  0.10525881965E+04  0.00000000000E+00 0.  1.
         22    1    1    2    0    0  0.77844533354E+03 -0.12310543928E+04  0.30483753755E+04  0.33784707318E+04  0.00000000000E+00 0.  1.
<mgrwt>
<rscale>  0 0.31887530E+04</rscale>
<asrwt>0</asrwt>
<pdfrwt beam="1">  1        2 0.70335574E+00 0.31887530E+04</pdfrwt>
<pdfrwt beam="2">  1       -2 0.85542122E-01 0.31887530E+04</pdfrwt>
<totfact> 0.10420609E-01</totfact>
</mgrwt>
</event>
<event>
 6    1  0.1014650E-006  0.2605194E+04  0.7818608E-02  0.8366439E-01
         -1   -1    0    0    0  501 -0.00000000000E+00  0.00000000000E+00  0.67077565902E+03  0.67077565902E+03  0.00000000000E+00 0.  1.
          1   -1    0    0  501    0  0.00000000000E+00 -0.00000000000E+00 -0.25295477876E+04  0.25295477876E+04  0.00000000000E+00 0. -1.
         23    2    1    2    0    0 -0.12243149583E+04  0.35530624413E+03 -0.12483976793E+04  0.17869068016E+04  0.96692852827E+02 0.  0.
         13    1    3    3    0    0 -0.65363422157E+03  0.17658216495E+03 -0.72779994018E+03  0.99403808252E+03  0.00000000000E+00 0.  1.
        -13    1    3    3    0    0 -0.57068073669E+03  0.17872407918E+03 -0.52059773909E+03  0.79286871906E+03  0.00000000000E+00 0. -1.
         22    1    1    2    0    0  0.12243149583E+04 -0.35530624413E+03 -0.61037444934E+03  0.14134166451E+04  0.00000000000E+00 0.  1.
<mgrwt>
<rscale>  0 0.26051941E+04</rscale>
<asrwt>0</asrwt>
<pdfrwt beam="1">  1        1 0.38916119E+00 0.26051941E+04</pdfrwt>
<pdfrwt beam="2">  1       -1 0.10319626E+00 0.26051941E+04</pdfrwt>
<totfact> 0.10078949E+00</totfact>
</mgrwt>
</event>
<event>
 6    1  0.1014650E-006  0.1817281E+04  0.7818608E-02  0.8697163E-01
         -1   -1    0    0    0  501 -0.00000000000E+00  0.00000000000E+00  0.83296641747E+03  0.83296641747E+03  0.00000000000E+00 0.  1.
          1   -1    0    0  501    0  0.00000000000E+00 -0.00000000000E+00 -0.99119000566E+03  0.99119000566E+03  0.00000000000E+00 0. -1.
         23    2    1    2    0    0 -0.23889936981E+03 -0.84518068144E+03 -0.30427040205E+03  0.93380089582E+03  0.89444632590E+02 0.  0.
         11    1    3    3    0    0 -0.29598264364E+02 -0.95742618259E+02 -0.66103815468E+02  0.12005174144E+03  0.00000000000E+00 0. -1.
        -11    1    3    3    0    0 -0.20930110545E+03 -0.74943806318E+03 -0.23816658658E+03  0.81374915438E+03  0.00000000000E+00 0.  1.
         22    1    1    2    0    0  0.23889936981E+03  0.84518068144E+03  0.14604681386E+03  0.89035552731E+03  0.00000000000E+00 0.  1.
<mgrwt>
<rscale>  0 0.18172815E+04</rscale>
<asrwt>0</asrwt>
<pdfrwt beam="1">  1        1 0.15249077E+00 0.18172815E+04</pdfrwt>
<pdfrwt beam="2">  1       -1 0.12814868E+00 0.18172815E+04</pdfrwt>
<totfact> 0.76180489E+00</totfact>
</mgrwt>
</event>
<event>
 6    1  0.1014650E-006  0.1010634E+04  0.7818608E-02  0.9296958E-01
         -2   -1    0    0    0  501 -0.00000000000E+00  0.00000000000E+00  0.13580519121E+03  0.13580519121E+03  0.00000000000E+00 0.  1.
          2   -1    0    0  501    0  0.00000000000E+00 -0.00000000000E+00 -0.18802302881E+04  0.18802302881E+04  0.00000000000E+00 0. -1.
         23    2    1    2    0    0 -0.39944715882E+03 -0.13409510632E+03 -0.14207561019E+04  0.14847152853E+04  0.91060678682E+02 0.  0.
         13    1    3    3    0    0 -0.16128474806E+03 -0.24299652444E+02 -0.66650757141E+03  0.68617460301E+03  0.00000000000E+00 0.  1.
        -13    1    3    3    0    0 -0.23816241076E+03 -0.10979545387E+03 -0.75424853048E+03  0.79854068232E+03  0.00000000000E+00 0. -1.
         22    1    1    2    0    0  0.39944715882E+03  0.13409510632E+03 -0.32366899503E+03  0.53132019401E+03  0.00000000000E+00 0.  1.
<mgrwt>
<rscale>  0 0.10106335E+04</rscale>
<asrwt>0</asrwt>
<pdfrwt beam="1">  1        2 0.28926616E+00 0.10106335E+04</pdfrwt>
<pdfrwt beam="2">  1       -2 0.20893109E-01 0.10106335E+04</pdfrwt>
<totfact> 0.15409764E+02</totfact>
</mgrwt>
</event>
<event>
 6    1  0.1014650E-006  0.6652625E+03  0.7818608E-02  0.9778554E-01
          1   -1    0    0  501    0  0.00000000000E+00  0.00000000000E+00  0.29142090111E+03  0.29142090111E+03  0.00000000000E+00 0. -1.
         -1   -1    0    0    0  501 -0.00000000000E+00 -0.00000000000E+00 -0.37966928238E+03  0.37966928238E+03  0.00000000000E+00 0.  1.
         23    2    1    2    0    0 -0.98517515088E+02  0.26667281810E+03 -0.20639873177E+03  0.36322723019E+03  0.92268583930E+02 0.  0.
         11    1    3    3    0    0  0.14089852636E+02  0.30357638298E+02 -0.43583763795E+02  0.54951384122E+02  0.00000000000E+00 0. -1.
        -11    1    3    3    0    0 -0.11260736772E+03  0.23631517981E+03 -0.16281496797E+03  0.30827584607E+03  0.00000000000E+00 0.  1.
         22    1    1    2    0    0  0.98517515088E+02 -0.26667281810E+03  0.11815035049E+03  0.30786295330E+03  0.00000000000E+00 0. -1.
<mgrwt>
<rscale>  0 0.66526255E+03</rscale>
<asrwt>0</asrwt>
<pdfrwt beam="1">  1        1 0.44833985E-01 0.66526255E+03</pdfrwt>
<pdfrwt beam="2">  1       -1 0.58410659E-01 0.66526255E+03</pdfrwt>
<totfact> 0.27433418E+02</totfact>
</mgrwt>
</event>
<event>
 6    1  0.1014650E-006  0.2714590E+04  0.7818608E-02  0.8330286E-01
          2   -1    0    0  501    0  0.00000000000E+00  0.00000000000E+00  0.25963365722E+04  0.25963365722E+04  0.00000000000E+00 0. -1.
         -2   -1    0    0    0  501 -0.00000000000E+00 -0.00000000000E+00 -0.70955758966E+03  0.70955758966E+03  0.00000000000E+00 0.  1.
         23    2    1    2    0    0  0.99194507561E+03  0.44976190886E+03  0.19275544660E+04  0.22159843271E+04  0.94231157127E+02 0.  0.
         11    1    3    3    0    0  0.36756378909E+03  0.20779509590E+03  0.69224052882E+03  0.81085072033E+03  0.00000000000E+00 0. -1.
        -11    1    3    3    0    0  0.62438128652E+03  0.24196681296E+03  0.12353139372E+04  0.14051336068E+04  0.00000000000E+00 0.  1.
         22    1    1    2    0    0 -0.99194507561E+03 -0.44976190886E+03 -0.40775483512E+02  0.10899098347E+04  0.00000000000E+00 0.  1.
<mgrwt>
<rscale>  0 0.27145904E+04</rscale>
<asrwt>0</asrwt>
<pdfrwt beam="1">  1        2 0.39943639E+00 0.27145904E+04</pdfrwt>
<pdfrwt beam="2">  1       -2 0.10916271E+00 0.27145904E+04</pdfrwt>
<totfact> 0.17931209E+00</totfact>
</mgrwt>
</event>
<event>
 6    1  0.1014650E-006  0.1011567E+04  0.7818608E-02  0.9295949E-01
         -2   -1    0    0    0  501 -0.00000000000E+00  0.00000000000E+00  0.19910902324E+03  0.19910902324E+03  0.00000000000E+00 0.  1.
          2   -1    0    0  501    0  0.00000000000E+00 -0.00000000000E+00 -0.12848076011E+04  0.12848076011E+04  0.00000000000E+00 0. -1.
         23    2    1    2    0    0 -0.25147271360E+03  0.43299121982E+03 -0.48281987770E+03  0.70021856435E+03  0.80443032244E+02 0.  0.
         13    1    3    3    0    0 -0.99580694849E+02  0.10118487871E+03 -0.12540540249E+03  0.18942336034E+03  0.00000000000E+00 0. -1.
        -13    1    3    3    0    0 -0.15189201875E+03  0.33180634111E+03 -0.35741447521E+03  0.51079520402E+03  0.00000000000E+00 0.  1.
         22    1    1    2    0    0  0.25147271360E+03 -0.43299121982E+03 -0.60287870017E+03  0.78369805999E+03  0.00000000000E+00 0. -1.
<mgrwt>
<rscale>  0 0.10115667E+04</rscale>
<asrwt>0</asrwt>
<pdfrwt beam="1">  1        2 0.19766271E+00 0.10115667E+04</pdfrwt>
<pdfrwt beam="2">  1       -2 0.30632158E-01 0.10115667E+04</pdfrwt>
<totfact> 0.16580967E+02</totfact>
</mgrwt>
</event>
<event>
 6    1  0.1014650E-006  0.2087126E+04  0.7818608E-02  0.8566936E-01
         -2   -1    0    0    0  501 -0.00000000000E+00  0.00000000000E+00  0.70907457071E+03  0.70907457071E+03  0.00000000000E+00 0.  1.
          2   -1    0    0  501    0  0.00000000000E+00 -0.00000000000E+00 -0.15358384610E+04  0.15358384610E+04  0.00000000000E+00 0. -1.
         23    2    1    2    0    0 -0.59758377878E+03  0.84504408030E+03 -0.54053218317E+03  0.11710720470E+04  0.89603726706E+02 0.  0.
         13    1    3    3    0    0 -0.18915655799E+03  0.34244382708E+03 -0.19982939054E+03  0.43929462034E+03  0.00000000000E+00 0.  1.
        -13    1    3    3    0    0 -0.40842722079E+03  0.50260025323E+03 -0.34070279262E+03  0.73177742663E+03  0.00000000000E+00 0. -1.
         22    1    1    2    0    0  0.59758377878E+03 -0.84504408030E+03 -0.28623170711E+03  0.10738409847E+04  0.00000000000E+00 0. -1.
<mgrwt>
<rscale>  0 0.20871263E+04</rscale>
<asrwt>0</asrwt>
<pdfrwt beam="1">  1        2 0.23628284E+00 0.20871263E+04</pdfrwt>
<pdfrwt beam="2">  1       -2 0.10908840E+00 0.20871263E+04</pdfrwt>
<totfact> 0.74943806E+00</totfact>
</mgrwt>
</event>
<event>
 6    1  0.1014650E-006  0.1244443E+04  0.7818608E-02  0.9074821E-01
         -1   -1    0    0    0  501 -0.00000000000E+00  0.00000000000E+00  0.95886963107E+03  0.95886963107E+03  0.00000000000E+00 0.  1.
          1   -1    0    0  501    0  0.00000000000E+00 -0.00000000000E+00 -0.40376685035E+03  0.40376685035E+03  0.00000000000E+00 0. -1.
         23    2    1    2    0    0  0.52945658668E+03  0.23835403703E+03  0.44563164686E+02  0.58946921382E+03  0.91384649955E+02 0.  0.
         11    1    3    3    0    0  0.43858467882E+03  0.15763683580E+03  0.29350982045E+02  0.46697684380E+03  0.00000000000E+00 0.  1.
        -11    1    3    3    0    0  0.90871907851E+02  0.80717201229E+02  0.15212182641E+02  0.12249237001E+03  0.00000000000E+00 0. -1.
         22    1    1    2    0    0 -0.52945658668E+03 -0.23835403703E+03  0.51053961604E+03  0.77316726760E+03  0.00000000000E+00 0.  1.
<mgrwt>
<rscale>  0 0.12444433E+04</rscale>
<asrwt>0</asrwt>
<pdfrwt beam="1">  1        1 0.62117977E-01 0.12444433E+04</pdfrwt>
<pdfrwt beam="2">  1       -1 0.14751840E+00 0.12444433E+04</pdfrwt>
<totfact> 0.21332569E+01</totfact>
</mgrwt>
</event>
<event>
 6    1  0.1014650E-006  0.1209922E+04  0.7818608E-02  0.9104216E-01
         -2   -1    0    0    0  501 -0.00000000000E+00  0.00000000000E+00  0.33578053660E+03  0.33578053660E+03  0.00000000000E+00 0.  1.
          2   -1    0    0  501    0  0.00000000000E+00 -0.00000000000E+00 -0.10899314474E+04  0.10899314474E+04  0.00000000000E+00 0. -1.
         23    2    1    2    0    0 -0.48430717998E+03 -0.71038333861E+02 -0.79131436072E+03  0.93481381587E+03  0.89992018546E+02 0.  0.
         13    1    3    3    0    0 -0.16928479405E+03 -0.22556955672E+02 -0.36055675766E+03  0.39895780885E+03  0.00000000000E+00 0. -1.
        -13    1    3    3    0    0 -0.31502238594E+03 -0.48481378188E+02 -0.43075760306E+03  0.53585600703E+03  0.00000000000E+00 0.  1.
         22    1    1    2    0    0  0.48430717998E+03  0.71038333861E+02  0.37163449918E+02  0.49089816813E+03  0.00000000000E+00 0.  1.
<mgrwt>
<rscale>  0 0.12099219E+04</rscale>
<asrwt>0</asrwt>
<pdfrwt beam="1">  1        2 0.16768176E+00 0.12099219E+04</pdfrwt>
<pdfrwt beam="2">  1       -2 0.51658545E-01 0.12099219E+04</pdfrwt>
<totfact> 0.77125314E+01</totfact>
</mgrwt>
</event>
<event>
 6    1  0.1014650E-006  0.2820209E+04  0.7818608E-02  0.8297022E-01
          1   -1    0    0  501    0  0.00000000000E+00  0.00000000000E+00  0.29269133675E+04  0.29269133675E+04  0.00000000000E+00 0. -1.
         -1   -1    0    0    0  501 -0.00000000000E+00 -0.00000000000E+00 -0.67934875516E+03  0.67934875516E+03  0.00000000000E+00 0.  1.
         23    2    1    2    0    0  0.51618278868E+03 -0.33939141700E+03 -0.49375615080E+03  0.79619615693E+03  0.92206174383E+02 0.  0.
         11    1    3    3    0    0  0.29921337299E+03 -0.19047591174E+03 -0.22491805386E+03  0.41999743628E+03  0.00000000000E+00 0. -1.
        -11    1    3    3    0    0  0.21696941569E+03 -0.14891550525E+03 -0.26883809695E+03  0.37619872065E+03  0.00000000000E+00 0.  1.
         22    1    1    2    0    0 -0.51618278868E+03  0.33939141700E+03  0.27413207631E+04  0.28100659657E+04  0.00000000000E+00 0. -1.
<mgrwt>
<rscale>  0 0.28202092E+04</rscale>
<asrwt>0</asrwt>
<pdfrwt beam="1">  1        1 0.45029436E+00 0.28202092E+04</pdfrwt>
<pdfrwt beam="2">  1       -1 0.10451519E+00 0.28202092E+04</pdfrwt>
<totfact> 0.50213212E-01</totfact>
</mgrwt>
</event>
<event>
 6    1  0.1014650E-006  0.2894131E+04  0.7818608E-02  0.8274626E-01
         -1   -1    0    0    0  501 -0.00000000000E+00  0.00000000000E+00  0.10360290042E+04  0.10360290042E+04  0.00000000000E+00 0.  1.
          1   -1    0    0  501    0  0.00000000000E+00 -0.00000000000E+00 -0.20211778544E+04  0.20211778544E+04  0.00000000000E+00 0. -1.
         23    2    1    2    0    0 -0.76068992914E+03  0.61638846376E+03  0.63042804752E+03  0.11681137908E+04  0.92013035181E+02 0.  0.
         13    1    3    3    0    0 -0.66684509004E+03  0.50753311174E+03  0.51345941741E+03  0.98280863191E+03  0.00000000000E+00 0. -1.
        -13    1    3    3    0    0 -0.93844839101E+02  0.10885535201E+03  0.11696863010E+03  0.18530515890E+03  0.00000000000E+00 0.  1.
         22    1    1    2    0    0  0.76068992914E+03 -0.61638846376E+03 -0.16155768977E+04  0.18890930678E+04  0.00000000000E+00 0. -1.
<mgrwt>
<rscale>  0 0.28941312E+04</rscale>
<asrwt>0</asrwt>
<pdfrwt beam="1">  1        1 0.31095044E+00 0.28941312E+04</pdfrwt>
<pdfrwt beam="2">  1       -1 0.15938908E+00 0.28941312E+04</pdfrwt>
<totfact> 0.73125810E-01</totfact>
</mgrwt>
</event>
<event>
 6    1  0.1014650E-006  0.2693686E+04  0.7818608E-02  0.8337056E-01
          2   -1    0    0  501    0  0.00000000000E+00  0.00000000000E+00  0.23739517564E+04  0.23739517564E+04  0.00000000000E+00 0. -1.
         -2   -1    0    0    0  501 -0.00000000000E+00 -0.00000000000E+00 -0.76412099762E+03  0.76412099762E+03  0.00000000000E+00 0.  1.
         23    2    1    2    0    0  0.67742103306E+03 -0.74794640756E+03 -0.23060639022E+03  0.10391368369E+04  0.91120656374E+02 0.  0.
         11    1    3    3    0    0  0.34135059085E+03 -0.32713896288E+03 -0.13947392241E+03  0.49294330500E+03  0.00000000000E+00 0.  1.
        -11    1    3    3    0    0  0.33607044221E+03 -0.42080744468E+03 -0.91132467810E+02  0.54619353193E+03  0.00000000000E+00 0. -1.
         22    1    1    2    0    0 -0.67742103306E+03  0.74794640756E+03  0.18404371490E+04  0.20989359171E+04  0.00000000000E+00 0. -1.
<mgrwt>
<rscale>  0 0.26936862E+04</rscale>
<asrwt>0</asrwt>
<pdfrwt beam="1">  1        2 0.36522334E+00 0.26936862E+04</pdfrwt>
<pdfrwt beam="2">  1       -2 0.11755708E+00 0.26936862E+04</pdfrwt>
<totfact> 0.20174572E+00</totfact>
</mgrwt>
</event>
<event>
 6    1  0.1014650E-006  0.4326025E+04  0.7818608E-02  0.7941823E-01
          2   -1    0    0  501    0  0.00000000000E+00  0.00000000000E+00  0.41987045176E+04  0.41987045176E+04  0.00000000000E+00 0. -1.
         -2   -1    0    0    0  501 -0.00000000000E+00 -0.00000000000E+00 -0.11143017574E+04  0.11143017574E+04  0.00000000000E+00 0.  1.
         23    2    1    2    0    0 -0.12473820054E+04 -0.12797433703E+04  0.30373455446E+04  0.35252928351E+04  0.92285721558E+02 0.  0.
         13    1    3    3    0    0 -0.65751424853E+03 -0.66061004485E+03  0.14950987207E+04  0.17618316614E+04  0.00000000000E+00 0. -1.
        -13    1    3    3    0    0 -0.58986775690E+03 -0.61913332549E+03  0.15422468239E+04  0.17634611737E+04  0.00000000000E+00 0.  1.
         22    1    1    2    0    0  0.12473820054E+04  0.12797433703E+04  0.47057215566E+02  0.17877134398E+04  0.00000000000E+00 0.  1.
<mgrwt>
<rscale>  0 0.43260253E+04</rscale>
<asrwt>0</asrwt>
<pdfrwt beam="1">  1        2 0.64595453E+00 0.43260253E+04</pdfrwt>
<pdfrwt beam="2">  1       -2 0.17143104E+00 0.43260253E+04</pdfrwt>
<totfact> 0.37097988E-02</totfact>
</mgrwt>
</event>
<event>
 6    1  0.1014650E-006  0.5017679E+04  0.7818608E-02  0.7825786E-01
          1   -1    0    0  501    0  0.00000000000E+00  0.00000000000E+00  0.33658870789E+04  0.33658870789E+04  0.00000000000E+00 0. -1.
         -1   -1    0    0    0  501 -0.00000000000E+00 -0.00000000000E+00 -0.18700195386E+04  0.18700195386E+04  0.00000000000E+00 0.  1.
         23    2    1    2    0    0  0.18510710558E+04  0.16562345825E+04  0.38607094438E+03  0.25153872682E+04  0.92440733704E+02 0.  0.
         13    1    3    3    0    0  0.98553721591E+03  0.82329619026E+03  0.18403577903E+03  0.12972931006E+04  0.00000000000E+00 0. -1.
        -13    1    3    3    0    0  0.86553383987E+03  0.83293839222E+03  0.20203516535E+03  0.12180941676E+04  0.00000000000E+00 0.  1.
         22    1    1    2    0    0 -0.18510710558E+04 -0.16562345825E+04  0.11097965959E+04  0.27205193493E+04  0.00000000000E+00 0. -1.
<mgrwt>
<rscale>  0 0.50176786E+04</rscale>
<asrwt>0</asrwt>
<pdfrwt beam="1">  1        1 0.51782878E+00 0.50176786E+04</pdfrwt>
<pdfrwt beam="2">  1       -1 0.28769531E+00 0.50176786E+04</pdfrwt>
<totfact> 0.90884344E-03</totfact>
</mgrwt>
</event>
<event>
 6    1  0.1014650E-006  0.3179223E+04  0.7818608E-02  0.8194326E-01
          2   -1    0    0  501    0  0.00000000000E+00  0.00000000000E+00  0.28970679691E+04  0.28970679691E+04  0.00000000000E+00 0. -1.
         -2   -1    0    0    0  501 -0.00000000000E+00 -0.00000000000E+00 -0.87221434679E+03  0.87221434679E+03  0.00000000000E+00 0.  1.
         23    2    1    2    0    0  0.33411397555E+03  0.15128842461E+04  0.59872329062E+03  0.16635048790E+04  0.91257948532E+02 0.  0.
         13    1    3    3    0    0  0.16368758306E+03  0.55184004601E+03  0.20434528990E+03  0.61080116137E+03  0.00000000000E+00 0.  1.
        -13    1    3    3    0    0  0.17042639249E+03  0.96104420006E+03  0.39437800072E+03  0.10527037177E+04  0.00000000000E+00 0. -1.
         22    1    1    2    0    0 -0.33411397555E+03 -0.15128842461E+04  0.14261303317E+04  0.21057774369E+04  0.00000000000E+00 0. -1.
<mgrwt>
<rscale>  0 0.31792227E+04</rscale>
<asrwt>0</asrwt>
<pdfrwt beam="1">  1        2 0.44570276E+00 0.31792227E+04</pdfrwt>
<pdfrwt beam="2">  1       -2 0.13418682E+00 0.31792227E+04</pdfrwt>
<totfact> 0.68139575E-01</totfact>
</mgrwt>
</event>
<event>
 6    1  0.1014650E-006  0.1704316E+04  0.7818608E-02  0.8758907E-01
         -1   -1    0    0    0  501 -0.00000000000E+00  0.00000000000E+00  0.39382417372E+03  0.39382417372E+03  0.00000000000E+00 0.  1.
          1   -1    0    0  501    0  0.00000000000E+00 -0.00000000000E+00 -0.18439013542E+04  0.18439013542E+04  0.00000000000E+00 0. -1.
         23    2    1    2    0    0  0.77523370199E+03 -0.15378431207E+03 -0.11373431661E+04  0.13877611339E+04  0.87718754820E+02 0.  0.
         11    1    3    3    0    0  0.33006177065E+03 -0.34748544496E+02 -0.42256428212E+03  0.53731630006E+03  0.00000000000E+00 0.  1.
        -11    1    3    3    0    0  0.44517193133E+03 -0.11903576757E+03 -0.71477888398E+03  0.85044483383E+03  0.00000000000E+00 0. -1.
         22    1    1    2    0    0 -0.77523370199E+03  0.15378431207E+03 -0.31273401435E+03  0.84996439400E+03  0.00000000000E+00 0.  1.
<mgrwt>
<rscale>  0 0.17043156E+04</rscale>
<asrwt>0</asrwt>
<pdfrwt beam="1">  1        1 0.28367714E+00 0.17043156E+04</pdfrwt>
<pdfrwt beam="2">  1       -1 0.60588333E-01 0.17043156E+04</pdfrwt>
<totfact> 0.99958722E+00</totfact>
</mgrwt>
</event>
<event>
 6    1  0.1014650E-006  0.2970441E+04  0.7818608E-02  0.8252222E-01
         -2   -1    0    0    0  501 -0.00000000000E+00  0.00000000000E+00  0.12528524305E+04  0.12528524305E+04  0.00000000000E+00 0.  1.
          2   -1    0    0  501    0  0.00000000000E+00 -0.00000000000E+00 -0.17606857082E+04  0.17606857082E+04  0.00000000000E+00 0. -1.
         23    2    1    2    0    0 -0.39437345954E+03  0.92670367647E+03 -0.13596046517E+04  0.16945140286E+04  0.92427563749E+02 0.  0.
         13    1    3    3    0    0 -0.81097736484E+02  0.17647732636E+03 -0.20503388787E+03  0.28241810274E+03  0.00000000000E+00 0.  1.
        -13    1    3    3    0    0 -0.31327572306E+03  0.75022635010E+03 -0.11545707639E+04  0.14120959259E+04  0.00000000000E+00 0. -1.
         22    1    1    2    0    0  0.39437345954E+03 -0.92670367647E+03  0.85177137399E+03  0.13190241101E+04  0.00000000000E+00 0.  1.
<mgrwt>
<rscale>  0 0.29704406E+04</rscale>
<asrwt>0</asrwt>
<pdfrwt beam="1">  1        2 0.27087472E+00 0.29704406E+04</pdfrwt>
<pdfrwt beam="2">  1       -2 0.19274653E+00 0.29704406E+04</pdfrwt>
<totfact> 0.11569372E+00</totfact>
</mgrwt>
</event>
<event>
 6    1  0.1014650E-006  0.1545202E+04  0.7818608E-02  0.8854938E-01
         -1   -1    0    0    0  501 -0.00000000000E+00  0.00000000000E+00  0.32551466517E+03  0.32551466517E+03  0.00000000000E+00 0.  1.
          1   -1    0    0  501    0  0.00000000000E+00 -0.00000000000E+00 -0.18337489114E+04  0.18337489114E+04  0.00000000000E+00 0. -1.
         23    2    1    2    0    0  0.55669314207E+03  0.13975252821E+03 -0.14737307894E+04  0.15842605226E+04  0.92525349411E+02 0.  0.
         11    1    3    3    0    0  0.48439226923E+03  0.15174487949E+03 -0.13083531219E+04  0.14033710381E+04  0.00000000000E+00 0.  1.
        -11    1    3    3    0    0  0.72300872832E+02 -0.11992351283E+02 -0.16537766752E+03  0.18088948454E+03  0.00000000000E+00 0. -1.
         22    1    1    2    0    0 -0.55669314207E+03 -0.13975252821E+03 -0.34503456854E+02  0.57500305399E+03  0.00000000000E+00 0.  1.
<mgrwt>
<rscale>  0 0.15452018E+04</rscale>
<asrwt>0</asrwt>
<pdfrwt beam="1">  1        1 0.28211521E+00 0.15452018E+04</pdfrwt>
<pdfrwt beam="2">  1       -1 0.50079180E-01 0.15452018E+04</pdfrwt>
<totfact> 0.14908043E+01</totfact>
</mgrwt>
</event>
<event>
 6    1  0.1014650E-006  0.1360073E+04  0.7818608E-02  0.8983238E-01
         -1   -1    0    0    0  501 -0.00000000000E+00  0.00000000000E+00  0.15666067023E+03  0.15666067023E+03  0.00000000000E+00 0.  1.
          1   -1    0    0  501    0  0.00000000000E+00 -0.00000000000E+00 -0.29519207665E+04  0.29519207665E+04  0.00000000000E+00 0. -1.
         23    2    1    2    0    0 -0.90467328572E+02  0.62855793814E+03 -0.19409914582E+04  0.20441358885E+04  0.88171825156E+02 0.  0.
         11    1    3    3    0    0 -0.45742257746E+02  0.47667298430E+03 -0.13548454240E+04  0.14369814234E+04  0.00000000000E+00 0.  1.
        -11    1    3    3    0    0 -0.44725070826E+02  0.15188495385E+03 -0.58614603414E+03  0.60715446511E+03  0.00000000000E+00 0. -1.
         22    1    1    2    0    0  0.90467328572E+02 -0.62855793814E+03 -0.85426863814E+03  0.10644455483E+04  0.00000000000E+00 0.  1.
<mgrwt>
<rscale>  0 0.13600734E+04</rscale>
<asrwt>0</asrwt>
<pdfrwt beam="1">  1        1 0.45414163E+00 0.13600734E+04</pdfrwt>
<pdfrwt beam="2">  1       -1 0.24101643E-01 0.13600734E+04</pdfrwt>
<totfact> 0.95290016E+00</totfact>
</mgrwt>
</event>
<event>
 6    1  0.1014650E-006  0.1503266E+04  0.7818608E-02  0.8882284E-01
         -2   -1    0    0    0  501 -0.00000000000E+00  0.00000000000E+00  0.16903589850E+04  0.16903589850E+04  0.00000000000E+00 0.  1.
          2   -1    0    0  501    0  0.00000000000E+00 -0.00000000000E+00 -0.33422007622E+03  0.33422007622E+03  0.00000000000E+00 0. -1.
         23    2    1    2    0    0 -0.33177522178E+03  0.48455970007E+03  0.13063521623E+04  0.14352136221E+04  0.91702063259E+02 0.  0.
         13    1    3    3    0    0 -0.25271287558E+03  0.29904545563E+03  0.90443662342E+03  0.98554431042E+03  0.00000000000E+00 0. -1.
        -13    1    3    3    0    0 -0.79062346199E+02  0.18551424444E+03  0.40191553888E+03  0.44966931169E+03  0.00000000000E+00 0.  1.
         22    1    1    2    0    0  0.33177522178E+03 -0.48455970007E+03  0.49786746494E+02  0.58936543913E+03  0.00000000000E+00 0. -1.
<mgrwt>
<rscale>  0 0.15032657E+04</rscale>
<asrwt>0</asrwt>
<pdfrwt beam="1">  1        2 0.51418474E-01 0.15032657E+04</pdfrwt>
<pdfrwt beam="2">  1       -2 0.26005522E+00 0.15032657E+04</pdfrwt>
<totfact> 0.52462446E+00</totfact>
</mgrwt>
</event>
<event>
 6    1  0.1014650E-006  0.2131158E+04  0.7818608E-02  0.8547641E-01
         -1   -1    0    0    0  501 -0.00000000000E+00  0.00000000000E+00  0.91947092775E+03  0.91947092775E+03  0.00000000000E+00 0.  1.
          1   -1    0    0  501    0  0.00000000000E+00 -0.00000000000E+00 -0.12349041453E+04  0.12349041453E+04  0.00000000000E+00 0. -1.
         23    2    1    2    0    0  0.99012004367E+03  0.35088264737E+03  0.11169693863E+02  0.10543178951E+04  0.89471385006E+02 0.  0.
         11    1    3    3    0    0  0.44225449784E+03  0.10970877448E+03  0.51419762326E+01  0.45568793705E+03  0.00000000000E+00 0. -1.
        -11    1    3    3    0    0  0.54786554583E+03  0.24117387289E+03  0.60277176300E+01  0.59862995803E+03  0.00000000000E+00 0.  1.
         22    1    1    2    0    0 -0.99012004367E+03 -0.35088264737E+03 -0.32660291143E+03  0.11000571780E+04  0.00000000000E+00 0. -1.
<mgrwt>
<rscale>  0 0.21311579E+04</rscale>
<asrwt>0</asrwt>
<pdfrwt beam="1">  1        1 0.18998525E+00 0.21311579E+04</pdfrwt>
<pdfrwt beam="2">  1       -1 0.14145707E+00 0.21311579E+04</pdfrwt>
<totfact> 0.37707455E+00</totfact>
</mgrwt>
</event>
<event>
 6    1  0.1014650E-006  0.3861547E+04  0.7818608E-02  0.8033075E-01
          2   -1    0    0  501    0  0.00000000000E+00  0.00000000000E+00  0.39507510872E+04  0.39507510872E+04  0.00000000000E+00 0. -1.
         -2   -1    0    0    0  501 -0.00000000000E+00 -0.00000000000E+00 -0.94358936064E+03  0.94358936064E+03  0.00000000000E+00 0.  1.
         23    2    1    2    0    0 -0.14872197852E+04  0.86287885272E+03  0.26146496340E+04  0.31306941265E+04  0.92034783252E+02 0.  0.
         11    1    3    3    0    0 -0.48210596941E+03  0.29452351237E+03  0.93523992795E+03  0.10926316799E+04  0.00000000000E+00 0. -1.
        -11    1    3    3    0    0 -0.10051138157E+04  0.56835534035E+03  0.16794097061E+04  0.20380624466E+04  0.00000000000E+00 0.  1.
         22    1    1    2    0    0  0.14872197852E+04 -0.86287885272E+03  0.39251209250E+03  0.17636463213E+04  0.00000000000E+00 0.  1.
<mgrwt>
<rscale>  0 0.38615472E+04</rscale>
<asrwt>0</asrwt>
<pdfrwt beam="1">  1        2 0.60780785E+00 0.38615472E+04</pdfrwt>
<pdfrwt beam="2">  1       -2 0.14516760E+00 0.38615472E+04</pdfrwt>
<totfact> 0.97354756E-02</totfact>
</mgrwt>
</event>
<event>
 6    1  0.1014650E-006  0.2795202E+03  0.7818608E-02  0.1095951E+00
          1   -1    0    0  501    0  0.00000000000E+00  0.00000000000E+00  0.33114163429E+03  0.33114163429E+03  0.00000000000E+00 0. -1.
         -1   -1    0    0    0  501 -0.00000000000E+00 -0.00000000000E+00 -0.58986494077E+02  0.58986494077E+02  0.00000000000E+00 0.  1.
         23    2    1    2    0    0 -0.11925782782E+03  0.17657999504E+02  0.10515522724E+03  0.18415918562E+03  0.91229103851E+02 0.  0.
         11    1    3    3    0    0 -0.68687792923E+02  0.54918324112E+02  0.68114640168E+02  0.11123686181E+03  0.00000000000E+00 0. -1.
        -11    1    3    3    0    0 -0.50570034897E+02 -0.37260324608E+02  0.37040587072E+02  0.72922323811E+02  0.00000000000E+00 0.  1.
         22    1    1    2    0    0  0.11925782782E+03 -0.17657999504E+02  0.16699991297E+03  0.20596894274E+03  0.00000000000E+00 0. -1.
<mgrwt>
<rscale>  0 0.27952019E+03</rscale>
<asrwt>0</asrwt>
<pdfrwt beam="1">  1        1 0.50944866E-01 0.27952019E+03</pdfrwt>
<pdfrwt beam="2">  1       -1 0.90748455E-02 0.27952019E+03</pdfrwt>
<totfact> 0.54454673E+03</totfact>
</mgrwt>
</event>
<event>
 6    1  0.1014650E-006  0.2198488E+04  0.7818608E-02  0.8519058E-01
         -2   -1    0    0    0  501 -0.00000000000E+00  0.00000000000E+00  0.74873337590E+03  0.74873337590E+03  0.00000000000E+00 0.  1.
          2   -1    0    0  501    0  0.00000000000E+00 -0.00000000000E+00 -0.16138415057E+04  0.16138415057E+04  0.00000000000E+00 0. -1.
         23    2    1    2    0    0 -0.16133346718E+03  0.60615155589E+03  0.53431641132E+03  0.82900478454E+03  0.91141148958E+02 0.  0.
         11    1    3    3    0    0 -0.14801070289E+03  0.39066728427E+03  0.36158515070E+03  0.55251417753E+03  0.00000000000E+00 0. -1.
        -11    1    3    3    0    0 -0.13322764291E+02  0.21548427162E+03  0.17273126063E+03  0.27649060700E+03  0.00000000000E+00 0.  1.
         22    1    1    2    0    0  0.16133346718E+03 -0.60615155589E+03 -0.13994245412E+04  0.15335700971E+04  0.00000000000E+00 0. -1.
<mgrwt>
<rscale>  0 0.21984877E+04</rscale>
<asrwt>0</asrwt>
<pdfrwt beam="1">  1        2 0.24828331E+00 0.21984877E+04</pdfrwt>
<pdfrwt beam="2">  1       -2 0.11518975E+00 0.21984877E+04</pdfrwt>
<totfact> 0.58819399E+00</totfact>
</mgrwt>
</event>
<event>
 6    1  0.1014650E-006  0.8442384E+03  0.7818608E-02  0.9498103E-01
          2   -1    0    0  501    0  0.00000000000E+00  0.00000000000E+00  0.27400892973E+04  0.27400892973E+04  0.00000000000E+00 0. -1.
         -2   -1    0    0    0  501 -0.00000000000E+00 -0.00000000000E+00 -0.65028767670E+02  0.65028767670E+02  0.00000000000E+00 0.  1.
         23    2    1    2    0    0 -0.30016015769E+03 -0.17766046720E+03  0.59407795327E+03  0.69510672733E+03  0.92657357737E+02 0.  0.
         13    1    3    3    0    0 -0.16364287278E+03 -0.14794450962E+03  0.38262940997E+03  0.44166937081E+03  0.00000000000E+00 0.  1.
        -13    1    3    3    0    0 -0.13651728491E+03 -0.29715957581E+02  0.21144854330E+03  0.25343735652E+03  0.00000000000E+00 0. -1.
         22    1    1    2    0    0  0.30016015769E+03  0.17766046720E+03  0.20809825764E+04  0.21100113377E+04  0.00000000000E+00 0.  1.
<mgrwt>
<rscale>  0 0.84423843E+03</rscale>
<asrwt>0</asrwt>
<pdfrwt beam="1">  1        2 0.42155211E+00 0.84423843E+03</pdfrwt>
<pdfrwt beam="2">  1       -2 0.10004428E-01 0.84423843E+03</pdfrwt>
<totfact> 0.17850700E+02</totfact>
</mgrwt>
</event>
<event>
 6    1  0.1014650E-006  0.5662473E+04  0.7818608E-02  0.7733720E-01
         -1   -1    0    0    0  501 -0.00000000000E+00  0.00000000000E+00  0.24592534284E+04  0.24592534284E+04  0.00000000000E+00 0.  1.
          1   -1    0    0  501    0  0.00000000000E+00 -0.00000000000E+00 -0.32594852682E+04  0.32594852682E+04  0.00000000000E+00 0. -1.
         23    2    1    2    0    0  0.45852236536E+03 -0.91920814582E+03 -0.30639251283E+04  0.32328799558E+04  0.93216102637E+02 0.  0.
         11    1    3    3    0    0  0.18594212412E+02 -0.84263164065E+02 -0.30692838011E+03  0.31882762752E+03  0.00000000000E+00 0.  1.
        -11    1    3    3    0    0  0.43992815295E+03 -0.83494498176E+03 -0.27569967482E+04  0.29140523282E+04  0.00000000000E+00 0. -1.
         22    1    1    2    0    0 -0.45852236536E+03  0.91920814582E+03  0.22636932885E+04  0.24858587408E+04  0.00000000000E+00 0.  1.
<mgrwt>
<rscale>  0 0.56624731E+04</rscale>
<asrwt>0</asrwt>
<pdfrwt beam="1">  1        1 0.50145927E+00 0.56624731E+04</pdfrwt>
<pdfrwt beam="2">  1       -1 0.37834668E+00 0.56624731E+04</pdfrwt>
<totfact> 0.26376113E-03</totfact>
</mgrwt>
</event>
<event>
 6    1  0.1014650E-006  0.1831119E+04  0.7818608E-02  0.8689924E-01
         -1   -1    0    0    0  501 -0.00000000000E+00  0.00000000000E+00  0.10603259110E+04  0.10603259110E+04  0.00000000000E+00 0.  1.
          1   -1    0    0  501    0  0.00000000000E+00 -0.00000000000E+00 -0.79055791023E+03  0.79055791023E+03  0.00000000000E+00 0. -1.
         23    2    1    2    0    0  0.84470958115E+03  0.20183540966E+03 -0.15040745378E+03  0.88609409195E+03  0.90931449693E+02 0.  0.
         13    1    3    3    0    0  0.45973230634E+03  0.12318875845E+03 -0.38319589901E+02  0.47749099958E+03  0.00000000000E+00 0. -1.
        -13    1    3    3    0    0  0.38497727481E+03  0.78646651211E+02 -0.11208786388E+03  0.40860309237E+03  0.00000000000E+00 0.  1.
         22    1    1    2    0    0 -0.84470958115E+03 -0.20183540966E+03  0.42017545451E+03  0.96478972925E+03  0.00000000000E+00 0. -1.
<mgrwt>
<rscale>  0 0.18311188E+04</rscale>
<asrwt>0</asrwt>
<pdfrwt beam="1">  1        1 0.12162429E+00 0.18311188E+04</pdfrwt>
<pdfrwt beam="2">  1       -1 0.16312706E+00 0.18311188E+04</pdfrwt>
<totfact> 0.58699582E+00</totfact>
</mgrwt>
</event>
<event>
 6    1  0.1014650E-006  0.3692043E+04  0.7818608E-02  0.8069727E-01
         -2   -1    0    0    0  501 -0.00000000000E+00  0.00000000000E+00  0.13055735256E+04  0.13055735256E+04  0.00000000000E+00 0.  1.
          2   -1    0    0  501    0  0.00000000000E+00 -0.00000000000E+00 -0.26101902174E+04  0.26101902174E+04  0.00000000000E+00 0. -1.
         23    2    1    2    0    0 -0.69871537680E+03  0.86627004667E+03 -0.22133039503E+04  0.24789827905E+04  0.89522775087E+02 0.  0.
         11    1    3    3    0    0 -0.48255336177E+03  0.66128248132E+03 -0.16232470960E+04  0.18179888344E+04  0.00000000000E+00 0.  1.
        -11    1    3    3    0    0 -0.21616201504E+03  0.20498756535E+03 -0.59005685431E+03  0.66099395611E+03  0.00000000000E+00 0. -1.
         22    1    1    2    0    0  0.69871537680E+03 -0.86627004667E+03  0.90868725853E+03  0.14367809525E+04  0.00000000000E+00 0.  1.
<mgrwt>
<rscale>  0 0.36920429E+04</rscale>
<asrwt>0</asrwt>
<pdfrwt beam="1">  1        2 0.40156772E+00 0.36920429E+04</pdfrwt>
<pdfrwt beam="2">  1       -2 0.20085747E+00 0.36920429E+04</pdfrwt>
<totfact> 0.31871715E-01</totfact>
</mgrwt>
</event>
<event>
 6    1  0.1014650E-006  0.2184768E+04  0.7818608E-02  0.8524795E-01
         -2   -1    0    0    0  501 -0.00000000000E+00  0.00000000000E+00  0.90587526915E+03  0.90587526915E+03  0.00000000000E+00 0.  1.
          2   -1    0    0  501    0  0.00000000000E+00 -0.00000000000E+00 -0.13172931428E+04  0.13172931428E+04  0.00000000000E+00 0. -1.
         23    2    1    2    0    0 -0.41128975922E+03  0.54085736780E+03 -0.10737388608E+04  0.12742980055E+04  0.96095302726E+02 0.  0.
         11    1    3    3    0    0 -0.30114643697E+03  0.34928565968E+03 -0.65872515398E+03  0.80411969074E+03  0.00000000000E+00 0. -1.
        -11    1    3    3    0    0 -0.11014332225E+03  0.19157170813E+03 -0.41501370680E+03  0.47017831471E+03  0.00000000000E+00 0.  1.
         22    1    1    2    0    0  0.41128975922E+03 -0.54085736780E+03  0.66232098712E+03  0.94887040650E+03  0.00000000000E+00 0.  1.
<mgrwt>
<rscale>  0 0.21847684E+04</rscale>
<asrwt>0</asrwt>
<pdfrwt beam="1">  1        2 0.20266048E+00 0.21847684E+04</pdfrwt>
<pdfrwt beam="2">  1       -2 0.13936543E+00 0.21847684E+04</pdfrwt>
<totfact> 0.53731192E+00</totfact>
</mgrwt>
</event>
<event>
 6    1  0.1087849E-006  0.3751067E+04  0.7818608E-02  0.8056738E-01
         -2   -1    0    0    0  501 -0.00000000000E+00  0.00000000000E+00  0.17708629726E+04  0.17708629726E+04  0.00000000000E+00 0.  1.
          2   -1    0    0  501    0  0.00000000000E+00 -0.00000000000E+00 -0.19863907178E+04  0.19863907178E+04  0.00000000000E+00 0. -1.
         23    2    1    2    0    0  0.11482654755E+04 -0.12126877623E+04 -0.96018520500E+03  0.19286914291E+04  0.93647155802E+02 0.  0.
         13    1    3    3    0    0  0.38931850419E+03 -0.37653472045E+03 -0.26918257200E+03  0.60481943626E+03  0.00000000000E+00 0.  1.
        -13    1    3    3    0    0  0.75894697128E+03 -0.83615304184E+03 -0.69100263300E+03  0.13238719928E+04  0.00000000000E+00 0. -1.
         22    1    1    2    0    0 -0.11482654755E+04  0.12126877623E+04  0.74465745976E+03  0.18285622613E+04  0.00000000000E+00 0.  1.
<mgrwt>
<rscale>  0 0.37510669E+04</rscale>
<asrwt>0</asrwt>
<pdfrwt beam="1">  1        2 0.30559857E+00 0.37510669E+04</pdfrwt>
<pdfrwt beam="2">  1       -2 0.27244046E+00 0.37510669E+04</pdfrwt>
<totfact> 0.25633462E-01</totfact>
</mgrwt>
</event>
<event>
 6    1  0.1014650E-006  0.3099717E+04  0.7818608E-02  0.8215816E-01
         -2   -1    0    0    0  501 -0.00000000000E+00  0.00000000000E+00  0.68924928464E+03  0.68924928464E+03  0.00000000000E+00 0.  1.
          2   -1    0    0  501    0  0.00000000000E+00 -0.00000000000E+00 -0.34850393068E+04  0.34850393068E+04  0.00000000000E+00 0. -1.
         23    2    1    2    0    0 -0.46632676109E+02 -0.17779812701E+03 -0.34697708390E+04  0.34756921974E+04  0.85672606917E+02 0.  0.
         13    1    3    3    0    0 -0.20384347508E+02 -0.12440346565E+03 -0.15936552668E+04  0.15986334331E+04  0.00000000000E+00 0. -1.
        -13    1    3    3    0    0 -0.26248328601E+02 -0.53394661355E+02 -0.18761155721E+04  0.18770587643E+04  0.00000000000E+00 0.  1.
         22    1    1    2    0    0  0.46632676109E+02  0.17779812701E+03  0.67398081677E+03  0.69859639408E+03  0.00000000000E+00 0.  1.
<mgrwt>
<rscale>  0 0.30997167E+04</rscale>
<asrwt>0</asrwt>
<pdfrwt beam="1">  1        2 0.53615991E+00 0.30997167E+04</pdfrwt>
<pdfrwt beam="2">  1       -2 0.10603835E+00 0.30997167E+04</pdfrwt>
<totfact> 0.50707120E-01</totfact>
</mgrwt>
</event>
<event>
 6    1  0.1014650E-006  0.2653461E+04  0.7818608E-02  0.8350265E-01
          2   -1    0    0  501    0  0.00000000000E+00  0.00000000000E+00  0.17834234263E+04  0.17834234263E+04  0.00000000000E+00 0. -1.
         -2   -1    0    0    0  501 -0.00000000000E+00 -0.00000000000E+00 -0.98698608625E+03  0.98698608625E+03  0.00000000000E+00 0.  1.
         23    2    1    2    0    0 -0.48180731849E+03 -0.40688259450E+03 -0.81709759045E+03  0.10380161652E+04  0.11016963790E+03 0.  0.
         11    1    3    3    0    0 -0.22094106540E+03 -0.25724567571E+03 -0.44991048376E+03  0.56339128095E+03  0.00000000000E+00 0. -1.
        -11    1    3    3    0    0 -0.26086625309E+03 -0.14963691879E+03 -0.36718710670E+03  0.47462488429E+03  0.00000000000E+00 0.  1.
         22    1    1    2    0    0  0.48180731849E+03  0.40688259450E+03  0.16135349305E+04  0.17323933473E+04  0.00000000000E+00 0. -1.
<mgrwt>
<rscale>  0 0.26534612E+04</rscale>
<asrwt>0</asrwt>
<pdfrwt beam="1">  1        2 0.27437283E+00 0.26534612E+04</pdfrwt>
<pdfrwt beam="2">  1       -2 0.15184401E+00 0.26534612E+04</pdfrwt>
<totfact> 0.22515802E+00</totfact>
</mgrwt>
</event>
<event>
 6    1  0.1014650E-006  0.3634296E+04  0.7818608E-02  0.8082681E-01
         -2   -1    0    0    0  501 -0.00000000000E+00  0.00000000000E+00  0.14613641252E+04  0.14613641252E+04  0.00000000000E+00 0.  1.
          2   -1    0    0  501    0  0.00000000000E+00 -0.00000000000E+00 -0.22595505409E+04  0.22595505409E+04  0.00000000000E+00 0. -1.
         23    2    1    2    0    0  0.24631076276E+03 -0.15976756000E+04  0.44785917180E+03  0.16798693652E+04  0.90260354964E+02 0.  0.
         11    1    3    3    0    0  0.20960449624E+03 -0.13952049588E+04  0.35959410470E+03  0.14559666349E+04  0.00000000000E+00 0. -1.
        -11    1    3    3    0    0  0.36706266516E+02 -0.20247064120E+03  0.88265067101E+02  0.22390273026E+03  0.00000000000E+00 0.  1.
         22    1    1    2    0    0 -0.24631076276E+03  0.15976756000E+04 -0.12460455874E+04  0.20410453009E+04  0.00000000000E+00 0. -1.
<mgrwt>
<rscale>  0 0.36342956E+04</rscale>
<asrwt>0</asrwt>
<pdfrwt beam="1">  1        2 0.34762316E+00 0.36342956E+04</pdfrwt>
<pdfrwt beam="2">  1       -2 0.22482525E+00 0.36342956E+04</pdfrwt>
<totfact> 0.35790982E-01</totfact>
</mgrwt>
</event>
<event>
 6    1  0.1014650E-006  0.2918086E+04  0.7818608E-02  0.8267517E-01
          2   -1    0    0  501    0  0.00000000000E+00  0.00000000000E+00  0.20101143177E+04  0.20101143177E+04  0.00000000000E+00 0. -1.
         -2   -1    0    0    0  501 -0.00000000000E+00 -0.00000000000E+00 -0.10590476095E+04  0.10590476095E+04  0.00000000000E+00 0.  1.
         23    2    1    2    0    0 -0.31264092247E+03  0.12889552826E+04 -0.15972613574E+03  0.13391299017E+04  0.92770621678E+02 0.  0.
         11    1    3    3    0    0 -0.19952639663E+03  0.71444159519E+03 -0.50592431956E+02  0.74350330871E+03  0.00000000000E+00 0. -1.
        -11    1    3    3    0    0 -0.11311452583E+03  0.57451368746E+03 -0.10913370379E+03  0.59562659304E+03  0.00000000000E+00 0.  1.
         22    1    1    2    0    0  0.31264092247E+03 -0.12889552826E+04  0.11107928440E+04  0.17300320255E+04  0.00000000000E+00 0. -1.
<mgrwt>
<rscale>  0 0.29180862E+04</rscale>
<asrwt>0</asrwt>
<pdfrwt beam="1">  1        2 0.30924836E+00 0.29180862E+04</pdfrwt>
<pdfrwt beam="2">  1       -2 0.16293040E+00 0.29180862E+04</pdfrwt>
<totfact> 0.13624358E+00</totfact>
</mgrwt>
</event>
<event>
 6    1  0.1014650E-006  0.2872435E+04  0.7818608E-02  0.8281127E-01
         -1   -1    0    0    0  501 -0.00000000000E+00  0.00000000000E+00  0.15720067418E+04  0.15720067418E+04  0.00000000000E+00 0.  1.
          1   -1    0    0  501    0  0.00000000000E+00 -0.00000000000E+00 -0.13121572503E+04  0.13121572503E+04  0.00000000000E+00 0. -1.
         23    2    1    2    0    0  0.10627089028E+04 -0.29700034174E+03  0.10508980986E+04  0.15264757679E+04  0.90454636731E+02 0.  0.
         13    1    3    3    0    0  0.84454416951E+03 -0.27339778272E+03  0.84266879536E+03  0.12239656452E+04  0.00000000000E+00 0. -1.
        -13    1    3    3    0    0  0.21816473329E+03 -0.23602559024E+02  0.20822930328E+03  0.30251012279E+03  0.00000000000E+00 0.  1.
         22    1    1    2    0    0 -0.10627089028E+04  0.29700034174E+03 -0.79104860709E+03  0.13576882241E+04  0.00000000000E+00 0. -1.
<mgrwt>
<rscale>  0 0.28724345E+04</rscale>
<asrwt>0</asrwt>
<pdfrwt beam="1">  1        1 0.20187035E+00 0.28724345E+04</pdfrwt>
<pdfrwt beam="2">  1       -1 0.24184719E+00 0.28724345E+04</pdfrwt>
<totfact> 0.60142242E-01</totfact>
</mgrwt>
</event>
<event>
 6    1  0.1014650E-006  0.1886178E+04  0.7818608E-02  0.8661767E-01
          1   -1    0    0  501    0  0.00000000000E+00  0.00000000000E+00  0.16197170805E+04  0.16197170805E+04  0.00000000000E+00 0. -1.
         -1   -1    0    0    0  501 -0.00000000000E+00 -0.00000000000E+00 -0.54911840023E+03  0.54911840023E+03  0.00000000000E+00 0.  1.
         23    2    1    2    0    0  0.22107919702E+03 -0.91418114330E+03  0.56861162507E+03  0.11027237709E+04  0.89874138176E+02 0.  0.
         11    1    3    3    0    0  0.17012965608E+03 -0.82090254910E+03  0.49765194713E+03  0.97492694879E+03  0.00000000000E+00 0.  1.
        -11    1    3    3    0    0  0.50949540947E+02 -0.93278594201E+02  0.70959677937E+02  0.12779682215E+03  0.00000000000E+00 0. -1.
         22    1    1    2    0    0 -0.22107919702E+03  0.91418114330E+03  0.50198705515E+03  0.10661117097E+04  0.00000000000E+00 0.  1.
<mgrwt>
<rscale>  0 0.18861776E+04</rscale>
<asrwt>0</asrwt>
<pdfrwt beam="1">  1        1 0.24918724E+00 0.18861776E+04</pdfrwt>
<pdfrwt beam="2">  1       -1 0.84479755E-01 0.18861776E+04</pdfrwt>
<totfact> 0.70289894E+00</totfact>
</mgrwt>
</event>
<event>
 6    1  0.1014650E-006  0.2525039E+04  0.7818608E-02  0.8394119E-01
          2   -1    0    0  501    0  0.00000000000E+00  0.00000000000E+00  0.16607500437E+04  0.16607500437E+04  0.00000000000E+00 0. -1.
         -2   -1    0    0    0  501 -0.00000000000E+00 -0.00000000000E+00 -0.95978082412E+03  0.95978082412E+03  0.00000000000E+00 0.  1.
         23    2    1    2    0    0  0.12462766132E+04  0.18955214970E+03  0.32647023940E+03  0.13054700707E+04  0.92378970528E+02 0.  0.
         13    1    3    3    0    0  0.90431594357E+03  0.17877967853E+03  0.23344935031E+03  0.95091960670E+03  0.00000000000E+00 0. -1.
        -13    1    3    3    0    0  0.34196066960E+03  0.10772471168E+02  0.93020889092E+02  0.35455046397E+03  0.00000000000E+00 0.  1.
         22    1    1    2    0    0 -0.12462766132E+04 -0.18955214970E+03  0.37449898015E+03  0.13150607971E+04  0.00000000000E+00 0.  1.
<mgrwt>
<rscale>  0 0.25250394E+04</rscale>
<asrwt>0</asrwt>
<pdfrwt beam="1">  1        2 0.25550001E+00 0.25250394E+04</pdfrwt>
<pdfrwt beam="2">  1       -2 0.14765859E+00 0.25250394E+04</pdfrwt>
<totfact> 0.28677589E+00</totfact>
</mgrwt>
</event>
<event>
 6    1  0.1014650E-006  0.1111107E+04  0.7818608E-02  0.9194433E-01
         -1   -1    0    0    0  501 -0.00000000000E+00  0.00000000000E+00  0.83225500706E+03  0.83225500706E+03  0.00000000000E+00 0.  1.
          1   -1    0    0  501    0  0.00000000000E+00 -0.00000000000E+00 -0.37084753561E+03  0.37084753561E+03  0.00000000000E+00 0. -1.
         23    2    1    2    0    0  0.44541108279E+03 -0.31935977414E+03  0.16235256279E+03  0.57875044938E+03  0.90620251606E+02 0.  0.
         11    1    3    3    0    0  0.18938647999E+03 -0.19049342092E+03  0.69560019424E+02  0.27747716757E+03  0.00000000000E+00 0.  1.
        -11    1    3    3    0    0  0.25602460280E+03 -0.12886635322E+03  0.92792543363E+02  0.30127328181E+03  0.00000000000E+00 0. -1.
         22    1    1    2    0    0 -0.44541108279E+03  0.31935977414E+03  0.29905490866E+03  0.62435209330E+03  0.00000000000E+00 0. -1.
<mgrwt>
<rscale>  0 0.11111070E+04</rscale>
<asrwt>0</asrwt>
<pdfrwt beam="1">  1        1 0.57053467E-01 0.11111070E+04</pdfrwt>
<pdfrwt beam="2">  1       -1 0.12803923E+00 0.11111070E+04</pdfrwt>
<totfact> 0.34824068E+01</totfact>
</mgrwt>
</event>
<event>
 6    1  0.1014650E-006  0.1154398E+04  0.7818608E-02  0.9153736E-01
          2   -1    0    0  501    0  0.00000000000E+00  0.00000000000E+00  0.17625719091E+04  0.17625719091E+04  0.00000000000E+00 0. -1.
         -2   -1    0    0    0  501 -0.00000000000E+00 -0.00000000000E+00 -0.18901842375E+03  0.18901842375E+03  0.00000000000E+00 0.  1.
         23    2    1    2    0    0 -0.23619715068E+03 -0.50307917091E+03  0.10320348122E+04  0.11756262747E+04  0.90130671476E+02 0.  0.
         11    1    3    3    0    0 -0.62716758347E+02 -0.23042484662E+03  0.47442474822E+03  0.53113825266E+03  0.00000000000E+00 0.  1.
        -11    1    3    3    0    0 -0.17348039233E+03 -0.27265432428E+03  0.55761006402E+03  0.64448802206E+03  0.00000000000E+00 0. -1.
         22    1    1    2    0    0  0.23619715068E+03  0.50307917091E+03  0.54151867310E+03  0.77596405812E+03  0.00000000000E+00 0.  1.
<mgrwt>
<rscale>  0 0.11543978E+04</rscale>
<asrwt>0</asrwt>
<pdfrwt beam="1">  1        2 0.27116490E+00 0.11543978E+04</pdfrwt>
<pdfrwt beam="2">  1       -2 0.29079759E-01 0.11543978E+04</pdfrwt>
<totfact> 0.97363259E+01</totfact>
</mgrwt>
</event>
<event>
 6    1  0.1014650E-006  0.1197420E+04  0.7818608E-02  0.9115118E-01
          1   -1    0    0  501    0  0.00000000000E+00  0.00000000000E+00  0.62645207502E+03  0.62645207502E+03  0.00000000000E+00 0. -1.
         -1   -1    0    0    0  501 -0.00000000000E+00 -0.00000000000E+00 -0.57219638963E+03  0.57219638963E+03  0.00000000000E+00 0.  1.
         23    2    1    2    0    0 -0.18212255986E+03  0.30129334895E+03  0.50744246473E+03  0.62478039104E+03  0.94373582589E+02 0.  0.
         11    1    3    3    0    0 -0.97477307561E+02  0.12993384299E+03  0.15865306105E+03  0.22705819259E+03  0.00000000000E+00 0.  1.
        -11    1    3    3    0    0 -0.84645252296E+02  0.17135950596E+03  0.34878940368E+03  0.39772219845E+03  0.00000000000E+00 0. -1.
         22    1    1    2    0    0  0.18212255986E+03 -0.30129334895E+03 -0.45318677934E+03  0.57386807360E+03  0.00000000000E+00 0.  1.
<mgrwt>
<rscale>  0 0.11974199E+04</rscale>
<asrwt>0</asrwt>
<pdfrwt beam="1">  1        1 0.96377243E-01 0.11974199E+04</pdfrwt>
<pdfrwt beam="2">  1       -1 0.88030213E-01 0.11974199E+04</pdfrwt>
<totfact> 0.40399840E+01</totfact>
</mgrwt>
</event>
<event>
 6    1  0.1014650E-006  0.1708470E+04  0.7818608E-02  0.8756548E-01
          2   -1    0    0  501    0  0.00000000000E+00  0.00000000000E+00  0.26795903119E+04  0.26795903119E+04  0.00000000000E+00 0. -1.
         -2   -1    0    0    0  501 -0.00000000000E+00 -0.00000000000E+00 -0.27232427246E+03  0.27232427246E+03  0.00000000000E+00 0.  1.
         23    2    1    2    0    0  0.72001109375E+03 -0.24685854098E+03  0.18679328094E+04  0.20190504746E+04  0.89647777181E+02 0.  0.
         13    1    3    3    0    0  0.58525313721E+03 -0.21230456116E+03  0.16063404560E+04  0.17227664154E+04  0.00000000000E+00 0. -1.
        -13    1    3    3    0    0  0.13475795653E+03 -0.34553979820E+02  0.26159235342E+03  0.29628405920E+03  0.00000000000E+00 0.  1.
         22    1    1    2    0    0 -0.72001109375E+03  0.24685854098E+03  0.53933323004E+03  0.93286410983E+03  0.00000000000E+00 0.  1.
<mgrwt>
<rscale>  0 0.17084701E+04</rscale>
<asrwt>0</asrwt>
<pdfrwt beam="1">  1        2 0.41224465E+00 0.17084701E+04</pdfrwt>
<pdfrwt beam="2">  1       -2 0.41896044E-01 0.17084701E+04</pdfrwt>
<totfact> 0.14055452E+01</totfact>
</mgrwt>
</event>
<event>
 6    1  0.1014650E-006  0.3931517E+04  0.7818608E-02  0.8018506E-01
         -1   -1    0    0    0  501 -0.00000000000E+00  0.00000000000E+00  0.14633287356E+04  0.14633287356E+04  0.00000000000E+00 0.  1.
          1   -1    0    0  501    0  0.00000000000E+00 -0.00000000000E+00 -0.26406963198E+04  0.26406963198E+04  0.00000000000E+00 0. -1.
         23    2    1    2    0    0 -0.38507957155E+03  0.18005014000E+04 -0.13046462111E+04  0.22584109526E+04  0.90701306430E+02 0.  0.
         11    1    3    3    0    0 -0.17312044990E+03  0.61866036033E+03 -0.47514026864E+03  0.79904293158E+03  0.00000000000E+00 0. -1.
        -11    1    3    3    0    0 -0.21195912165E+03  0.11818410396E+04 -0.82950594251E+03  0.14593680211E+04  0.00000000000E+00 0.  1.
         22    1    1    2    0    0  0.38507957155E+03 -0.18005014000E+04  0.12727862693E+03  0.18456141028E+04  0.00000000000E+00 0.  1.
<mgrwt>
<rscale>  0 0.39315172E+04</rscale>
<asrwt>0</asrwt>
<pdfrwt beam="1">  1        1 0.40626097E+00 0.39315172E+04</pdfrwt>
<pdfrwt beam="2">  1       -1 0.22512750E+00 0.39315172E+04</pdfrwt>
<totfact> 0.86473898E-02</totfact>
</mgrwt>
</event>
<event>
 6    1  0.1014650E-006  0.3279922E+04  0.7818608E-02  0.8168023E-01
         -2   -1    0    0    0  501 -0.00000000000E+00  0.00000000000E+00  0.77886840614E+03  0.77886840614E+03  0.00000000000E+00 0.  1.
          2   -1    0    0  501    0  0.00000000000E+00 -0.00000000000E+00 -0.34530499707E+04  0.34530499707E+04  0.00000000000E+00 0. -1.
         23    2    1    2    0    0 -0.16108674767E+04  0.29447168978E+03 -0.14168357768E+04  0.21673297898E+04  0.91034036106E+02 0.  0.
         13    1    3    3    0    0 -0.51093159003E+03  0.12927937453E+03 -0.42443226200E+03  0.67668825274E+03  0.00000000000E+00 0. -1.
        -13    1    3    3    0    0 -0.10999358867E+04  0.16519231525E+03 -0.99240351476E+03  0.14906415370E+04  0.00000000000E+00 0.  1.
         22    1    1    2    0    0  0.16108674767E+04 -0.29447168978E+03 -0.12573457878E+04  0.20645885870E+04  0.00000000000E+00 0. -1.
<mgrwt>
<rscale>  0 0.32799217E+04</rscale>
<asrwt>0</asrwt>
<pdfrwt beam="1">  1        2 0.53123845E+00 0.32799217E+04</pdfrwt>
<pdfrwt beam="2">  1       -2 0.11982591E+00 0.32799217E+04</pdfrwt>
<totfact> 0.39027522E-01</totfact>
</mgrwt>
</event>
<event>
 6    1  0.1014650E-006  0.1600065E+04  0.7818608E-02  0.8820508E-01
          1   -1    0    0  501    0  0.00000000000E+00  0.00000000000E+00  0.10666577021E+04  0.10666577021E+04  0.00000000000E+00 0. -1.
         -1   -1    0    0    0  501 -0.00000000000E+00 -0.00000000000E+00 -0.60005415566E+03  0.60005415566E+03  0.00000000000E+00 0.  1.
         23    2    1    2    0    0  0.68403975603E+03  0.24279034641E+03  0.57795153740E+03  0.93237139496E+03  0.91819923854E+02 0.  0.
         13    1    3    3    0    0  0.16460089217E+03  0.47522112115E+02  0.18663415151E+03  0.25334583350E+03  0.00000000000E+00 0. -1.
        -13    1    3    3    0    0  0.51943886386E+03  0.19526823430E+03  0.39131738589E+03  0.67902556146E+03  0.00000000000E+00 0.  1.
         22    1    1    2    0    0 -0.68403975603E+03 -0.24279034641E+03 -0.11134799101E+03  0.73434046275E+03  0.00000000000E+00 0.  1.
<mgrwt>
<rscale>  0 0.16000655E+04</rscale>
<asrwt>0</asrwt>
<pdfrwt beam="1">  1        1 0.16410119E+00 0.16000655E+04</pdfrwt>
<pdfrwt beam="2">  1       -1 0.92316024E-01 0.16000655E+04</pdfrwt>
<totfact> 0.14725249E+01</totfact>
</mgrwt>
</event>
<event>
 6    1  0.1014650E-006  0.4124588E+04  0.7818608E-02  0.7979874E-01
          1   -1    0    0  501    0  0.00000000000E+00  0.00000000000E+00  0.24204852199E+04  0.24204852199E+04  0.00000000000E+00 0. -1.
         -1   -1    0    0    0  501 -0.00000000000E+00 -0.00000000000E+00 -0.17571093823E+04  0.17571093823E+04  0.00000000000E+00 0.  1.
         23    2    1    2    0    0 -0.89705405910E+03 -0.53269580184E+03 -0.14688099100E+04  0.18038450651E+04  0.89351355464E+02 0.  0.
         11    1    3    3    0    0 -0.30963248780E+03 -0.22085627810E+03 -0.48521550303E+03  0.61650941392E+03  0.00000000000E+00 0.  1.
        -11    1    3    3    0    0 -0.58742157131E+03 -0.31183952374E+03 -0.98359440701E+03  0.11873356512E+04  0.00000000000E+00 0. -1.
         22    1    1    2    0    0  0.89705405910E+03  0.53269580184E+03  0.21321857477E+04  0.23737495371E+04  0.00000000000E+00 0. -1.
<mgrwt>
<rscale>  0 0.41245884E+04</rscale>
<asrwt>0</asrwt>
<pdfrwt beam="1">  1        1 0.37238234E+00 0.41245884E+04</pdfrwt>
<pdfrwt beam="2">  1       -1 0.27032452E+00 0.41245884E+04</pdfrwt>
<totfact> 0.61264028E-02</totfact>
</mgrwt>
</event>
<event>
 6    1  0.1014650E-006  0.1754096E+04  0.7818608E-02  0.8731099E-01
          2   -1    0    0  501    0  0.00000000000E+00  0.00000000000E+00  0.25227964277E+04  0.25227964277E+04  0.00000000000E+00 0. -1.
         -2   -1    0    0    0  501 -0.00000000000E+00 -0.00000000000E+00 -0.30490485856E+03  0.30490485856E+03  0.00000000000E+00 0.  1.
         23    2    1    2    0    0  0.31958136637E+03 -0.79792031984E+03  0.85041017424E+03  0.12125188037E+04  0.90527887149E+02 0.  0.
         13    1    3    3    0    0  0.83166891729E+02 -0.30747478042E+03  0.28192431697E+03  0.42536900801E+03  0.00000000000E+00 0.  1.
        -13    1    3    3    0    0  0.23641447464E+03 -0.49044553942E+03  0.56848585727E+03  0.78714979570E+03  0.00000000000E+00 0. -1.
         22    1    1    2    0    0 -0.31958136637E+03  0.79792031984E+03  0.13674813949E+04  0.16151824826E+04  0.00000000000E+00 0.  1.
<mgrwt>
<rscale>  0 0.17540957E+04</rscale>
<asrwt>0</asrwt>
<pdfrwt beam="1">  1        2 0.38812251E+00 0.17540957E+04</pdfrwt>
<pdfrwt beam="2">  1       -2 0.46908442E-01 0.17540957E+04</pdfrwt>
<totfact> 0.13803034E+01</totfact>
</mgrwt>
</event>
<event>
 6    1  0.1014650E-006  0.9967184E+03  0.7818608E-02  0.9312151E-01
         -2   -1    0    0    0  501 -0.00000000000E+00  0.00000000000E+00  0.34567177286E+03  0.34567177286E+03  0.00000000000E+00 0.  1.
          2   -1    0    0  501    0  0.00000000000E+00 -0.00000000000E+00 -0.71849045171E+03  0.71849045171E+03  0.00000000000E+00 0. -1.
         23    2    1    2    0    0  0.22616175308E+02 -0.45672072753E+03 -0.38823905543E+03  0.60662195055E+03  0.90306768212E+02 0.  0.
         11    1    3    3    0    0  0.22436442536E+01 -0.12831425485E+03 -0.59334901429E+02  0.14138674784E+03  0.00000000000E+00 0. -1.
        -11    1    3    3    0    0  0.20372531055E+02 -0.32840647268E+03 -0.32890415400E+03  0.46523520270E+03  0.00000000000E+00 0.  1.
         22    1    1    2    0    0 -0.22616175308E+02  0.45672072753E+03  0.15420376571E+02  0.45754027403E+03  0.00000000000E+00 0.  1.
<mgrwt>
<rscale>  0 0.99671835E+03</rscale>
<asrwt>0</asrwt>
<pdfrwt beam="1">  1        2 0.11053699E+00 0.99671835E+03</pdfrwt>
<pdfrwt beam="2">  1       -2 0.53180274E-01 0.99671835E+03</pdfrwt>
<totfact> 0.13197296E+02</totfact>
</mgrwt>
</event>
<event>
 6    1  0.1014650E-006  0.9326617E+03  0.7818608E-02  0.9385649E-01
          2   -1    0    0  501    0  0.00000000000E+00  0.00000000000E+00  0.68809161513E+03  0.68809161513E+03  0.00000000000E+00 0. -1.
         -2   -1    0    0    0  501 -0.00000000000E+00 -0.00000000000E+00 -0.31603997411E+03  0.31603997411E+03  0.00000000000E+00 0.  1.
         23    2    1    2    0    0 -0.48935822617E+02  0.43406998433E+03  0.34945838802E+03  0.56672797573E+03  0.90818321344E+02 0.  0.
         13    1    3    3    0    0 -0.76033587083E+02  0.32476468927E+03  0.26098982133E+03  0.42351965315E+03  0.00000000000E+00 0. -1.
        -13    1    3    3    0    0  0.27097764465E+02  0.10930529505E+03  0.88468566684E+02  0.14320832258E+03  0.00000000000E+00 0.  1.
         22    1    1    2    0    0  0.48935822617E+02 -0.43406998433E+03  0.22593253010E+02  0.43740361351E+03  0.00000000000E+00 0.  1.
<mgrwt>
<rscale>  0 0.93266169E+03</rscale>
<asrwt>0</asrwt>
<pdfrwt beam="1">  1        2 0.10586025E+00 0.93266169E+03</pdfrwt>
<pdfrwt beam="2">  1       -2 0.48621535E-01 0.93266169E+03</pdfrwt>
<totfact> 0.16803004E+02</totfact>
</mgrwt>
</event>
<event>
 6    1  0.1014650E-006  0.1463205E+04  0.7818608E-02  0.8909297E-01
          2   -1    0    0  501    0  0.00000000000E+00  0.00000000000E+00  0.18249692309E+04  0.18249692309E+04  0.00000000000E+00 0. -1.
         -2   -1    0    0    0  501 -0.00000000000E+00 -0.00000000000E+00 -0.29328829348E+03  0.29328829348E+03  0.00000000000E+00 0.  1.
         23    2    1    2    0    0 -0.43235849908E+03  0.92894906688E+02  0.16073640339E+04  0.16696025718E+04  0.91598442462E+02 0.  0.
         13    1    3    3    0    0 -0.88699621385E+02  0.23619185691E+02  0.21483130842E+03  0.23361930537E+03  0.00000000000E+00 0. -1.
        -13    1    3    3    0    0 -0.34365887770E+03  0.69275720997E+02  0.13925327255E+04  0.14359832664E+04  0.00000000000E+00 0.  1.
         22    1    1    2    0    0  0.43235849908E+03 -0.92894906688E+02 -0.75683096499E+02  0.44865495262E+03  0.00000000000E+00 0.  1.
<mgrwt>
<rscale>  0 0.14632049E+04</rscale>
<asrwt>0</asrwt>
<pdfrwt beam="1">  1        2 0.28076449E+00 0.14632049E+04</pdfrwt>
<pdfrwt beam="2">  1       -2 0.45121277E-01 0.14632049E+04</pdfrwt>
<totfact> 0.37718523E+01</totfact>
</mgrwt>
</event>
<event>
 6    1  0.1014650E-006  0.2246537E+04  0.7818608E-02  0.8499304E-01
          1   -1    0    0  501    0  0.00000000000E+00  0.00000000000E+00  0.10133427534E+04  0.10133427534E+04  0.00000000000E+00 0. -1.
         -1   -1    0    0    0  501 -0.00000000000E+00 -0.00000000000E+00 -0.12451187777E+04  0.12451187777E+04  0.00000000000E+00 0.  1.
         23    2    1    2    0    0  0.56527128014E+03  0.63325026883E+02  0.85545430393E+03  0.10314279269E+04  0.92194485671E+02 0.  0.
         13    1    3    3    0    0  0.70162334205E+02 -0.20380651119E+02  0.89201256349E+02  0.11530389506E+03  0.00000000000E+00 0. -1.
        -13    1    3    3    0    0  0.49510894593E+03  0.83705678002E+02  0.76625304758E+03  0.91612403188E+03  0.00000000000E+00 0.  1.
         22    1    1    2    0    0 -0.56527128014E+03 -0.63325026883E+02 -0.10872303283E+04  0.12270336042E+04  0.00000000000E+00 0.  1.
<mgrwt>
<rscale>  0 0.22465370E+04</rscale>
<asrwt>0</asrwt>
<pdfrwt beam="1">  1        1 0.15589889E+00 0.22465370E+04</pdfrwt>
<pdfrwt beam="2">  1       -1 0.19155673E+00 0.22465370E+04</pdfrwt>
<totfact> 0.23113969E+00</totfact>
</mgrwt>
</event>
<event>
 6    1  0.1235242E-006  0.2854728E+04  0.7818608E-02  0.8286476E-01
         -3   -1    0    0    0  501 -0.00000000000E+00  0.00000000000E+00  0.10499764546E+04  0.10499764546E+04  0.00000000000E+00 0.  1.
          3   -1    0    0  501    0  0.00000000000E+00 -0.00000000000E+00 -0.19403945284E+04  0.19403945284E+04  0.00000000000E+00 0. -1.
         23    2    1    2    0    0 -0.11373467260E+04 -0.51941792933E+03 -0.11638612447E+04  0.17104789062E+04  0.88388523693E+02 0.  0.
         13    1    3    3    0    0 -0.39374585846E+03 -0.13658912543E+03 -0.36852794640E+03  0.55633194904E+03  0.00000000000E+00 0. -1.
        -13    1    3    3    0    0 -0.74360086755E+03 -0.38282880390E+03 -0.79533329832E+03  0.11541469572E+04  0.00000000000E+00 0.  1.
         22    1    1    2    0    0  0.11373467260E+04  0.51941792933E+03  0.27344317095E+03  0.12798920768E+04  0.00000000000E+00 0.  1.
<mgrwt>
<rscale>  0 0.28547284E+04</rscale>
<asrwt>0</asrwt>
<pdfrwt beam="1">  1        3 0.29852223E+00 0.28547284E+04</pdfrwt>
<pdfrwt beam="2">  1       -3 0.16153484E+00 0.28547284E+04</pdfrwt>
<totfact> 0.23536080E-02</totfact>
</mgrwt>
</event>
<event>
 6    1  0.1014650E-006  0.1190263E+04  0.7818608E-02  0.9121422E-01
          2   -1    0    0  501    0  0.00000000000E+00  0.00000000000E+00  0.46101247806E+03  0.46101247806E+03  0.00000000000E+00 0. -1.
         -2   -1    0    0    0  501 -0.00000000000E+00 -0.00000000000E+00 -0.76826919912E+03  0.76826919912E+03  0.00000000000E+00 0.  1.
         23    2    1    2    0    0  0.23894471897E+03  0.53146485416E+03 -0.49143970804E+02  0.59196569450E+03  0.91971645965E+02 0.  0.
         13    1    3    3    0    0  0.11732113460E+03  0.28300066544E+03 -0.70979655315E+02  0.31447056576E+03  0.00000000000E+00 0.  1.
        -13    1    3    3    0    0  0.12162358438E+03  0.24846418872E+03  0.21835684510E+02  0.27749512874E+03  0.00000000000E+00 0. -1.
         22    1    1    2    0    0 -0.23894471897E+03 -0.53146485416E+03 -0.25811275026E+03  0.63731598268E+03  0.00000000000E+00 0. -1.
<mgrwt>
<rscale>  0 0.11902633E+04</rscale>
<asrwt>0</asrwt>
<pdfrwt beam="1">  1        2 0.70924997E-01 0.11902633E+04</pdfrwt>
<pdfrwt beam="2">  1       -2 0.11819526E+00 0.11902633E+04</pdfrwt>
<totfact> 0.36813650E+01</totfact>
</mgrwt>
</event>
<event>
 6    1  0.1014650E-006  0.3571073E+04  0.7818608E-02  0.8097150E-01
         -2   -1    0    0    0  501 -0.00000000000E+00  0.00000000000E+00  0.10270456233E+04  0.10270456233E+04  0.00000000000E+00 0.  1.
          2   -1    0    0  501    0  0.00000000000E+00 -0.00000000000E+00 -0.31041856285E+04  0.31041856285E+04  0.00000000000E+00 0. -1.
         23    2    1    2    0    0  0.10116785795E+04 -0.12440460069E+04 -0.13353644318E+03  0.16115608722E+04  0.90290906886E+02 0.  0.
         11    1    3    3    0    0  0.92651433716E+03 -0.11751434512E+04 -0.12603072783E+03  0.15017572015E+04  0.00000000000E+00 0. -1.
        -11    1    3    3    0    0  0.85164242317E+02 -0.68902555712E+02 -0.75057153538E+01  0.10980367078E+03  0.00000000000E+00 0.  1.
         22    1    1    2    0    0 -0.10116785795E+04  0.12440460069E+04 -0.19436035621E+04  0.25196703796E+04  0.00000000000E+00 0. -1.
<mgrwt>
<rscale>  0 0.35710728E+04</rscale>
<asrwt>0</asrwt>
<pdfrwt beam="1">  1        2 0.47756701E+00 0.35710728E+04</pdfrwt>
<pdfrwt beam="2">  1       -2 0.15800702E+00 0.35710728E+04</pdfrwt>
<totfact> 0.31816715E-01</totfact>
</mgrwt>
</event>
<event>
 6    1  0.1014650E-006  0.3088673E+04  0.7818608E-02  0.8218854E-01
          4   -1    0    0  501    0  0.00000000000E+00  0.00000000000E+00  0.10501417591E+04  0.10501417591E+04  0.00000000000E+00 0. -1.
         -4   -1    0    0    0  501 -0.00000000000E+00 -0.00000000000E+00 -0.22710976718E+04  0.22710976718E+04  0.00000000000E+00 0.  1.
         23    2    1    2    0    0  0.87458733414E+03 -0.67955592064E+03  0.54410413764E+03  0.12374601154E+04  0.92514703396E+02 0.  0.
         11    1    3    3    0    0  0.15543435942E+03 -0.14846021914E+03  0.13887231693E+03  0.25590192880E+03  0.00000000000E+00 0.  1.
        -11    1    3    3    0    0  0.71915297472E+03 -0.53109570150E+03  0.40523182071E+03  0.98155818662E+03  0.00000000000E+00 0. -1.
         22    1    1    2    0    0 -0.87458733414E+03  0.67955592064E+03 -0.17650600503E+04  0.20837793154E+04  0.00000000000E+00 0.  1.
<mgrwt>
<rscale>  0 0.30886725E+04</rscale>
<asrwt>0</asrwt>
<pdfrwt beam="1">  1        4 0.16156027E+00 0.30886725E+04</pdfrwt>
<pdfrwt beam="2">  1       -4 0.34939964E+00 0.30886725E+04</pdfrwt>
<totfact> 0.61395632E-03</totfact>
</mgrwt>
</event>
<event>
 6    1  0.1014650E-006  0.2057310E+04  0.7818608E-02  0.8580286E-01
         -1   -1    0    0    0  501 -0.00000000000E+00  0.00000000000E+00  0.68404408894E+03  0.68404408894E+03  0.00000000000E+00 0.  1.
          1   -1    0    0  501    0  0.00000000000E+00 -0.00000000000E+00 -0.15468751042E+04  0.15468751042E+04  0.00000000000E+00 0. -1.
         23    2    1    2    0    0 -0.87973055655E+03 -0.49467330164E+03 -0.22847030884E+03  0.10388449365E+04  0.91501871817E+02 0.  0.
         13    1    3    3    0    0 -0.23608865766E+03 -0.12559257402E+03 -0.10189856616E+03  0.28617244226E+03  0.00000000000E+00 0. -1.
        -13    1    3    3    0    0 -0.64364189889E+03 -0.36908072763E+03 -0.12657174268E+03  0.75267249422E+03  0.00000000000E+00 0.  1.
         22    1    1    2    0    0  0.87973055655E+03  0.49467330164E+03 -0.63436070639E+03  0.11920742566E+04  0.00000000000E+00 0. -1.
<mgrwt>
<rscale>  0 0.20573097E+04</rscale>
<asrwt>0</asrwt>
<pdfrwt beam="1">  1        1 0.23798078E+00 0.20573097E+04</pdfrwt>
<pdfrwt beam="2">  1       -1 0.10523755E+00 0.20573097E+04</pdfrwt>
<totfact> 0.47455094E+00</totfact>
</mgrwt>
</event>
<event>
 6    1  0.1014650E-006  0.2157885E+04  0.7818608E-02  0.8536165E-01
          2   -1    0    0  501    0  0.00000000000E+00  0.00000000000E+00  0.12033642157E+04  0.12033642157E+04  0.00000000000E+00 0. -1.
         -2   -1    0    0    0  501 -0.00000000000E+00 -0.00000000000E+00 -0.96738497445E+03  0.96738497445E+03  0.00000000000E+00 0.  1.
         23    2    1    2    0    0  0.58676279646E+03  0.81616255853E+03  0.50716744343E+03  0.11296176219E+04  0.91680177123E+02 0.  0.
         13    1    3    3    0    0  0.44352643589E+03  0.67503016632E+03  0.39061130960E+03  0.89719486176E+03  0.00000000000E+00 0.  1.
        -13    1    3    3    0    0  0.14323636057E+03  0.14113239221E+03  0.11655613382E+03  0.23242276019E+03  0.00000000000E+00 0. -1.
         22    1    1    2    0    0 -0.58676279646E+03 -0.81616255853E+03 -0.27118820221E+03  0.10411315682E+04  0.00000000000E+00 0.  1.
<mgrwt>
<rscale>  0 0.21578846E+04</rscale>
<asrwt>0</asrwt>
<pdfrwt beam="1">  1        2 0.18513296E+00 0.21578846E+04</pdfrwt>
<pdfrwt beam="2">  1       -2 0.14882846E+00 0.21578846E+04</pdfrwt>
<totfact> 0.52903472E+00</totfact>
</mgrwt>
</event>
<event>
 6    1  0.1014650E-006  0.2143622E+04  0.7818608E-02  0.8542267E-01
          2   -1    0    0  501    0  0.00000000000E+00  0.00000000000E+00  0.23631734285E+04  0.23631734285E+04  0.00000000000E+00 0. -1.
         -2   -1    0    0    0  501 -0.00000000000E+00 -0.00000000000E+00 -0.48611717221E+03  0.48611717221E+03  0.00000000000E+00 0.  1.
         23    2    1    2    0    0  0.32504601738E+03 -0.80421865198E+02  0.22909034475E+04  0.23169447662E+04  0.88723469145E+02 0.  0.
         11    1    3    3    0    0  0.15759219644E+03 -0.80052222504E+02  0.10460362650E+04  0.10608654610E+04  0.00000000000E+00 0. -1.
        -11    1    3    3    0    0  0.16745382095E+03 -0.36964269320E+00  0.12448671825E+04  0.12560793052E+04  0.00000000000E+00 0.  1.
         22    1    1    2    0    0 -0.32504601738E+03  0.80421865198E+02 -0.41384719123E+03  0.53234583450E+03  0.00000000000E+00 0.  1.
<mgrwt>
<rscale>  0 0.21436223E+04</rscale>
<asrwt>0</asrwt>
<pdfrwt beam="1">  1        2 0.36356514E+00 0.21436223E+04</pdfrwt>
<pdfrwt beam="2">  1       -2 0.74787259E-01 0.21436223E+04</pdfrwt>
<totfact> 0.61580610E+00</totfact>
</mgrwt>
</event>
<event>
 6    1  0.1014650E-006  0.1875739E+04  0.7818608E-02  0.8667028E-01
          2   -1    0    0  501    0  0.00000000000E+00  0.00000000000E+00  0.13967977065E+04  0.13967977065E+04  0.00000000000E+00 0. -1.
         -2   -1    0    0    0  501 -0.00000000000E+00 -0.00000000000E+00 -0.62972527439E+03  0.62972527439E+03  0.00000000000E+00 0.  1.
         23    2    1    2    0    0 -0.59713155497E+03  0.37394260048E+03 -0.28059385052E+03  0.76398434695E+03  0.92412180174E+02 0.  0.
         11    1    3    3    0    0 -0.15471880555E+03  0.51230956564E+02 -0.63147945768E+02  0.17478610573E+03  0.00000000000E+00 0.  1.
        -11    1    3    3    0    0 -0.44241274943E+03  0.32271164391E+03 -0.21744590475E+03  0.58919824123E+03  0.00000000000E+00 0. -1.
         22    1    1    2    0    0  0.59713155497E+03 -0.37394260048E+03  0.10476662826E+04  0.12625386339E+04  0.00000000000E+00 0.  1.
<mgrwt>
<rscale>  0 0.18757386E+04</rscale>
<asrwt>0</asrwt>
<pdfrwt beam="1">  1        2 0.21489195E+00 0.18757386E+04</pdfrwt>
<pdfrwt beam="2">  1       -2 0.96880812E-01 0.18757386E+04</pdfrwt>
<totfact> 0.12139823E+01</totfact>
</mgrwt>
</event>
<event>
 6    1  0.1014650E-006  0.3117240E+04  0.7818608E-02  0.8211022E-01
          1   -1    0    0  501    0  0.00000000000E+00  0.00000000000E+00  0.17066041363E+04  0.17066041363E+04  0.00000000000E+00 0. -1.
         -1   -1    0    0    0  501 -0.00000000000E+00 -0.00000000000E+00 -0.14234677750E+04  0.14234677750E+04  0.00000000000E+00 0.  1.
         23    2    1    2    0    0  0.78501510143E+03  0.57530036548E+02  0.14908602515E+04  0.16884910397E+04  0.93697850245E+02 0.  0.
         11    1    3    3    0    0  0.36408052917E+03 -0.19888960516E+02  0.69613414732E+03  0.78584537508E+03  0.00000000000E+00 0.  1.
        -11    1    3    3    0    0  0.42093457227E+03  0.77418997064E+02  0.79472610415E+03  0.90264566462E+03  0.00000000000E+00 0. -1.
         22    1    1    2    0    0 -0.78501510143E+03 -0.57530036548E+02 -0.12077238901E+04  0.14415808716E+04  0.00000000000E+00 0.  1.
<mgrwt>
<rscale>  0 0.31172398E+04</rscale>
<asrwt>0</asrwt>
<pdfrwt beam="1">  1        1 0.26255448E+00 0.31172398E+04</pdfrwt>
<pdfrwt beam="2">  1       -1 0.21899504E+00 0.31172398E+04</pdfrwt>
<totfact> 0.44423964E-01</totfact>
</mgrwt>
</event>
<event>
 6    1  0.1014650E-006  0.1507121E+04  0.7818608E-02  0.8879732E-01
          1   -1    0    0  501    0  0.00000000000E+00  0.00000000000E+00  0.26607351746E+04  0.26607351746E+04  0.00000000000E+00 0. -1.
         -1   -1    0    0    0  501 -0.00000000000E+00 -0.00000000000E+00 -0.21341964968E+03  0.21341964968E+03  0.00000000000E+00 0.  1.
         23    2    1    2    0    0 -0.29828252268E+03  0.63337483245E+03  0.17452765727E+04  0.18826938658E+04  0.91704609818E+02 0.  0.
         13    1    3    3    0    0 -0.17246084084E+03  0.32593650422E+03  0.10306994171E+04  0.10946774113E+04  0.00000000000E+00 0. -1.
        -13    1    3    3    0    0 -0.12582168184E+03  0.30743832823E+03  0.71457715565E+03  0.78801645457E+03  0.00000000000E+00 0.  1.
         22    1    1    2    0    0  0.29828252268E+03 -0.63337483245E+03  0.70203895225E+03  0.99146095848E+03  0.00000000000E+00 0.  1.
<mgrwt>
<rscale>  0 0.15071207E+04</rscale>
<asrwt>0</asrwt>
<pdfrwt beam="1">  1        1 0.40934385E+00 0.15071207E+04</pdfrwt>
<pdfrwt beam="2">  1       -1 0.32833794E-01 0.15071207E+04</pdfrwt>
<totfact> 0.88274583E+00</totfact>
</mgrwt>
</event>
<event>
 6    1  0.1014650E-006  0.2365540E+04  0.7818608E-02  0.8452519E-01
         -1   -1    0    0    0  501 -0.00000000000E+00  0.00000000000E+00  0.59891085594E+03  0.59891085594E+03  0.00000000000E+00 0.  1.
          1   -1    0    0  501    0  0.00000000000E+00 -0.00000000000E+00 -0.23358154817E+04  0.23358154817E+04  0.00000000000E+00 0. -1.
         23    2    1    2    0    0  0.76574826661E+03 -0.89047008077E+03 -0.71485465258E+03  0.13778404972E+04  0.90110425282E+02 0.  0.
         13    1    3    3    0    0  0.37753531613E+03 -0.37485695547E+03 -0.30415044065E+03  0.61282798772E+03  0.00000000000E+00 0. -1.
        -13    1    3    3    0    0  0.38821295048E+03 -0.51561312530E+03 -0.41070421194E+03  0.76501250945E+03  0.00000000000E+00 0.  1.
         22    1    1    2    0    0 -0.76574826661E+03  0.89047008077E+03 -0.10220499731E+04  0.15568858404E+04  0.00000000000E+00 0.  1.
<mgrwt>
<rscale>  0 0.23655403E+04</rscale>
<asrwt>0</asrwt>
<pdfrwt beam="1">  1        1 0.35935623E+00 0.23655403E+04</pdfrwt>
<pdfrwt beam="2">  1       -1 0.92140131E-01 0.23655403E+04</pdfrwt>
<totfact> 0.18120402E+00</totfact>
</mgrwt>
</event>
<event>
 6    1  0.1014650E-006  0.9198114E+03  0.7818608E-02  0.9401150E-01
          1   -1    0    0  501    0  0.00000000000E+00  0.00000000000E+00  0.16674250541E+03  0.16674250541E+03  0.00000000000E+00 0. -1.
         -1   -1    0    0    0  501 -0.00000000000E+00 -0.00000000000E+00 -0.12685022619E+04  0.12685022619E+04  0.00000000000E+00 0.  1.
         23    2    1    2    0    0  0.31373130985E+03 -0.18814063317E+03 -0.97961296349E+03  0.10495712374E+04  0.90188644152E+02 0.  0.
         11    1    3    3    0    0  0.22492129173E+03 -0.86094938475E+02 -0.59702948345E+03  0.64377490633E+03  0.00000000000E+00 0.  1.
        -11    1    3    3    0    0  0.88810018122E+02 -0.10204569469E+03 -0.38258348004E+03  0.40579633108E+03  0.00000000000E+00 0. -1.
         22    1    1    2    0    0 -0.31373130985E+03  0.18814063317E+03 -0.12214679303E+03  0.38567352992E+03  0.00000000000E+00 0. -1.
<mgrwt>
<rscale>  0 0.91981138E+03</rscale>
<asrwt>0</asrwt>
<pdfrwt beam="1">  1        1 0.25652693E-01 0.91981138E+03</pdfrwt>
<pdfrwt beam="2">  1       -1 0.19515420E+00 0.91981138E+03</pdfrwt>
<totfact> 0.31009287E+01</totfact>
</mgrwt>
</event>
<event>
 6    1  0.1014650E-006  0.2665022E+04  0.7818608E-02  0.8346444E-01
          2   -1    0    0  501    0  0.00000000000E+00  0.00000000000E+00  0.43215059566E+03  0.43215059566E+03  0.00000000000E+00 0. -1.
         -2   -1    0    0    0  501 -0.00000000000E+00 -0.00000000000E+00 -0.41087190728E+04  0.41087190728E+04  0.00000000000E+00 0.  1.
         23    2    1    2    0    0  0.31808164605E+03  0.89450636985E+03 -0.34297991227E+04  0.35599452608E+04  0.91491302646E+02 0.  0.
         11    1    3    3    0    0  0.13346964288E+03  0.25527635235E+03 -0.99196086111E+03  0.10329407106E+04  0.00000000000E+00 0. -1.
        -11    1    3    3    0    0  0.18461200316E+03  0.63923001750E+03 -0.24378382616E+04  0.25270045502E+04  0.00000000000E+00 0.  1.
         22    1    1    2    0    0 -0.31808164605E+03 -0.89450636985E+03 -0.24676935442E+03  0.98092440766E+03  0.00000000000E+00 0. -1.
<mgrwt>
<rscale>  0 0.26650219E+04</rscale>
<asrwt>0</asrwt>
<pdfrwt beam="1">  1        2 0.66484706E-01 0.26650219E+04</pdfrwt>
<pdfrwt beam="2">  1       -2 0.63211063E+00 0.26650219E+04</pdfrwt>
<totfact> 0.24378384E-02</totfact>
</mgrwt>
</event>
<event>
 6    1  0.1014650E-006  0.5062819E+04  0.7818608E-02  0.7818889E-01
          1   -1    0    0  501    0  0.00000000000E+00  0.00000000000E+00  0.37946458713E+04  0.37946458713E+04  0.00000000000E+00 0. -1.
         -1   -1    0    0    0  501 -0.00000000000E+00 -0.00000000000E+00 -0.16887041751E+04  0.16887041751E+04  0.00000000000E+00 0.  1.
         23    2    1    2    0    0 -0.11680538479E+04  0.19934969259E+04  0.21707176327E+04  0.31719488031E+04  0.10423235277E+03 0.  0.
         11    1    3    3    0    0 -0.21235448041E+03  0.29151904976E+03  0.32227442733E+03  0.48367198413E+03  0.00000000000E+00 0.  1.
        -11    1    3    3    0    0 -0.95569936754E+03  0.17019778762E+04  0.18484432054E+04  0.26882768190E+04  0.00000000000E+00 0. -1.
         22    1    1    2    0    0  0.11680538479E+04 -0.19934969259E+04 -0.64775936471E+02  0.23114012433E+04  0.00000000000E+00 0.  1.
<mgrwt>
<rscale>  0 0.50628191E+04</rscale>
<asrwt>0</asrwt>
<pdfrwt beam="1">  1        1 0.58379167E+00 0.50628191E+04</pdfrwt>
<pdfrwt beam="2">  1       -1 0.25980064E+00 0.50628191E+04</pdfrwt>
<totfact> 0.62113799E-03</totfact>
</mgrwt>
</event>
<event>
 6    1  0.1014650E-006  0.1243075E+04  0.7818608E-02  0.9075966E-01
          2   -1    0    0  501    0  0.00000000000E+00  0.00000000000E+00  0.15102069618E+04  0.15102069618E+04  0.00000000000E+00 0. -1.
         -2   -1    0    0    0  501 -0.00000000000E+00 -0.00000000000E+00 -0.25579882274E+03  0.25579882274E+03  0.00000000000E+00 0.  1.
         23    2    1    2    0    0  0.40876301566E+03  0.42330398343E+03  0.36219090052E+03  0.69720970197E+03  0.92982012991E+02 0.  0.
         13    1    3    3    0    0  0.16621166881E+01  0.25831952926E+02  0.83632981305E+01  0.27202889175E+02  0.00000000000E+00 0.  1.
        -13    1    3    3    0    0  0.40710089897E+03  0.39747203051E+03  0.35382760239E+03  0.67000681279E+03  0.00000000000E+00 0. -1.
         22    1    1    2    0    0 -0.40876301566E+03 -0.42330398343E+03  0.89221723858E+03  0.10687960826E+04  0.00000000000E+00 0. -1.
<mgrwt>
<rscale>  0 0.12430755E+04</rscale>
<asrwt>0</asrwt>
<pdfrwt beam="1">  1        2 0.23233953E+00 0.12430755E+04</pdfrwt>
<pdfrwt beam="2">  1       -2 0.39353666E-01 0.12430755E+04</pdfrwt>
<totfact> 0.75222081E+01</totfact>
</mgrwt>
</event>
<event>
 6    1  0.1237164E-006  0.2905466E+04  0.7818608E-02  0.8271253E-01
          1   -1    0    0  501    0  0.00000000000E+00  0.00000000000E+00  0.21248030054E+04  0.21248030054E+04  0.00000000000E+00 0. -1.
         -1   -1    0    0    0  501 -0.00000000000E+00 -0.00000000000E+00 -0.99323696264E+03  0.99323696264E+03  0.00000000000E+00 0.  1.
         23    2    1    2    0    0  0.10199257009E+04 -0.88459513829E+03 -0.55457434066E+01  0.13528826923E+04  0.86624648850E+02 0.  0.
         13    1    3    3    0    0  0.45069868510E+03 -0.38732627698E+03 -0.45360359088E+02  0.59599371789E+03  0.00000000000E+00 0. -1.
        -13    1    3    3    0    0  0.56922701576E+03 -0.49726886131E+03  0.39814615682E+02  0.75688897437E+03  0.00000000000E+00 0.  1.
         22    1    1    2    0    0 -0.10199257009E+04  0.88459513829E+03  0.11371117862E+04  0.17651572758E+04  0.00000000000E+00 0. -1.
<mgrwt>
<rscale>  0 0.29054658E+04</rscale>
<asrwt>0</asrwt>
<pdfrwt beam="1">  1        1 0.32689277E+00 0.29054658E+04</pdfrwt>
<pdfrwt beam="2">  1       -1 0.15280569E+00 0.29054658E+04</pdfrwt>
<totfact> 0.69773641E-01</totfact>
</mgrwt>
</event>
<event>
 6    1  0.1014650E-006  0.2904072E+04  0.7818608E-02  0.8271667E-01
         -1   -1    0    0    0  501 -0.00000000000E+00  0.00000000000E+00  0.17072792672E+04  0.17072792672E+04  0.00000000000E+00 0.  1.
          1   -1    0    0  501    0  0.00000000000E+00 -0.00000000000E+00 -0.12349525178E+04  0.12349525178E+04  0.00000000000E+00 0. -1.
         23    2    1    2    0    0 -0.10629990653E+04  0.57288317285E+03  0.10502033044E+04  0.16035371016E+04  0.10120332568E+03 0.  0.
         11    1    3    3    0    0 -0.53147708979E+03  0.29524397176E+03  0.59485848113E+03  0.85058421829E+03  0.00000000000E+00 0.  1.
        -11    1    3    3    0    0 -0.53152197549E+03  0.27763920109E+03  0.45534482325E+03  0.75295288330E+03  0.00000000000E+00 0. -1.
         22    1    1    2    0    0  0.10629990653E+04 -0.57288317285E+03 -0.57787655506E+03  0.13386946834E+04  0.00000000000E+00 0. -1.
<mgrwt>
<rscale>  0 0.29040722E+04</rscale>
<asrwt>0</asrwt>
<pdfrwt beam="1">  1        1 0.18999270E+00 0.29040722E+04</pdfrwt>
<pdfrwt beam="2">  1       -1 0.26265835E+00 0.29040722E+04</pdfrwt>
<totfact> 0.49854320E-01</totfact>
</mgrwt>
</event>
<event>
 6    1  0.1014650E-006  0.1427262E+04  0.7818608E-02  0.8934318E-01
         -2   -1    0    0    0  501 -0.00000000000E+00  0.00000000000E+00  0.31268519892E+03  0.31268519892E+03  0.00000000000E+00 0.  1.
          2   -1    0    0  501    0  0.00000000000E+00 -0.00000000000E+00 -0.16286968989E+04  0.16286968989E+04  0.00000000000E+00 0. -1.
         23    2    1    2    0    0 -0.61906776365E+03 -0.34205515917E+03 -0.56554068537E+03  0.91014334192E+03  0.90983559634E+02 0.  0.
         11    1    3    3    0    0 -0.98720463365E+02 -0.83121615592E+02 -0.72800348013E+02  0.14817160165E+03  0.00000000000E+00 0. -1.
        -11    1    3    3    0    0 -0.52034730029E+03 -0.25893354358E+03 -0.49274033736E+03  0.76197174027E+03  0.00000000000E+00 0.  1.
         22    1    1    2    0    0  0.61906776365E+03  0.34205515917E+03 -0.75047101463E+03  0.10312387559E+04  0.00000000000E+00 0.  1.
<mgrwt>
<rscale>  0 0.14272623E+04</rscale>
<asrwt>0</asrwt>
<pdfrwt beam="1">  1        2 0.25056875E+00 0.14272623E+04</pdfrwt>
<pdfrwt beam="2">  1       -2 0.48105416E-01 0.14272623E+04</pdfrwt>
<totfact> 0.42730922E+01</totfact>
</mgrwt>
</event>
<event>
 6    1  0.1014650E-006  0.4640581E+04  0.7818608E-02  0.7886477E-01
         -2   -1    0    0    0  501 -0.00000000000E+00  0.00000000000E+00  0.21345779812E+04  0.21345779812E+04  0.00000000000E+00 0.  1.
          2   -1    0    0  501    0  0.00000000000E+00 -0.00000000000E+00 -0.25221601038E+04  0.25221601038E+04  0.00000000000E+00 0. -1.
         23    2    1    2    0    0 -0.53702480465E+03 -0.18943489272E+04 -0.14239149560E+04  0.24316674702E+04  0.92300514934E+02 0.  0.
         11    1    3    3    0    0 -0.32808031766E+03 -0.12850468942E+04 -0.98994376577E+03  0.16549836478E+04  0.00000000000E+00 0.  1.
        -11    1    3    3    0    0 -0.20894448699E+03 -0.60930203296E+03 -0.43397119027E+03  0.77668382241E+03  0.00000000000E+00 0. -1.
         22    1    1    2    0    0  0.53702480465E+03  0.18943489272E+04  0.10363328334E+04  0.22250706147E+04  0.00000000000E+00 0.  1.
<mgrwt>
<rscale>  0 0.46405807E+04</rscale>
<asrwt>0</asrwt>
<pdfrwt beam="1">  1        2 0.38802463E+00 0.46405807E+04</pdfrwt>
<pdfrwt beam="2">  1       -2 0.32839661E+00 0.46405807E+04</pdfrwt>
<totfact> 0.53775435E-02</totfact>
</mgrwt>
</event>
<event>
 6    1  0.1014650E-006  0.6453331E+03  0.7818608E-02  0.9815576E-01
         -2   -1    0    0    0  501 -0.00000000000E+00  0.00000000000E+00  0.52512068207E+02  0.52512068207E+02  0.00000000000E+00 0.  1.
          2   -1    0    0  501    0  0.00000000000E+00 -0.00000000000E+00 -0.19826621743E+04  0.19826621743E+04  0.00000000000E+00 0. -1.
         23    2    1    2    0    0 -0.16291589589E+02 -0.18204648833E+02 -0.19786150210E+04  0.19809001869E+04  0.91931081571E+02 0.  0.
         11    1    3    3    0    0  0.65491353107E+01  0.35787259832E+02 -0.71076271216E+03  0.71169322895E+03  0.00000000000E+00 0. -1.
        -11    1    3    3    0    0 -0.22840724900E+02 -0.53991908665E+02 -0.12678523089E+04  0.12692069579E+04  0.00000000000E+00 0.  1.
         22    1    1    2    0    0  0.16291589589E+02  0.18204648833E+02  0.48464914962E+02  0.54274055614E+02  0.00000000000E+00 0.  1.
<mgrwt>
<rscale>  0 0.64533307E+03</rscale>
<asrwt>0</asrwt>
<pdfrwt beam="1">  1        2 0.30502501E+00 0.64533307E+03</pdfrwt>
<pdfrwt beam="2">  1       -2 0.80787782E-02 0.64533307E+03</pdfrwt>
<totfact> 0.68169067E+02</totfact>
</mgrwt>
</event>
<event>
 6    1  0.1014650E-006  0.4002181E+04  0.7818608E-02  0.8004107E-01
         -1   -1    0    0    0  501 -0.00000000000E+00  0.00000000000E+00  0.22014004256E+04  0.22014004256E+04  0.00000000000E+00 0.  1.
          1   -1    0    0  501    0  0.00000000000E+00 -0.00000000000E+00 -0.18190069626E+04  0.18190069626E+04  0.00000000000E+00 0. -1.
         23    2    1    2    0    0 -0.59135769329E+03 -0.14881915415E+04  0.13949734345E+04  0.21257474755E+04  0.91833877923E+02 0.  0.
         11    1    3    3    0    0 -0.17118865803E+03 -0.44159100731E+03  0.35817593207E+03  0.59379977491E+03  0.00000000000E+00 0. -1.
        -11    1    3    3    0    0 -0.42016903525E+03 -0.10466005342E+04  0.10367975024E+04  0.15319477006E+04  0.00000000000E+00 0.  1.
         22    1    1    2    0    0  0.59135769329E+03  0.14881915415E+04 -0.10125799715E+04  0.18946599126E+04  0.00000000000E+00 0.  1.
<mgrwt>
<rscale>  0 0.40021808E+04</rscale>
<asrwt>0</asrwt>
<pdfrwt beam="1">  1        1 0.27984722E+00 0.40021808E+04</pdfrwt>
<pdfrwt beam="2">  1       -1 0.33867699E+00 0.40021808E+04</pdfrwt>
<totfact> 0.57112160E-02</totfact>
</mgrwt>
</event>
<event>
 6    1  0.1014650E-006  0.1930398E+04  0.7818608E-02  0.8639872E-01
          1   -1    0    0  501    0  0.00000000000E+00  0.00000000000E+00  0.34768276128E+04  0.34768276128E+04  0.00000000000E+00 0. -1.
         -1   -1    0    0    0  501 -0.00000000000E+00 -0.00000000000E+00 -0.26794790317E+03  0.26794790317E+03  0.00000000000E+00 0.  1.
         23    2    1    2    0    0 -0.30585153187E+03 -0.62938857160E+03  0.32387472857E+03  0.77611775962E+03  0.88254197584E+02 0.  0.
         13    1    3    3    0    0 -0.12745552935E+03 -0.31365685352E+03  0.11467362662E+03  0.35745709444E+03  0.00000000000E+00 0.  1.
        -13    1    3    3    0    0 -0.17839600253E+03 -0.31573171808E+03  0.20920110195E+03  0.41866066519E+03  0.00000000000E+00 0. -1.
         22    1    1    2    0    0  0.30585153187E+03  0.62938857160E+03  0.28850049811E+04  0.29686577564E+04  0.00000000000E+00 0. -1.
<mgrwt>
<rscale>  0 0.19303975E+04</rscale>
<asrwt>0</asrwt>
<pdfrwt beam="1">  1        1 0.53489652E+00 0.19303975E+04</pdfrwt>
<pdfrwt beam="2">  1       -1 0.41222757E-01 0.19303975E+04</pdfrwt>
<totfact> 0.14085317E+00</totfact>
</mgrwt>
</event>
<event>
 6    1  0.1014650E-006  0.2843331E+04  0.7818608E-02  0.8289941E-01
         -2   -1    0    0    0  501 -0.00000000000E+00  0.00000000000E+00  0.24926234969E+04  0.24926234969E+04  0.00000000000E+00 0.  1.
          2   -1    0    0  501    0  0.00000000000E+00 -0.00000000000E+00 -0.81084542658E+03  0.81084542658E+03  0.00000000000E+00 0. -1.
         23    2    1    2    0    0  0.20622128994E+03 -0.92246955254E+03 -0.39012784783E+03  0.10261302509E+04  0.85242351296E+02 0.  0.
         11    1    3    3    0    0  0.16070376331E+03 -0.65556596212E+03 -0.23892761827E+03  0.71601594745E+03  0.00000000000E+00 0. -1.
        -11    1    3    3    0    0  0.45517526634E+02 -0.26690359042E+03 -0.15120022956E+03  0.31011430349E+03  0.00000000000E+00 0.  1.
         22    1    1    2    0    0 -0.20622128994E+03  0.92246955254E+03  0.20719059181E+04  0.22773386725E+04  0.00000000000E+00 0.  1.
<mgrwt>
<rscale>  0 0.28433307E+04</rscale>
<asrwt>0</asrwt>
<pdfrwt beam="1">  1        2 0.12474545E+00 0.28433307E+04</pdfrwt>
<pdfrwt beam="2">  1       -2 0.38348053E+00 0.28433307E+04</pdfrwt>
<totfact> 0.27879105E-01</totfact>
</mgrwt>
</event>
<event>
 6    1  0.1014650E-006  0.4074007E+03  0.7818608E-02  0.1041247E+00
          2   -1    0    0  501    0  0.00000000000E+00  0.00000000000E+00  0.89719387452E+03  0.89719387452E+03  0.00000000000E+00 0. -1.
         -2   -1    0    0    0  501 -0.00000000000E+00 -0.00000000000E+00 -0.46248455719E+02  0.46248455719E+02  0.00000000000E+00 0.  1.
         23    2    1    2    0    0  0.19251832427E+03  0.14988378948E+02  0.43668056617E+03  0.48638289777E+03  0.92684678814E+02 0.  0.
         13    1    3    3    0    0  0.14081489856E+03  0.45272774956E+02  0.25175040689E+03  0.29198754627E+03  0.00000000000E+00 0.  1.
        -13    1    3    3    0    0  0.51703425714E+02 -0.30284396009E+02  0.18493015928E+03  0.19439535150E+03  0.00000000000E+00 0. -1.
         22    1    1    2    0    0 -0.19251832427E+03 -0.14988378948E+02  0.41426485263E+03  0.45705943247E+03  0.00000000000E+00 0. -1.
<mgrwt>
<rscale>  0 0.40740069E+03</rscale>
<asrwt>0</asrwt>
<pdfrwt beam="1">  1        2 0.13802981E+00 0.40740069E+03</pdfrwt>
<pdfrwt beam="2">  1       -2 0.71151477E-02 0.40740069E+03</pdfrwt>
<totfact> 0.34819722E+03</totfact>
</mgrwt>
</event>
<event>
 6    1  0.1014650E-006  0.3936554E+04  0.7818608E-02  0.8017469E-01
         -1   -1    0    0    0  501 -0.00000000000E+00  0.00000000000E+00  0.17094606256E+04  0.17094606256E+04  0.00000000000E+00 0.  1.
          1   -1    0    0  501    0  0.00000000000E+00 -0.00000000000E+00 -0.22662787395E+04  0.22662787395E+04  0.00000000000E+00 0. -1.
         23    2    1    2    0    0 -0.66796180738E+03  0.10832364755E+04 -0.17936875305E+04  0.22010787802E+04  0.88648753917E+02 0.  0.
         11    1    3    3    0    0 -0.40533360066E+02  0.95264801561E+02 -0.18007937987E+03  0.20771836401E+03  0.00000000000E+00 0. -1.
        -11    1    3    3    0    0 -0.62742844731E+03  0.98797167392E+03 -0.16136081506E+04  0.19933604161E+04  0.00000000000E+00 0.  1.
         22    1    1    2    0    0  0.66796180738E+03 -0.10832364755E+04  0.12368694165E+04  0.17746605849E+04  0.00000000000E+00 0.  1.
<mgrwt>
<rscale>  0 0.39365540E+04</rscale>
<asrwt>0</asrwt>
<pdfrwt beam="1">  1        1 0.34865827E+00 0.39365540E+04</pdfrwt>
<pdfrwt beam="2">  1       -1 0.26299394E+00 0.39365540E+04</pdfrwt>
<totfact> 0.88599779E-02</totfact>
</mgrwt>
</event>
<event>
 6    1  0.1014650E-006  0.2264904E+04  0.7818608E-02  0.8491889E-01
         -2   -1    0    0    0  501 -0.00000000000E+00  0.00000000000E+00  0.53755067983E+03  0.53755067983E+03  0.00000000000E+00 0.  1.
          2   -1    0    0  501    0  0.00000000000E+00 -0.00000000000E+00 -0.23857231637E+04  0.23857231637E+04  0.00000000000E+00 0. -1.
         23    2    1    2    0    0 -0.94280477234E+01 -0.73752158419E+03  0.18015331029E+03  0.76500312313E+03  0.93528540932E+02 0.  0.
         11    1    3    3    0    0 -0.39198793358E+02 -0.32633768155E+03  0.11140304202E+03  0.34704965865E+03  0.00000000000E+00 0. -1.
        -11    1    3    3    0    0  0.29770745634E+02 -0.41118390264E+03  0.68750268274E+02  0.41795346448E+03  0.00000000000E+00 0.  1.
         22    1    1    2    0    0  0.94280477234E+01  0.73752158419E+03 -0.20283257942E+04  0.21582707204E+04  0.00000000000E+00 0. -1.
<mgrwt>
<rscale>  0 0.22649036E+04</rscale>
<asrwt>0</asrwt>
<pdfrwt beam="1">  1        2 0.36703433E+00 0.22649036E+04</pdfrwt>
<pdfrwt beam="2">  1       -2 0.82700106E-01 0.22649036E+04</pdfrwt>
<totfact> 0.47231696E+00</totfact>
</mgrwt>
</event>
<event>
 6    1  0.1014650E-006  0.1731912E+04  0.7818608E-02  0.8743370E-01
          2   -1    0    0  501    0  0.00000000000E+00  0.00000000000E+00  0.30947163668E+04  0.30947163668E+04  0.00000000000E+00 0. -1.
         -2   -1    0    0    0  501 -0.00000000000E+00 -0.00000000000E+00 -0.24230977150E+03  0.24230977150E+03  0.00000000000E+00 0.  1.
         23    2    1    2    0    0  0.24072807837E+03  0.60117064034E+03  0.25301650424E+04  0.26137034130E+04  0.10175579922E+03 0.  0.
         13    1    3    3    0    0  0.12565250500E+03  0.32111526354E+03  0.15474006328E+04  0.15853555698E+04  0.00000000000E+00 0. -1.
        -13    1    3    3    0    0  0.11507557337E+03  0.28005537680E+03  0.98276440964E+03  0.10283478432E+04  0.00000000000E+00 0.  1.
         22    1    1    2    0    0 -0.24072807837E+03 -0.60117064034E+03  0.32224155287E+03  0.72332272529E+03  0.00000000000E+00 0.  1.
<mgrwt>
<rscale>  0 0.17319123E+04</rscale>
<asrwt>0</asrwt>
<pdfrwt beam="1">  1        2 0.47611018E+00 0.17319123E+04</pdfrwt>
<pdfrwt beam="2">  1       -2 0.37278429E-01 0.17319123E+04</pdfrwt>
<totfact> 0.98183682E+00</totfact>
</mgrwt>
</event>
<event>
 6    1  0.1014650E-006  0.1950710E+04  0.7818608E-02  0.8630018E-01
         -1   -1    0    0    0  501 -0.00000000000E+00  0.00000000000E+00  0.76549060996E+03  0.76549060996E+03  0.00000000000E+00 0.  1.
          1   -1    0    0  501    0  0.00000000000E+00 -0.00000000000E+00 -0.12427552080E+04  0.12427552080E+04  0.00000000000E+00 0. -1.
         23    2    1    2    0    0 -0.72266637108E+03  0.16336788661E+03  0.41105827169E+03  0.85150329210E+03  0.84576612959E+02 0.  0.
         13    1    3    3    0    0 -0.16398366152E+03  0.54757737876E+02  0.13267735572E+03  0.21792735446E+03  0.00000000000E+00 0.  1.
        -13    1    3    3    0    0 -0.55868270957E+03  0.10861014873E+03  0.27838091597E+03  0.63357593764E+03  0.00000000000E+00 0. -1.
         22    1    1    2    0    0  0.72266637108E+03 -0.16336788661E+03 -0.88832286978E+03  0.11567425259E+04  0.00000000000E+00 0. -1.
<mgrwt>
<rscale>  0 0.19507101E+04</rscale>
<asrwt>0</asrwt>
<pdfrwt beam="1">  1        1 0.19119311E+00 0.19507101E+04</pdfrwt>
<pdfrwt beam="2">  1       -1 0.11776779E+00 0.19507101E+04</pdfrwt>
<totfact> 0.60058353E+00</totfact>
</mgrwt>
</event>
<event>
 6    1  0.1014650E-006  0.1011133E+04  0.7818608E-02  0.9296418E-01
          2   -1    0    0  501    0  0.00000000000E+00  0.00000000000E+00  0.83079947585E+03  0.83079947585E+03  0.00000000000E+00 0. -1.
         -2   -1    0    0    0  501 -0.00000000000E+00 -0.00000000000E+00 -0.30765216312E+03  0.30765216312E+03  0.00000000000E+00 0.  1.
         23    2    1    2    0    0 -0.13440917202E+03 -0.47452339082E+03  0.15930520882E+03  0.52557371430E+03  0.87242797083E+02 0.  0.
         13    1    3    3    0    0 -0.87416028011E+02 -0.35964323889E+03  0.15533583280E+03  0.40139013713E+03  0.00000000000E+00 0. -1.
        -13    1    3    3    0    0 -0.46993144007E+02 -0.11488015194E+03  0.39693760115E+01  0.12418357717E+03  0.00000000000E+00 0.  1.
         22    1    1    2    0    0  0.13440917202E+03  0.47452339082E+03  0.36384210392E+03  0.61287792467E+03  0.00000000000E+00 0. -1.
<mgrwt>
<rscale>  0 0.10111325E+04</rscale>
<asrwt>0</asrwt>
<pdfrwt beam="1">  1        2 0.12781530E+00 0.10111325E+04</pdfrwt>
<pdfrwt beam="2">  1       -2 0.47331103E-01 0.10111325E+04</pdfrwt>
<totfact> 0.13818321E+02</totfact>
</mgrwt>
</event>
<event>
 6    1  0.1014650E-006  0.2832045E+04  0.7818608E-02  0.8293388E-01
         -2   -1    0    0    0  501 -0.00000000000E+00  0.00000000000E+00  0.17719053267E+04  0.17719053267E+04  0.00000000000E+00 0.  1.
          2   -1    0    0  501    0  0.00000000000E+00 -0.00000000000E+00 -0.11316180492E+04  0.11316180492E+04  0.00000000000E+00 0. -1.
         23    2    1    2    0    0  0.10266728092E+04  0.59972009305E+03 -0.46506016254E+03  0.12800966881E+04  0.92980260424E+02 0.  0.
         13    1    3    3    0    0  0.44306226397E+03  0.23880249707E+03 -0.24265725249E+03  0.55876054312E+03  0.00000000000E+00 0.  1.
        -13    1    3    3    0    0  0.58361054526E+03  0.36091759598E+03 -0.22240291005E+03  0.72133614496E+03  0.00000000000E+00 0. -1.
         22    1    1    2    0    0 -0.10266728092E+04 -0.59972009305E+03  0.11053474401E+04  0.16234266877E+04  0.00000000000E+00 0.  1.
<mgrwt>
<rscale>  0 0.28320452E+04</rscale>
<asrwt>0</asrwt>
<pdfrwt beam="1">  1        2 0.17409508E+00 0.28320452E+04</pdfrwt>
<pdfrwt beam="2">  1       -2 0.27260082E+00 0.28320452E+04</pdfrwt>
<totfact> 0.84480764E-01</totfact>
</mgrwt>
</event>
<event>
 6    1  0.1014650E-006  0.2887057E+04  0.7818608E-02  0.8276739E-01
         -1   -1    0    0    0  501 -0.00000000000E+00  0.00000000000E+00  0.53196725160E+03  0.53196725160E+03  0.00000000000E+00 0.  1.
          1   -1    0    0  501    0  0.00000000000E+00 -0.00000000000E+00 -0.39171110196E+04  0.39171110196E+04  0.00000000000E+00 0. -1.
         23    2    1    2    0    0 -0.75447408611E+03  0.59730729204E+03 -0.38930651254E+02  0.96724694696E+03  0.89687864592E+02 0.  0.
         13    1    3    3    0    0 -0.71261843630E+03  0.54294616297E+03 -0.20148461818E+02  0.89611468694E+03  0.00000000000E+00 0. -1.
        -13    1    3    3    0    0 -0.41855649811E+02  0.54361129077E+02 -0.18782189436E+02  0.71132260021E+02  0.00000000000E+00 0.  1.
         22    1    1    2    0    0  0.75447408611E+03 -0.59730729204E+03 -0.33462131168E+04  0.34818313243E+04  0.00000000000E+00 0. -1.
<mgrwt>
<rscale>  0 0.28870572E+04</rscale>
<asrwt>0</asrwt>
<pdfrwt beam="1">  1        1 0.60263247E+00 0.28870572E+04</pdfrwt>
<pdfrwt beam="2">  1       -1 0.81841115E-01 0.28870572E+04</pdfrwt>
<totfact> 0.14463904E-01</totfact>
</mgrwt>
</event>
<event>
 6    1  0.1014650E-006  0.4919589E+04  0.7818608E-02  0.7841032E-01
         -2   -1    0    0    0  501 -0.00000000000E+00  0.00000000000E+00  0.36234228344E+04  0.36234228344E+04  0.00000000000E+00 0.  1.
          2   -1    0    0  501    0  0.00000000000E+00 -0.00000000000E+00 -0.16698547673E+04  0.16698547673E+04  0.00000000000E+00 0. -1.
         23    2    1    2    0    0 -0.26013830790E+03  0.27352800354E+03  0.35914534348E+04  0.36124569732E+04  0.93904744503E+02 0.  0.
         13    1    3    3    0    0 -0.10849659227E+03  0.79744304710E+02  0.93739584035E+03  0.94701722591E+03  0.00000000000E+00 0.  1.
        -13    1    3    3    0    0 -0.15164171563E+03  0.19378369883E+03  0.26540575944E+04  0.26654397473E+04  0.00000000000E+00 0. -1.
         22    1    1    2    0    0  0.26013830790E+03 -0.27352800354E+03 -0.16378853676E+04  0.16808206286E+04  0.00000000000E+00 0. -1.
<mgrwt>
<rscale>  0 0.49195894E+04</rscale>
<asrwt>0</asrwt>
<pdfrwt beam="1">  1        2 0.25690073E+00 0.49195894E+04</pdfrwt>
<pdfrwt beam="2">  1       -2 0.55744967E+00 0.49195894E+04</pdfrwt>
<totfact> 0.59029863E-03</totfact>
</mgrwt>
</event>
<event>
 6    1  0.1014650E-006  0.2597725E+04  0.7818608E-02  0.8368974E-01
         -2   -1    0    0    0  501 -0.00000000000E+00  0.00000000000E+00  0.25565000924E+04  0.25565000924E+04  0.00000000000E+00 0.  1.
          2   -1    0    0  501    0  0.00000000000E+00 -0.00000000000E+00 -0.65990357584E+03  0.65990357584E+03  0.00000000000E+00 0. -1.
         23    2    1    2    0    0 -0.31885757734E+03  0.17529306600E+03  0.24912027751E+04  0.25192993602E+04  0.91543355198E+02 0.  0.
         11    1    3    3    0    0 -0.66185604603E+02  0.81150852558E+02  0.77522052659E+03  0.78226137574E+03  0.00000000000E+00 0. -1.
        -11    1    3    3    0    0 -0.25267197274E+03  0.94142213439E+02  0.17159822485E+04  0.17370379845E+04  0.00000000000E+00 0.  1.
         22    1    1    2    0    0  0.31885757734E+03 -0.17529306600E+03 -0.59460625855E+03  0.69710430806E+03  0.00000000000E+00 0. -1.
<mgrwt>
<rscale>  0 0.25977248E+04</rscale>
<asrwt>0</asrwt>
<pdfrwt beam="1">  1        2 0.10152363E+00 0.25977248E+04</pdfrwt>
<pdfrwt beam="2">  1       -2 0.39330770E+00 0.25977248E+04</pdfrwt>
<totfact> 0.32046433E-01</totfact>
</mgrwt>
</event>
<event>
 6    1  0.1014650E-006  0.2547499E+04  0.7818608E-02  0.8386256E-01
          1   -1    0    0  501    0  0.00000000000E+00  0.00000000000E+00  0.21507396578E+04  0.21507396578E+04  0.00000000000E+00 0. -1.
         -1   -1    0    0    0  501 -0.00000000000E+00 -0.00000000000E+00 -0.75436273345E+03  0.75436273345E+03  0.00000000000E+00 0.  1.
         23    2    1    2    0    0  0.50086625179E+02  0.63189932654E+03  0.19569250982E+04  0.20589229280E+04  0.88330936547E+02 0.  0.
         11    1    3    3    0    0  0.37497075098E+02  0.10632802592E+03  0.40309730347E+03  0.41856793451E+03  0.00000000000E+00 0.  1.
        -11    1    3    3    0    0  0.12589550081E+02  0.52557130062E+03  0.15538277947E+04  0.16403549934E+04  0.00000000000E+00 0. -1.
         22    1    1    2    0    0 -0.50086625179E+02 -0.63189932654E+03 -0.56054817385E+03  0.84617946330E+03  0.00000000000E+00 0.  1.
<mgrwt>
<rscale>  0 0.25474990E+04</rscale>
<asrwt>0</asrwt>
<pdfrwt beam="1">  1        1 0.33088302E+00 0.25474990E+04</pdfrwt>
<pdfrwt beam="2">  1       -1 0.11605581E+00 0.25474990E+04</pdfrwt>
<totfact> 0.13979445E+00</totfact>
</mgrwt>
</event>
<event>
 6    1  0.1293890E-006  0.1976836E+04  0.7818608E-02  0.8617528E-01
          2   -1    0    0  501    0  0.00000000000E+00  0.00000000000E+00  0.85375598693E+03  0.85375598693E+03  0.00000000000E+00 0. -1.
         -2   -1    0    0    0  501 -0.00000000000E+00 -0.00000000000E+00 -0.11443202952E+04  0.11443202952E+04  0.00000000000E+00 0.  1.
         23    2    1    2    0    0 -0.83017897131E+03  0.89211569399E+02  0.38509124523E+03  0.92398771247E+03  0.91116393234E+02 0.  0.
         13    1    3    3    0    0 -0.50293829790E+03  0.51414901717E+02  0.18376868848E+03  0.53792318641E+03  0.00000000000E+00 0.  1.
        -13    1    3    3    0    0 -0.32724067342E+03  0.37796667682E+02  0.20132255675E+03  0.38606452606E+03  0.00000000000E+00 0. -1.
         22    1    1    2    0    0  0.83017897131E+03 -0.89211569399E+02 -0.67565555353E+03  0.10740885697E+04  0.00000000000E+00 0.  1.
<mgrwt>
<rscale>  0 0.19768362E+04</rscale>
<asrwt>0</asrwt>
<pdfrwt beam="1">  1        2 0.13134708E+00 0.19768362E+04</pdfrwt>
<pdfrwt beam="2">  1       -2 0.17604928E+00 0.19768362E+04</pdfrwt>
<totfact> 0.56701783E+00</totfact>
</mgrwt>
</event>
<event>
 6    1  0.1014650E-006  0.2401015E+04  0.7818608E-02  0.8439124E-01
          2   -1    0    0  501    0  0.00000000000E+00  0.00000000000E+00  0.26660069390E+04  0.26660069390E+04  0.00000000000E+00 0. -1.
         -2   -1    0    0    0  501 -0.00000000000E+00 -0.00000000000E+00 -0.54059062941E+03  0.54059062941E+03  0.00000000000E+00 0.  1.
         23    2    1    2    0    0  0.35486983998E+03 -0.95271232367E+03  0.19127101751E+04  0.21679266510E+04  0.88613629496E+02 0.  0.
         11    1    3    3    0    0  0.18570136647E+03 -0.52318706752E+03  0.95175564545E+03  0.11018386968E+04  0.00000000000E+00 0. -1.
        -11    1    3    3    0    0  0.16916847351E+03 -0.42952525615E+03  0.96095452964E+03  0.10660879542E+04  0.00000000000E+00 0.  1.
         22    1    1    2    0    0 -0.35486983998E+03  0.95271232367E+03  0.21270613454E+03  0.10386709174E+04  0.00000000000E+00 0.  1.
<mgrwt>
<rscale>  0 0.24010151E+04</rscale>
<asrwt>0</asrwt>
<pdfrwt beam="1">  1        2 0.41015490E+00 0.24010151E+04</pdfrwt>
<pdfrwt beam="2">  1       -2 0.83167791E-01 0.24010151E+04</pdfrwt>
<totfact> 0.31671617E+00</totfact>
</mgrwt>
</event>
<event>
 6    1  0.1014650E-006  0.1364484E+04  0.7818608E-02  0.8979936E-01
         -2   -1    0    0    0  501 -0.00000000000E+00  0.00000000000E+00  0.15199054252E+04  0.15199054252E+04  0.00000000000E+00 0.  1.
          2   -1    0    0  501    0  0.00000000000E+00 -0.00000000000E+00 -0.30623897074E+03  0.30623897074E+03  0.00000000000E+00 0. -1.
         23    2    1    2    0    0  0.52451791071E+03  0.42897805033E+03  0.59937367226E+03  0.91154239036E+03  0.11189067928E+03 0.  0.
         13    1    3    3    0    0  0.34505888817E+03  0.33636783118E+03  0.45984393981E+03  0.66608212942E+03  0.00000000000E+00 0. -1.
        -13    1    3    3    0    0  0.17945902255E+03  0.92610219150E+02  0.13952973245E+03  0.24546026094E+03  0.00000000000E+00 0.  1.
         22    1    1    2    0    0 -0.52451791071E+03 -0.42897805033E+03  0.61429278219E+03  0.91460200556E+03  0.00000000000E+00 0.  1.
<mgrwt>
<rscale>  0 0.13644842E+04</rscale>
<asrwt>0</asrwt>
<pdfrwt beam="1">  1        2 0.47113689E-01 0.13644842E+04</pdfrwt>
<pdfrwt beam="2">  1       -2 0.23383160E+00 0.13644842E+04</pdfrwt>
<totfact> 0.84744569E+00</totfact>
</mgrwt>
</event>
<event>
 6    1  0.1014650E-006  0.1018847E+04  0.7818608E-02  0.9288111E-01
          1   -1    0    0  501    0  0.00000000000E+00  0.00000000000E+00  0.17185442289E+04  0.17185442289E+04  0.00000000000E+00 0. -1.
         -1   -1    0    0    0  501 -0.00000000000E+00 -0.00000000000E+00 -0.15100717975E+03  0.15100717975E+03  0.00000000000E+00 0.  1.
         23    2    1    2    0    0 -0.16591078434E+03  0.37365875265E+02  0.16632580150E+04  0.16743973661E+04  0.90866486456E+02 0.  0.
         11    1    3    3    0    0 -0.35551315058E+01 -0.60495445746E+01  0.39387412533E+03  0.39393662251E+03  0.00000000000E+00 0.  1.
        -11    1    3    3    0    0 -0.16235565283E+03  0.43415419839E+02  0.12693838896E+04  0.12804607436E+04  0.00000000000E+00 0. -1.
         22    1    1    2    0    0  0.16591078434E+03 -0.37365875265E+02 -0.95720965848E+02  0.19515404248E+03  0.00000000000E+00 0.  1.
<mgrwt>
<rscale>  0 0.10188474E+04</rscale>
<asrwt>0</asrwt>
<pdfrwt beam="1">  1        1 0.26439141E+00 0.10188474E+04</pdfrwt>
<pdfrwt beam="2">  1       -1 0.23231875E-01 0.10188474E+04</pdfrwt>
<totfact> 0.73726880E+01</totfact>
</mgrwt>
</event>
<event>
 6    1  0.1014650E-006  0.1351154E+04  0.7818608E-02  0.8989955E-01
          1   -1    0    0  501    0  0.00000000000E+00  0.00000000000E+00  0.15906388995E+04  0.15906388995E+04  0.00000000000E+00 0. -1.
         -1   -1    0    0    0  501 -0.00000000000E+00 -0.00000000000E+00 -0.28693129679E+03  0.28693129679E+03  0.00000000000E+00 0.  1.
         23    2    1    2    0    0 -0.11760815908E+03  0.65025291520E+03  0.48123110235E+03  0.82252132233E+03  0.91090169683E+02 0.  0.
         13    1    3    3    0    0 -0.16289820235E+01  0.28931763894E+02  0.14806212971E+01  0.29015388742E+02  0.00000000000E+00 0. -1.
        -13    1    3    3    0    0 -0.11597917705E+03  0.62132115131E+03  0.47975048105E+03  0.79350593359E+03  0.00000000000E+00 0.  1.
         22    1    1    2    0    0  0.11760815908E+03 -0.65025291520E+03  0.82247650037E+03  0.10550488740E+04  0.00000000000E+00 0. -1.
<mgrwt>
<rscale>  0 0.13511537E+04</rscale>
<asrwt>0</asrwt>
<pdfrwt beam="1">  1        1 0.24471367E+00 0.13511537E+04</pdfrwt>
<pdfrwt beam="2">  1       -1 0.44143277E-01 0.13511537E+04</pdfrwt>
<totfact> 0.28138217E+01</totfact>
</mgrwt>
</event>
<event>
 6    1  0.1014650E-006  0.2121837E+04  0.7818608E-02  0.8551684E-01
         -3   -1    0    0    0  501 -0.00000000000E+00  0.00000000000E+00  0.17407315407E+04  0.17407315407E+04  0.00000000000E+00 0.  1.
          3   -1    0    0  501    0  0.00000000000E+00 -0.00000000000E+00 -0.64659511288E+03  0.64659511288E+03  0.00000000000E+00 0. -1.
         23    2    1    2    0    0  0.88727275368E+03  0.20453122611E+03  0.11565774789E+04  0.14746466183E+04  0.88460286692E+02 0.  0.
         13    1    3    3    0    0  0.49970722404E+03  0.10298409324E+03  0.57910813339E+03  0.77180260649E+03  0.00000000000E+00 0. -1.
        -13    1    3    3    0    0  0.38756552964E+03  0.10154713287E+03  0.57746934547E+03  0.70284401180E+03  0.00000000000E+00 0.  1.
         22    1    1    2    0    0 -0.88727275368E+03 -0.20453122611E+03 -0.62441051094E+02  0.91268003525E+03  0.00000000000E+00 0. -1.
<mgrwt>
<rscale>  0 0.21218374E+04</rscale>
<asrwt>0</asrwt>
<pdfrwt beam="1">  1        3 0.99476172E-01 0.21218374E+04</pdfrwt>
<pdfrwt beam="2">  1       -3 0.26780485E+00 0.21218374E+04</pdfrwt>
<totfact> 0.12292070E-01</totfact>
</mgrwt>
</event>
<event>
 6    1  0.1014650E-006  0.2037871E+04  0.7818608E-02  0.8589117E-01
         -2   -1    0    0    0  501 -0.00000000000E+00  0.00000000000E+00  0.57323280621E+03  0.57323280621E+03  0.00000000000E+00 0.  1.
          2   -1    0    0  501    0  0.00000000000E+00 -0.00000000000E+00 -0.18111822614E+04  0.18111822614E+04  0.00000000000E+00 0. -1.
         23    2    1    2    0    0  0.77606951056E+03  0.12422687141E+03  0.13429639282E+03  0.80303122168E+03  0.95432809207E+02 0.  0.
         11    1    3    3    0    0  0.20091253870E+03  0.27369306239E+02  0.77279524684E+02  0.21699551163E+03  0.00000000000E+00 0.  1.
        -11    1    3    3    0    0  0.57515697186E+03  0.96857565167E+02  0.57016868138E+02  0.58603571005E+03  0.00000000000E+00 0. -1.
         22    1    1    2    0    0 -0.77606951056E+03 -0.12422687141E+03 -0.13722458480E+04  0.15813838459E+04  0.00000000000E+00 0. -1.
<mgrwt>
<rscale>  0 0.20378705E+04</rscale>
<asrwt>0</asrwt>
<pdfrwt beam="1">  1        2 0.27864342E+00 0.20378705E+04</pdfrwt>
<pdfrwt beam="2">  1       -2 0.88189664E-01 0.20378705E+04</pdfrwt>
<totfact> 0.87250031E+00</totfact>
</mgrwt>
</event>
<event>
 6    1  0.1014650E-006  0.2170728E+04  0.7818608E-02  0.8530711E-01
          2   -1    0    0  501    0  0.00000000000E+00  0.00000000000E+00  0.29645669171E+04  0.29645669171E+04  0.00000000000E+00 0. -1.
         -2   -1    0    0    0  501 -0.00000000000E+00 -0.00000000000E+00 -0.39736497525E+03  0.39736497525E+03  0.00000000000E+00 0.  1.
         23    2    1    2    0    0 -0.26415987876E+03  0.28385903782E+03  0.28527408147E+04  0.28803835118E+04  0.90125602783E+02 0.  0.
         13    1    3    3    0    0 -0.22657331204E+03  0.20294585186E+03  0.23732257161E+04  0.23926392925E+04  0.00000000000E+00 0.  1.
        -13    1    3    3    0    0 -0.37586566719E+02  0.80913185956E+02  0.47951509856E+03  0.48774421925E+03  0.00000000000E+00 0. -1.
         22    1    1    2    0    0  0.26415987876E+03 -0.28385903782E+03 -0.28553887286E+03  0.48154838055E+03  0.00000000000E+00 0.  1.
<mgrwt>
<rscale>  0 0.21707280E+04</rscale>
<asrwt>0</asrwt>
<pdfrwt beam="1">  1        2 0.45608721E+00 0.21707280E+04</pdfrwt>
<pdfrwt beam="2">  1       -2 0.61133075E-01 0.21707280E+04</pdfrwt>
<totfact> 0.41841246E+00</totfact>
</mgrwt>
</event>
<event>
 6    1  0.1014650E-006  0.1133813E+04  0.7818608E-02  0.9172848E-01
          2   -1    0    0  501    0  0.00000000000E+00  0.00000000000E+00  0.87545117836E+03  0.87545117836E+03  0.00000000000E+00 0. -1.
         -2   -1    0    0    0  501 -0.00000000000E+00 -0.00000000000E+00 -0.36710574746E+03  0.36710574746E+03  0.00000000000E+00 0.  1.
         23    2    1    2    0    0 -0.46748713322E+03 -0.30747045871E+03  0.18374571103E+03  0.59568191405E+03  0.89398846149E+02 0.  0.
         13    1    3    3    0    0 -0.36565958031E+03 -0.19314560852E+03  0.13395479139E+03  0.43469074168E+03  0.00000000000E+00 0. -1.
        -13    1    3    3    0    0 -0.10182755292E+03 -0.11432485019E+03  0.49790919637E+02  0.16099117237E+03  0.00000000000E+00 0.  1.
         22    1    1    2    0    0  0.46748713322E+03  0.30747045871E+03  0.32459971988E+03  0.64687501177E+03  0.00000000000E+00 0. -1.
<mgrwt>
<rscale>  0 0.11338133E+04</rscale>
<asrwt>0</asrwt>
<pdfrwt beam="1">  1        2 0.13468480E+00 0.11338133E+04</pdfrwt>
<pdfrwt beam="2">  1       -2 0.56477807E-01 0.11338133E+04</pdfrwt>
<totfact> 0.88839825E+01</totfact>
</mgrwt>
</event>
<event>
 6    1  0.1014650E-006  0.3260078E+04  0.7818608E-02  0.8173128E-01
          2   -1    0    0  501    0  0.00000000000E+00  0.00000000000E+00  0.30643454824E+04  0.30643454824E+04  0.00000000000E+00 0. -1.
         -2   -1    0    0    0  501 -0.00000000000E+00 -0.00000000000E+00 -0.86707827418E+03  0.86707827418E+03  0.00000000000E+00 0.  1.
         23    2    1    2    0    0  0.23379035032E+02  0.12258811911E+04  0.23923900034E+04  0.26898907609E+04  0.93011306865E+02 0.  0.
         11    1    3    3    0    0 -0.23748581864E+02  0.14062707264E+03  0.24899570038E+03  0.28694742987E+03  0.00000000000E+00 0. -1.
        -11    1    3    3    0    0  0.47127616897E+02  0.10852541185E+04  0.21433943031E+04  0.24029433311E+04  0.00000000000E+00 0.  1.
         22    1    1    2    0    0 -0.23379035032E+02 -0.12258811911E+04 -0.19512279522E+03  0.12415329956E+04  0.00000000000E+00 0.  1.
<mgrwt>
<rscale>  0 0.32600782E+04</rscale>
<asrwt>0</asrwt>
<pdfrwt beam="1">  1        2 0.47143776E+00 0.32600782E+04</pdfrwt>
<pdfrwt beam="2">  1       -2 0.13339666E+00 0.32600782E+04</pdfrwt>
<totfact> 0.53999252E-01</totfact>
</mgrwt>
</event>
<event>
 6    1  0.1014650E-006  0.3319242E+04  0.7818608E-02  0.8158017E-01
         -1   -1    0    0    0  501 -0.00000000000E+00  0.00000000000E+00  0.76643597844E+03  0.76643597844E+03  0.00000000000E+00 0.  1.
          1   -1    0    0  501    0  0.00000000000E+00 -0.00000000000E+00 -0.35937002600E+04  0.35937002600E+04  0.00000000000E+00 0. -1.
         23    2    1    2    0    0 -0.16394505727E+04  0.18572779670E+03 -0.16317211825E+04  0.23225846939E+04  0.97942066890E+02 0.  0.
         11    1    3    3    0    0 -0.80156775590E+03  0.92991039515E+02 -0.86682485501E+03  0.11842903065E+04  0.00000000000E+00 0.  1.
        -11    1    3    3    0    0 -0.83788281677E+03  0.92736757183E+02 -0.76489632747E+03  0.11382943875E+04  0.00000000000E+00 0. -1.
         22    1    1    2    0    0  0.16394505727E+04 -0.18572779670E+03 -0.11955430991E+04  0.20375515445E+04  0.00000000000E+00 0.  1.
<mgrwt>
<rscale>  0 0.33192416E+04</rscale>
<asrwt>0</asrwt>
<pdfrwt beam="1">  1        1 0.55287696E+00 0.33192416E+04</pdfrwt>
<pdfrwt beam="2">  1       -1 0.11791323E+00 0.33192416E+04</pdfrwt>
<totfact> 0.11247319E-01</totfact>
</mgrwt>
</event>
<event>
 6    1  0.1014650E-006  0.1201755E+04  0.7818608E-02  0.9111321E-01
         -1   -1    0    0    0  501 -0.00000000000E+00  0.00000000000E+00  0.24528284909E+03  0.24528284909E+03  0.00000000000E+00 0.  1.
          1   -1    0    0  501    0  0.00000000000E+00 -0.00000000000E+00 -0.14719906168E+04  0.14719906168E+04  0.00000000000E+00 0. -1.
         23    2    1    2    0    0 -0.44245538193E+03  0.20841901812E+03 -0.12544081853E+03  0.51228626867E+03  0.86582734982E+02 0.  0.
         13    1    3    3    0    0 -0.15301242146E+03  0.82854520632E+02 -0.86709324429E+02  0.19441239583E+03  0.00000000000E+00 0. -1.
        -13    1    3    3    0    0 -0.28944296047E+03  0.12556449749E+03 -0.38731494103E+02  0.31787387284E+03  0.00000000000E+00 0.  1.
         22    1    1    2    0    0  0.44245538193E+03 -0.20841901812E+03 -0.11012669491E+04  0.12049871972E+04  0.00000000000E+00 0.  1.
<mgrwt>
<rscale>  0 0.12017555E+04</rscale>
<asrwt>0</asrwt>
<pdfrwt beam="1">  1        1 0.22646010E+00 0.12017555E+04</pdfrwt>
<pdfrwt beam="2">  1       -1 0.37735822E-01 0.12017555E+04</pdfrwt>
<totfact> 0.45850240E+01</totfact>
</mgrwt>
</event>
<event>
 6    1  0.1014650E-006  0.8246561E+03  0.7818608E-02  0.9524999E-01
         -1   -1    0    0    0  501 -0.00000000000E+00  0.00000000000E+00  0.34196605136E+03  0.34196605136E+03  0.00000000000E+00 0.  1.
          1   -1    0    0  501    0  0.00000000000E+00 -0.00000000000E+00 -0.49716749085E+03  0.49716749085E+03  0.00000000000E+00 0. -1.
         23    2    1    2    0    0 -0.10858483617E+03 -0.19148374108E+03 -0.42702425119E+03  0.48935599762E+03  0.93074655823E+02 0.  0.
         13    1    3    3    0    0 -0.89423271280E+02 -0.11270555285E+03 -0.34606682580E+03  0.37478168446E+03  0.00000000000E+00 0. -1.
        -13    1    3    3    0    0 -0.19161564886E+02 -0.78778188226E+02 -0.80957425399E+02  0.11457431316E+03  0.00000000000E+00 0.  1.
         22    1    1    2    0    0  0.10858483617E+03  0.19148374108E+03  0.27182281170E+03  0.34977754459E+03  0.00000000000E+00 0.  1.
<mgrwt>
<rscale>  0 0.82465606E+03</rscale>
<asrwt>0</asrwt>
<pdfrwt beam="1">  1        1 0.76487306E-01 0.82465606E+03</pdfrwt>
<pdfrwt beam="2">  1       -1 0.52610162E-01 0.82465606E+03</pdfrwt>
<totfact> 0.16441461E+02</totfact>
</mgrwt>
</event>
<event>
 6    1  0.1014650E-006  0.3059562E+04  0.7818608E-02  0.8226924E-01
          1   -1    0    0  501    0  0.00000000000E+00  0.00000000000E+00  0.15499544040E+04  0.15499544040E+04  0.00000000000E+00 0. -1.
         -1   -1    0    0    0  501 -0.00000000000E+00 -0.00000000000E+00 -0.15098702209E+04  0.15098702209E+04  0.00000000000E+00 0.  1.
         23    2    1    2    0    0  0.50728314385E+03 -0.12041180125E+04 -0.77309646303E+03  0.15208317272E+04  0.89524439165E+02 0.  0.
         13    1    3    3    0    0  0.40085137200E+03 -0.87535035587E+03 -0.53816200734E+03  0.11029680023E+04  0.00000000000E+00 0.  1.
        -13    1    3    3    0    0  0.10643177185E+03 -0.32876765663E+03 -0.23493445569E+03  0.41786372489E+03  0.00000000000E+00 0. -1.
         22    1    1    2    0    0 -0.50728314385E+03  0.12041180125E+04  0.81318064612E+03  0.15389928977E+04  0.00000000000E+00 0. -1.
<mgrwt>
<rscale>  0 0.30595621E+04</rscale>
<asrwt>0</asrwt>
<pdfrwt beam="1">  1        1 0.23845452E+00 0.30595621E+04</pdfrwt>
<pdfrwt beam="2">  1       -1 0.23228773E+00 0.30595621E+04</pdfrwt>
<totfact> 0.46628162E-01</totfact>
</mgrwt>
</event>
<event>
 6    1  0.1014650E-006  0.4271419E+04  0.7818608E-02  0.7951924E-01
          2   -1    0    0  501    0  0.00000000000E+00  0.00000000000E+00  0.21190918028E+04  0.21190918028E+04  0.00000000000E+00 0. -1.
         -2   -1    0    0    0  501 -0.00000000000E+00 -0.00000000000E+00 -0.21524577695E+04  0.21524577695E+04  0.00000000000E+00 0.  1.
         23    2    1    2    0    0 -0.17254828834E+04 -0.57562277508E+03 -0.11341859227E+04  0.21454175596E+04  0.88351785084E+02 0.  0.
         13    1    3    3    0    0 -0.17158895405E+03 -0.84215646980E+02 -0.12946580979E+03  0.23086021799E+03  0.00000000000E+00 0. -1.
        -13    1    3    3    0    0 -0.15538939293E+04 -0.49140712810E+03 -0.10047201129E+04  0.19145573416E+04  0.00000000000E+00 0.  1.
         22    1    1    2    0    0  0.17254828834E+04  0.57562277508E+03  0.11008199560E+04  0.21261320127E+04  0.00000000000E+00 0.  1.
<mgrwt>
<rscale>  0 0.42714193E+04</rscale>
<asrwt>0</asrwt>
<pdfrwt beam="1">  1        2 0.32601412E+00 0.42714193E+04</pdfrwt>
<pdfrwt beam="2">  1       -2 0.33114735E+00 0.42714193E+04</pdfrwt>
<totfact> 0.90352606E-02</totfact>
</mgrwt>
</event>
<event>
 6    1  0.1014650E-006  0.1470396E+04  0.7818608E-02  0.8904382E-01
         -2   -1    0    0    0  501 -0.00000000000E+00  0.00000000000E+00  0.18342284113E+04  0.18342284113E+04  0.00000000000E+00 0.  1.
          2   -1    0    0  501    0  0.00000000000E+00 -0.00000000000E+00 -0.29468302253E+03  0.29468302253E+03  0.00000000000E+00 0. -1.
         23    2    1    2    0    0 -0.74972209740E+02 -0.53292016002E+03  0.53509421470E+02  0.54842808204E+03  0.91024028655E+02 0.  0.
         13    1    3    3    0    0 -0.87046838826E+02 -0.34045078684E+03  0.54334375474E+02  0.35557856342E+03  0.00000000000E+00 0. -1.
        -13    1    3    3    0    0  0.12074629086E+02 -0.19246937318E+03 -0.82495400445E+00  0.19284951861E+03  0.00000000000E+00 0.  1.
         22    1    1    2    0    0  0.74972209740E+02  0.53292016002E+03  0.14860359673E+04  0.15804833518E+04  0.00000000000E+00 0.  1.
<mgrwt>
<rscale>  0 0.14703958E+04</rscale>
<asrwt>0</asrwt>
<pdfrwt beam="1">  1        2 0.45335851E-01 0.14703958E+04</pdfrwt>
<pdfrwt beam="2">  1       -2 0.28218898E+00 0.14703958E+04</pdfrwt>
<totfact> 0.44412672E+00</totfact>
</mgrwt>
</event>
<event>
 6    1  0.1014650E-006  0.2806455E+04  0.7818608E-02  0.8301267E-01
         -2   -1    0    0    0  501 -0.00000000000E+00  0.00000000000E+00  0.72372846155E+03  0.72372846155E+03  0.00000000000E+00 0.  1.
          2   -1    0    0  501    0  0.00000000000E+00 -0.00000000000E+00 -0.27206994327E+04  0.27206994327E+04  0.00000000000E+00 0. -1.
         23    2    1    2    0    0  0.15961854020E+03 -0.68085690129E+03  0.49127039658E+03  0.85978298586E+03  0.93999903282E+02 0.  0.
         11    1    3    3    0    0  0.11502272500E+03 -0.34535091609E+03  0.21395657296E+03  0.42222612143E+03  0.00000000000E+00 0.  1.
        -11    1    3    3    0    0  0.44595815201E+02 -0.33550598520E+03  0.27731382362E+03  0.43755686443E+03  0.00000000000E+00 0. -1.
         22    1    1    2    0    0 -0.15961854020E+03  0.68085690129E+03 -0.24882413678E+04  0.25846449084E+04  0.00000000000E+00 0. -1.
<mgrwt>
<rscale>  0 0.28064551E+04</rscale>
<asrwt>0</asrwt>
<pdfrwt beam="1">  1        2 0.41856914E+00 0.28064551E+04</pdfrwt>
<pdfrwt beam="2">  1       -2 0.11134284E+00 0.28064551E+04</pdfrwt>
<totfact> 0.14315096E+00</totfact>
</mgrwt>
</event>
<event>
 6    1  0.1014650E-006  0.2073770E+04  0.7818608E-02  0.8572887E-01
         -2   -1    0    0    0  501 -0.00000000000E+00  0.00000000000E+00  0.13006681479E+04  0.13006681479E+04  0.00000000000E+00 0.  1.
          2   -1    0    0  501    0  0.00000000000E+00 -0.00000000000E+00 -0.82659831561E+03  0.82659831561E+03  0.00000000000E+00 0. -1.
         23    2    1    2    0    0 -0.26007011307E+03 -0.75693941321E+03  0.91103831726E+03  0.12153809466E+04  0.81032653204E+02 0.  0.
         13    1    3    3    0    0 -0.46564215599E+02 -0.11357287945E+03  0.99731302653E+02  0.15815611860E+03  0.00000000000E+00 0. -1.
        -13    1    3    3    0    0 -0.21350589747E+03 -0.64336653376E+03  0.81130701461E+03  0.10572248280E+04  0.00000000000E+00 0.  1.
         22    1    1    2    0    0  0.26007011307E+03  0.75693941321E+03 -0.43696848500E+03  0.91188551687E+03  0.00000000000E+00 0. -1.
<mgrwt>
<rscale>  0 0.20737696E+04</rscale>
<asrwt>0</asrwt>
<pdfrwt beam="1">  1        2 0.12716897E+00 0.20737696E+04</pdfrwt>
<pdfrwt beam="2">  1       -2 0.20010279E+00 0.20737696E+04</pdfrwt>
<totfact> 0.40410563E+00</totfact>
</mgrwt>
</event>
<event>
 6    1  0.1014650E-006  0.1922474E+04  0.7818608E-02  0.8643750E-01
         -2   -1    0    0    0  501 -0.00000000000E+00  0.00000000000E+00  0.11510509723E+04  0.11510509723E+04  0.00000000000E+00 0.  1.
          2   -1    0    0  501    0  0.00000000000E+00 -0.00000000000E+00 -0.80272429068E+03  0.80272429068E+03  0.00000000000E+00 0. -1.
         23    2    1    2    0    0 -0.30039043508E+03 -0.75384082053E+03 -0.34478341174E+03  0.88657706315E+03  0.92913355873E+02 0.  0.
         13    1    3    3    0    0 -0.26793138922E+03 -0.60842816928E+03 -0.25149356917E+03  0.71078905579E+03  0.00000000000E+00 0.  1.
        -13    1    3    3    0    0 -0.32459045861E+02 -0.14541265126E+03 -0.93289842575E+02  0.17578800736E+03  0.00000000000E+00 0. -1.
         22    1    1    2    0    0  0.30039043508E+03  0.75384082053E+03  0.69311009335E+03  0.10671981998E+04  0.00000000000E+00 0.  1.
<mgrwt>
<rscale>  0 0.19224740E+04</rscale>
<asrwt>0</asrwt>
<pdfrwt beam="1">  1        2 0.12349604E+00 0.19224740E+04</pdfrwt>
<pdfrwt beam="2">  1       -2 0.17708477E+00 0.19224740E+04</pdfrwt>
<totfact> 0.60872406E+00</totfact>
</mgrwt>
</event>
<event>
 6    1  0.1014650E-006  0.3669972E+04  0.7818608E-02  0.8074649E-01
         -1   -1    0    0    0  501 -0.00000000000E+00  0.00000000000E+00  0.17742173356E+04  0.17742173356E+04  0.00000000000E+00 0.  1.
          1   -1    0    0  501    0  0.00000000000E+00 -0.00000000000E+00 -0.18978361186E+04  0.18978361186E+04  0.00000000000E+00 0. -1.
         23    2    1    2    0    0  0.17219223814E+04  0.30500037097E+02  0.56869432977E+03  0.18159165019E+04  0.90512769185E+02 0.  0.
         11    1    3    3    0    0  0.44843331394E+03  0.41983140922E+02  0.12704023148E+03  0.46796820574E+03  0.00000000000E+00 0.  1.
        -11    1    3    3    0    0  0.12734890674E+04 -0.11483103825E+02  0.44165409829E+03  0.13479482961E+04  0.00000000000E+00 0. -1.
         22    1    1    2    0    0 -0.17219223814E+04 -0.30500037097E+02 -0.69231311273E+03  0.18561369523E+04  0.00000000000E+00 0. -1.
<mgrwt>
<rscale>  0 0.36699721E+04</rscale>
<asrwt>0</asrwt>
<pdfrwt beam="1">  1        1 0.29197479E+00 0.36699721E+04</pdfrwt>
<pdfrwt beam="2">  1       -1 0.27295651E+00 0.36699721E+04</pdfrwt>
<totfact> 0.13901680E-01</totfact>
</mgrwt>
</event>
<event>
 6    1  0.1014650E-006  0.3520436E+04  0.7818608E-02  0.8108964E-01
         -1   -1    0    0    0  501 -0.00000000000E+00  0.00000000000E+00  0.16133719814E+04  0.16133719814E+04  0.00000000000E+00 0.  1.
          1   -1    0    0  501    0  0.00000000000E+00 -0.00000000000E+00 -0.19204297615E+04  0.19204297615E+04  0.00000000000E+00 0. -1.
         23    2    1    2    0    0 -0.10709477521E+04 -0.10967936698E+04  0.71256537341E+03  0.16927376981E+04  0.87898017618E+02 0.  0.
         11    1    3    3    0    0 -0.52187320812E+03 -0.56106299608E+03  0.31217091677E+03  0.82740196532E+03  0.00000000000E+00 0. -1.
        -11    1    3    3    0    0 -0.54907454396E+03 -0.53573067368E+03  0.40039445664E+03  0.86533573279E+03  0.00000000000E+00 0.  1.
         22    1    1    2    0    0  0.10709477521E+04  0.10967936698E+04 -0.10196231535E+04  0.18410640448E+04  0.00000000000E+00 0. -1.
<mgrwt>
<rscale>  0 0.35204361E+04</rscale>
<asrwt>0</asrwt>
<pdfrwt beam="1">  1        1 0.29545073E+00 0.35204361E+04</pdfrwt>
<pdfrwt beam="2">  1       -1 0.24821107E+00 0.35204361E+04</pdfrwt>
<totfact> 0.19686512E-01</totfact>
</mgrwt>
</event>
<event>
 6    1  0.1014650E-006  0.3336942E+04  0.7818608E-02  0.8153559E-01
          1   -1    0    0  501    0  0.00000000000E+00  0.00000000000E+00  0.27415489648E+04  0.27415489648E+04  0.00000000000E+00 0. -1.
         -1   -1    0    0    0  501 -0.00000000000E+00 -0.00000000000E+00 -0.10154096905E+04  0.10154096905E+04  0.00000000000E+00 0.  1.
         23    2    1    2    0    0 -0.21896609830E+03  0.14644122791E+04  0.17264753529E+04  0.22762663886E+04  0.90675533834E+02 0.  0.
         13    1    3    3    0    0 -0.16908974616E+03  0.11866469938E+04  0.13423512456E+04  0.17996192088E+04  0.00000000000E+00 0. -1.
        -13    1    3    3    0    0 -0.49876352139E+02  0.27776528533E+03  0.38412410729E+03  0.47664717983E+03  0.00000000000E+00 0.  1.
         22    1    1    2    0    0  0.21896609830E+03 -0.14644122791E+04 -0.33607853837E+00  0.14806922666E+04  0.00000000000E+00 0.  1.
<mgrwt>
<rscale>  0 0.33369419E+04</rscale>
<asrwt>0</asrwt>
<pdfrwt beam="1">  1        1 0.42177676E+00 0.33369419E+04</pdfrwt>
<pdfrwt beam="2">  1       -1 0.15621688E+00 0.33369419E+04</pdfrwt>
<totfact> 0.23678225E-01</totfact>
</mgrwt>
</event>
<event>
 6    1  0.1014650E-006  0.2153906E+04  0.7818608E-02  0.8537862E-01
         -2   -1    0    0    0  501 -0.00000000000E+00  0.00000000000E+00  0.11955601224E+04  0.11955601224E+04  0.00000000000E+00 0.  1.
          2   -1    0    0  501    0  0.00000000000E+00 -0.00000000000E+00 -0.97011286228E+03  0.97011286228E+03  0.00000000000E+00 0. -1.
         23    2    1    2    0    0  0.10456960648E+04 -0.78666319452E+02  0.35060438499E+03  0.11095797333E+04  0.92601835698E+02 0.  0.
         13    1    3    3    0    0  0.37808822523E+03 -0.65376702703E+02  0.10159645849E+03  0.39692147799E+03  0.00000000000E+00 0. -1.
        -13    1    3    3    0    0  0.66760783956E+03 -0.13289616749E+02  0.24900792649E+03  0.71265825528E+03  0.00000000000E+00 0.  1.
         22    1    1    2    0    0 -0.10456960648E+04  0.78666319452E+02 -0.12515712488E+03  0.10560932514E+04  0.00000000000E+00 0. -1.
<mgrwt>
<rscale>  0 0.21539065E+04</rscale>
<asrwt>0</asrwt>
<pdfrwt beam="1">  1        2 0.14924813E+00 0.21539065E+04</pdfrwt>
<pdfrwt beam="2">  1       -2 0.18393233E+00 0.21539065E+04</pdfrwt>
<totfact> 0.41162517E+00</totfact>
</mgrwt>
</event>
<event>
 6    1  0.1014650E-006  0.6905052E+03  0.7818608E-02  0.9733609E-01
         -2   -1    0    0    0  501 -0.00000000000E+00  0.00000000000E+00  0.12682233601E+03  0.12682233601E+03  0.00000000000E+00 0.  1.
          2   -1    0    0  501    0  0.00000000000E+00 -0.00000000000E+00 -0.93989238645E+03  0.93989238645E+03  0.00000000000E+00 0. -1.
         23    2    1    2    0    0 -0.32966846288E+03  0.72509850153E+02 -0.46632364919E+03  0.58280146518E+03  0.90889098562E+02 0.  0.
         13    1    3    3    0    0 -0.26485832033E+03  0.68334396354E+02 -0.42631824017E+03  0.50652419634E+03  0.00000000000E+00 0. -1.
        -13    1    3    3    0    0 -0.64810142543E+02  0.41754537984E+01 -0.40005409017E+02  0.76277268838E+02  0.00000000000E+00 0.  1.
         22    1    1    2    0    0  0.32966846288E+03 -0.72509850153E+02 -0.34674640126E+03  0.48391325728E+03  0.00000000000E+00 0. -1.
<mgrwt>
<rscale>  0 0.69050517E+03</rscale>
<asrwt>0</asrwt>
<pdfrwt beam="1">  1        2 0.14459883E+00 0.69050517E+03</pdfrwt>
<pdfrwt beam="2">  1       -2 0.19511129E-01 0.69050517E+03</pdfrwt>
<totfact> 0.61852292E+02</totfact>
</mgrwt>
</event>
<event>
 6    1  0.1014650E-006  0.1544481E+04  0.7818608E-02  0.8855401E-01
         -2   -1    0    0    0  501 -0.00000000000E+00  0.00000000000E+00  0.63818483706E+03  0.63818483706E+03  0.00000000000E+00 0.  1.
          2   -1    0    0  501    0  0.00000000000E+00 -0.00000000000E+00 -0.93445590417E+03  0.93445590417E+03  0.00000000000E+00 0. -1.
         23    2    1    2    0    0 -0.90607540901E+02  0.38686839474E+03  0.52229703283E+03  0.66273381437E+03  0.92439368758E+02 0.  0.
         11    1    3    3    0    0 -0.55905863405E+02  0.25882887174E+03  0.27291857403E+03  0.38026622051E+03  0.00000000000E+00 0. -1.
        -11    1    3    3    0    0 -0.34701677496E+02  0.12803952300E+03  0.24937845880E+03  0.28246759386E+03  0.00000000000E+00 0.  1.
         22    1    1    2    0    0  0.90607540901E+02 -0.38686839474E+03 -0.81856809993E+03  0.90990692686E+03  0.00000000000E+00 0. -1.
<mgrwt>
<rscale>  0 0.15444813E+04</rscale>
<asrwt>0</asrwt>
<pdfrwt beam="1">  1        2 0.14376245E+00 0.15444813E+04</pdfrwt>
<pdfrwt beam="2">  1       -2 0.98182283E-01 0.15444813E+04</pdfrwt>
<totfact> 0.23098501E+01</totfact>
</mgrwt>
</event>
<event>
 6    1  0.1014650E-006  0.5589061E+04  0.7818608E-02  0.7743552E-01
         -1   -1    0    0    0  501 -0.00000000000E+00  0.00000000000E+00  0.28150662250E+04  0.28150662250E+04  0.00000000000E+00 0.  1.
          1   -1    0    0  501    0  0.00000000000E+00 -0.00000000000E+00 -0.27741442037E+04  0.27741442037E+04  0.00000000000E+00 0. -1.
         23    2    1    2    0    0  0.96130139246E+03  0.19734959552E+04 -0.17076838567E+04  0.27827163224E+04  0.92408462915E+02 0.  0.
         13    1    3    3    0    0  0.38731938261E+03  0.76043846698E+03 -0.71781773996E+03  0.11151436114E+04  0.00000000000E+00 0.  1.
        -13    1    3    3    0    0  0.57398200985E+03  0.12130574882E+04 -0.98986611675E+03  0.16675727110E+04  0.00000000000E+00 0. -1.
         22    1    1    2    0    0 -0.96130139246E+03 -0.19734959552E+04  0.17486058779E+04  0.28064941063E+04  0.00000000000E+00 0.  1.
<mgrwt>
<rscale>  0 0.55890606E+04</rscale>
<asrwt>0</asrwt>
<pdfrwt beam="1">  1        1 0.42679142E+00 0.55890606E+04</pdfrwt>
<pdfrwt beam="2">  1       -1 0.43308711E+00 0.55890606E+04</pdfrwt>
<totfact> 0.25439430E-03</totfact>
</mgrwt>
</event>
<event>
 6    1  0.1014650E-006  0.1955166E+04  0.7818608E-02  0.8627873E-01
         -2   -1    0    0    0  501 -0.00000000000E+00  0.00000000000E+00  0.42132641632E+03  0.42132641632E+03  0.00000000000E+00 0.  1.
          2   -1    0    0  501    0  0.00000000000E+00 -0.00000000000E+00 -0.22682388845E+04  0.22682388845E+04  0.00000000000E+00 0. -1.
         23    2    1    2    0    0  0.36816113523E+03  0.87355542089E+03 -0.60932214727E+03  0.11306324937E+04  0.91731465095E+02 0.  0.
         13    1    3    3    0    0  0.16036336401E+03  0.32143660783E+03 -0.27637402594E+03  0.45323338754E+03  0.00000000000E+00 0. -1.
        -13    1    3    3    0    0  0.20779777122E+03  0.55211881306E+03 -0.33294812132E+03  0.67739910611E+03  0.00000000000E+00 0.  1.
         22    1    1    2    0    0 -0.36816113523E+03 -0.87355542089E+03 -0.12375903209E+04  0.15589328072E+04  0.00000000000E+00 0.  1.
<mgrwt>
<rscale>  0 0.19551664E+04</rscale>
<asrwt>0</asrwt>
<pdfrwt beam="1">  1        2 0.34895983E+00 0.19551664E+04</pdfrwt>
<pdfrwt beam="2">  1       -2 0.64819448E-01 0.19551664E+04</pdfrwt>
<totfact> 0.96787911E+00</totfact>
</mgrwt>
</event>
<event>
 6    1  0.1056006E-006  0.4572940E+04  0.7818608E-02  0.7897990E-01
         -2   -1    0    0    0  501 -0.00000000000E+00  0.00000000000E+00  0.20871549260E+04  0.20871549260E+04  0.00000000000E+00 0.  1.
          2   -1    0    0  501    0  0.00000000000E+00 -0.00000000000E+00 -0.25048190025E+04  0.25048190025E+04  0.00000000000E+00 0. -1.
         23    2    1    2    0    0 -0.58686321322E+03  0.71670339616E+03 -0.23070593863E+04  0.24877194700E+04  0.90293745579E+02 0.  0.
         11    1    3    3    0    0 -0.27654576812E+03  0.34706625841E+03 -0.12251224571E+04  0.13030186431E+04  0.00000000000E+00 0.  1.
        -11    1    3    3    0    0 -0.31031744510E+03  0.36963713775E+03 -0.10819369292E+04  0.11847008269E+04  0.00000000000E+00 0. -1.
         22    1    1    2    0    0  0.58686321322E+03 -0.71670339616E+03  0.18893953098E+04  0.21042544585E+04  0.00000000000E+00 0.  1.
<mgrwt>
<rscale>  0 0.45729401E+04</rscale>
<asrwt>0</asrwt>
<pdfrwt beam="1">  1        2 0.38535677E+00 0.45729401E+04</pdfrwt>
<pdfrwt beam="2">  1       -2 0.32110076E+00 0.45729401E+04</pdfrwt>
<totfact> 0.61413346E-02</totfact>
</mgrwt>
</event>
<event>
 6    1  0.1014650E-006  0.4273089E+04  0.7818608E-02  0.7951613E-01
          1   -1    0    0  501    0  0.00000000000E+00  0.00000000000E+00  0.24139478666E+04  0.24139478666E+04  0.00000000000E+00 0. -1.
         -1   -1    0    0    0  501 -0.00000000000E+00 -0.00000000000E+00 -0.18910192848E+04  0.18910192848E+04  0.00000000000E+00 0.  1.
         23    2    1    2    0    0 -0.97883360446E+03 -0.98551997768E+03 -0.13726653129E+04  0.19549371377E+04  0.90577587926E+02 0.  0.
         13    1    3    3    0    0 -0.82945553379E+03 -0.83589242135E+03 -0.11159222702E+04  0.16223424841E+04  0.00000000000E+00 0.  1.
        -13    1    3    3    0    0 -0.14937807067E+03 -0.14962755633E+03 -0.25674304279E+03  0.33259465365E+03  0.00000000000E+00 0. -1.
         22    1    1    2    0    0  0.97883360446E+03  0.98551997768E+03  0.18955938947E+04  0.23500300137E+04  0.00000000000E+00 0. -1.
<mgrwt>
<rscale>  0 0.42730888E+04</rscale>
<asrwt>0</asrwt>
<pdfrwt beam="1">  1        1 0.37137660E+00 0.42730888E+04</pdfrwt>
<pdfrwt beam="2">  1       -1 0.29092604E+00 0.42730888E+04</pdfrwt>
<totfact> 0.44977960E-02</totfact>
</mgrwt>
</event>
<event>
 6    1  0.1935697E-006  0.3817411E+04  0.7818608E-02  0.8042429E-01
         -2   -1    0    0    0  501 -0.00000000000E+00  0.00000000000E+00  0.13505556300E+04  0.13505556300E+04  0.00000000000E+00 0.  1.
          2   -1    0    0  501    0  0.00000000000E+00 -0.00000000000E+00 -0.26975249854E+04  0.26975249854E+04  0.00000000000E+00 0. -1.
         23    2    1    2    0    0  0.40889626171E+03  0.11988389711E+04  0.83859893129E+03  0.15219927769E+04  0.93823312975E+02 0.  0.
         13    1    3    3    0    0  0.27901937842E+03  0.86803032330E+03  0.64923126779E+03  0.11192987514E+04  0.00000000000E+00 0.  1.
        -13    1    3    3    0    0  0.12987688329E+03  0.33080864779E+03  0.18936766350E+03  0.40269402559E+03  0.00000000000E+00 0. -1.
         22    1    1    2    0    0 -0.40889626171E+03 -0.11988389711E+04 -0.21855682867E+04  0.25260878384E+04  0.00000000000E+00 0. -1.
<mgrwt>
<rscale>  0 0.38174115E+04</rscale>
<asrwt>0</asrwt>
<pdfrwt beam="1">  1        2 0.41500384E+00 0.38174115E+04</pdfrwt>
<pdfrwt beam="2">  1       -2 0.20777779E+00 0.38174115E+04</pdfrwt>
<totfact> 0.25244154E-01</totfact>
</mgrwt>
</event>
<event>
 6    1  0.1014650E-006  0.3104656E+04  0.7818608E-02  0.8214461E-01
         -2   -1    0    0    0  501 -0.00000000000E+00  0.00000000000E+00  0.10897929455E+04  0.10897929455E+04  0.00000000000E+00 0.  1.
          2   -1    0    0  501    0  0.00000000000E+00 -0.00000000000E+00 -0.22111736975E+04  0.22111736975E+04  0.00000000000E+00 0. -1.
         23    2    1    2    0    0  0.95338725544E+02  0.10172878034E+04 -0.18019146837E+04  0.20733305489E+04  0.88538637349E+02 0.  0.
         13    1    3    3    0    0 -0.30731581237E+01  0.38320354554E+03 -0.63745034108E+03  0.74377237039E+03  0.00000000000E+00 0. -1.
        -13    1    3    3    0    0  0.98411883668E+02  0.63408425783E+03 -0.11644643426E+04  0.13295581785E+04  0.00000000000E+00 0.  1.
         22    1    1    2    0    0 -0.95338725544E+02 -0.10172878034E+04  0.68053393162E+03  0.12276360941E+04  0.00000000000E+00 0.  1.
<mgrwt>
<rscale>  0 0.31046555E+04</rscale>
<asrwt>0</asrwt>
<pdfrwt beam="1">  1        2 0.34018056E+00 0.31046555E+04</pdfrwt>
<pdfrwt beam="2">  1       -2 0.16766046E+00 0.31046555E+04</pdfrwt>
<totfact> 0.95676154E-01</totfact>
</mgrwt>
</event>
<event>
 6    1  0.1014650E-006  0.9429924E+03  0.7818608E-02  0.9373379E-01
          2   -1    0    0  501    0  0.00000000000E+00  0.00000000000E+00  0.18005768504E+04  0.18005768504E+04  0.00000000000E+00 0. -1.
         -2   -1    0    0    0  501 -0.00000000000E+00 -0.00000000000E+00 -0.12346523498E+03  0.12346523498E+03  0.00000000000E+00 0.  1.
         23    2    1    2    0    0 -0.96758222989E+02 -0.36092626473E+03  0.27482274118E+03  0.47282052783E+03  0.91661279608E+02 0.  0.
         11    1    3    3    0    0  0.81345960372E+00 -0.12971313725E+03  0.61998636374E+02  0.14377061801E+03  0.00000000000E+00 0. -1.
        -11    1    3    3    0    0 -0.97571682593E+02 -0.23121312748E+03  0.21282410481E+03  0.32904990981E+03  0.00000000000E+00 0.  1.
         22    1    1    2    0    0  0.96758222989E+02  0.36092626473E+03  0.14022888742E+04  0.14512215575E+04  0.00000000000E+00 0. -1.
<mgrwt>
<rscale>  0 0.94299235E+03</rscale>
<asrwt>0</asrwt>
<pdfrwt beam="1">  1        2 0.27701180E+00 0.94299235E+03</pdfrwt>
<pdfrwt beam="2">  1       -2 0.18994653E-01 0.94299235E+03</pdfrwt>
<totfact> 0.20242550E+02</totfact>
</mgrwt>
</event>
<event>
 6    1  0.1014650E-006  0.3204933E+04  0.7818608E-02  0.8187515E-01
         -2   -1    0    0    0  501 -0.00000000000E+00  0.00000000000E+00  0.35107820925E+04  0.35107820925E+04  0.00000000000E+00 0.  1.
          2   -1    0    0  501    0  0.00000000000E+00 -0.00000000000E+00 -0.73143233707E+03  0.73143233707E+03  0.00000000000E+00 0. -1.
         23    2    1    2    0    0 -0.13992036944E+04  0.36634291228E+03  0.48150416375E+03  0.15270583620E+04  0.89904802534E+02 0.  0.
         11    1    3    3    0    0 -0.95119999096E+03  0.21957539907E+03  0.29183617081E+03  0.10189029047E+04  0.00000000000E+00 0.  1.
        -11    1    3    3    0    0 -0.44800370346E+03  0.14676751321E+03  0.18966799294E+03  0.50815545731E+03  0.00000000000E+00 0. -1.
         22    1    1    2    0    0  0.13992036944E+04 -0.36634291228E+03  0.22978455917E+04  0.27151560675E+04  0.00000000000E+00 0.  1.
<mgrwt>
<rscale>  0 0.32049334E+04</rscale>
<asrwt>0</asrwt>
<pdfrwt beam="1">  1        2 0.11252805E+00 0.32049334E+04</pdfrwt>
<pdfrwt beam="2">  1       -2 0.54012031E+00 0.32049334E+04</pdfrwt>
<totfact> 0.31219721E-02</totfact>
</mgrwt>
</event>
<event>
 6    1  0.1014650E-006  0.2739271E+04  0.7818608E-02  0.8322374E-01
          2   -1    0    0  501    0  0.00000000000E+00  0.00000000000E+00  0.17476171804E+04  0.17476171804E+04  0.00000000000E+00 0. -1.
         -2   -1    0    0    0  501 -0.00000000000E+00 -0.00000000000E+00 -0.10734054735E+04  0.10734054735E+04  0.00000000000E+00 0.  1.
         23    2    1    2    0    0  0.13216251166E+04 -0.38225372623E+02 -0.24479070387E+02  0.13255886266E+04  0.91825127875E+02 0.  0.
         13    1    3    3    0    0  0.47665688043E+03 -0.34818199569E+02 -0.47646093327E+02  0.48029599092E+03  0.00000000000E+00 0. -1.
        -13    1    3    3    0    0  0.84496823614E+03 -0.34071730537E+01  0.23167022939E+02  0.84529263564E+03  0.00000000000E+00 0.  1.
         22    1    1    2    0    0 -0.13216251166E+04  0.38225372623E+02  0.69869077731E+03  0.14954340273E+04  0.00000000000E+00 0. -1.
<mgrwt>
<rscale>  0 0.27392713E+04</rscale>
<asrwt>0</asrwt>
<pdfrwt beam="1">  1        2 0.26886418E+00 0.27392713E+04</pdfrwt>
<pdfrwt beam="2">  1       -2 0.16513930E+00 0.27392713E+04</pdfrwt>
<totfact> 0.18639823E+00</totfact>
</mgrwt>
</event>
<event>
 6    1  0.1014650E-006  0.2914156E+04  0.7818608E-02  0.8268678E-01
          2   -1    0    0  501    0  0.00000000000E+00  0.00000000000E+00  0.34594733134E+04  0.34594733134E+04  0.00000000000E+00 0. -1.
         -2   -1    0    0    0  501 -0.00000000000E+00 -0.00000000000E+00 -0.61369917966E+03  0.61369917966E+03  0.00000000000E+00 0.  1.
         23    2    1    2    0    0  0.10604086238E+04  0.52709803231E+03  0.26074937716E+04  0.28652501792E+04  0.91301893283E+02 0.  0.
         11    1    3    3    0    0  0.38422694893E+03  0.18125483650E+03  0.10409870732E+04  0.11243388059E+04  0.00000000000E+00 0. -1.
        -11    1    3    3    0    0  0.67618167489E+03  0.34584319582E+03  0.15665066984E+04  0.17409113733E+04  0.00000000000E+00 0.  1.
         22    1    1    2    0    0 -0.10604086238E+04 -0.52709803231E+03  0.23828036213E+03  0.12079223138E+04  0.00000000000E+00 0.  1.
<mgrwt>
<rscale>  0 0.29141558E+04</rscale>
<asrwt>0</asrwt>
<pdfrwt beam="1">  1        2 0.53222665E+00 0.29141558E+04</pdfrwt>
<pdfrwt beam="2">  1       -2 0.94415260E-01 0.29141558E+04</pdfrwt>
<totfact> 0.70682509E-01</totfact>
</mgrwt>
</event>
<event>
 6    1  0.1014650E-006  0.2109613E+04  0.7818608E-02  0.8557020E-01
         -2   -1    0    0    0  501 -0.00000000000E+00  0.00000000000E+00  0.10364845088E+04  0.10364845088E+04  0.00000000000E+00 0.  1.
          2   -1    0    0  501    0  0.00000000000E+00 -0.00000000000E+00 -0.10734525884E+04  0.10734525884E+04  0.00000000000E+00 0. -1.
         23    2    1    2    0    0 -0.34375721447E+03  0.97119270575E+03  0.19903401221E+03  0.10530164372E+04  0.88570789747E+02 0.  0.
         13    1    3    3    0    0 -0.10492290303E+03  0.36220279039E+03  0.35667722856E+02  0.37877679892E+03  0.00000000000E+00 0.  1.
        -13    1    3    3    0    0 -0.23883431144E+03  0.60898991536E+03  0.16336628935E+03  0.67423963828E+03  0.00000000000E+00 0. -1.
         22    1    1    2    0    0  0.34375721447E+03 -0.97119270575E+03 -0.23600209183E+03  0.10569206600E+04  0.00000000000E+00 0.  1.
<mgrwt>
<rscale>  0 0.21096132E+04</rscale>
<asrwt>0</asrwt>
<pdfrwt beam="1">  1        2 0.16514655E+00 0.21096132E+04</pdfrwt>
<pdfrwt beam="2">  1       -2 0.15945916E+00 0.21096132E+04</pdfrwt>
<totfact> 0.52971036E+00</totfact>
</mgrwt>
</event>
<event>
 6    1  0.1014650E-006  0.3906578E+04  0.7818608E-02  0.8023662E-01
         -2   -1    0    0    0  501 -0.00000000000E+00  0.00000000000E+00  0.21554983875E+04  0.21554983875E+04  0.00000000000E+00 0.  1.
          2   -1    0    0  501    0  0.00000000000E+00 -0.00000000000E+00 -0.17700493305E+04  0.17700493305E+04  0.00000000000E+00 0. -1.
         23    2    1    2    0    0 -0.12842931739E+04 -0.13127817158E+04 -0.47249754332E+03  0.18985111720E+04  0.91027204142E+02 0.  0.
         13    1    3    3    0    0 -0.68633477113E+03 -0.64838866578E+03 -0.21564160801E+03  0.96848571651E+03  0.00000000000E+00 0. -1.
        -13    1    3    3    0    0 -0.59795840277E+03 -0.66439304999E+03 -0.25685593531E+03  0.93002545547E+03  0.00000000000E+00 0.  1.
         22    1    1    2    0    0  0.12842931739E+04  0.13127817158E+04  0.85794660036E+03  0.20270365460E+04  0.00000000000E+00 0.  1.
<mgrwt>
<rscale>  0 0.39065783E+04</rscale>
<asrwt>0</asrwt>
<pdfrwt beam="1">  1        2 0.27231528E+00 0.39065783E+04</pdfrwt>
<pdfrwt beam="2">  1       -2 0.33161513E+00 0.39065783E+04</pdfrwt>
<totfact> 0.14452492E-01</totfact>
</mgrwt>
</event>
<event>
 6    1  0.1014650E-006  0.1666062E+04  0.7818608E-02  0.8780961E-01
          4   -1    0    0  501    0  0.00000000000E+00  0.00000000000E+00  0.78966831322E+03  0.78966831322E+03  0.00000000000E+00 0. -1.
         -4   -1    0    0    0  501 -0.00000000000E+00 -0.00000000000E+00 -0.87877445813E+03  0.87877445813E+03  0.00000000000E+00 0.  1.
         23    2    1    2    0    0 -0.48616862641E+02 -0.31880079407E+03  0.72200921044E+03  0.79557069291E+03  0.87394975941E+02 0.  0.
         11    1    3    3    0    0 -0.11050907665E+01 -0.24890903182E+03  0.51592749165E+03  0.57283339985E+03  0.00000000000E+00 0.  1.
        -11    1    3    3    0    0 -0.47511771875E+02 -0.69891762241E+02  0.20608171879E+03  0.22273729305E+03  0.00000000000E+00 0. -1.
         22    1    1    2    0    0  0.48616862641E+02  0.31880079407E+03 -0.81111535535E+03  0.87287207844E+03  0.00000000000E+00 0.  1.
<mgrwt>
<rscale>  0 0.16660616E+04</rscale>
<asrwt>0</asrwt>
<pdfrwt beam="1">  1        4 0.12148743E+00 0.16660616E+04</pdfrwt>
<pdfrwt beam="2">  1       -4 0.13519607E+00 0.16660616E+04</pdfrwt>
<totfact> 0.38339998E-01</totfact>
</mgrwt>
</event>
<event>
 6    1  0.1014650E-006  0.2647918E+04  0.7818608E-02  0.8352104E-01
          2   -1    0    0  501    0  0.00000000000E+00  0.00000000000E+00  0.11009412050E+04  0.11009412050E+04  0.00000000000E+00 0. -1.
         -2   -1    0    0    0  501 -0.00000000000E+00 -0.00000000000E+00 -0.15921539630E+04  0.15921539630E+04  0.00000000000E+00 0.  1.
         23    2    1    2    0    0 -0.46539627584E+03  0.12362311828E+04 -0.30932383766E+03  0.13596991990E+04  0.90771385625E+02 0.  0.
         13    1    3    3    0    0 -0.28886037597E+03  0.88460630159E+03 -0.22082508742E+03  0.95641640767E+03  0.00000000000E+00 0.  1.
        -13    1    3    3    0    0 -0.17653589986E+03  0.35162488118E+03 -0.88498750244E+02  0.40328279135E+03  0.00000000000E+00 0. -1.
         22    1    1    2    0    0  0.46539627584E+03 -0.12362311828E+04 -0.18188892031E+03  0.13333959690E+04  0.00000000000E+00 0.  1.
<mgrwt>
<rscale>  0 0.26479184E+04</rscale>
<asrwt>0</asrwt>
<pdfrwt beam="1">  1        2 0.16937557E+00 0.26479184E+04</pdfrwt>
<pdfrwt beam="2">  1       -2 0.24494676E+00 0.26479184E+04</pdfrwt>
<totfact> 0.13233483E+00</totfact>
</mgrwt>
</event>
<event>
 6    1  0.1014650E-006  0.4197718E+04  0.7818608E-02  0.7965806E-01
          3   -1    0    0  501    0  0.00000000000E+00  0.00000000000E+00  0.17325433505E+04  0.17325433505E+04  0.00000000000E+00 0. -1.
         -3   -1    0    0    0  501 -0.00000000000E+00 -0.00000000000E+00 -0.25426255242E+04  0.25426255242E+04  0.00000000000E+00 0.  1.
         23    2    1    2    0    0  0.20871063388E+04 -0.17399680198E+03 -0.28023600590E+03  0.21148391040E+04  0.87888907846E+02 0.  0.
         11    1    3    3    0    0  0.12599179969E+04 -0.62321237838E+02 -0.17494156117E+03  0.12735312503E+04  0.00000000000E+00 0.  1.
        -11    1    3    3    0    0  0.82718834190E+03 -0.11167556414E+03 -0.10529444473E+03  0.84130785370E+03  0.00000000000E+00 0. -1.
         22    1    1    2    0    0 -0.20871063388E+04  0.17399680198E+03 -0.52984616783E+03  0.21603297707E+04  0.00000000000E+00 0. -1.
<mgrwt>
<rscale>  0 0.41977179E+04</rscale>
<asrwt>0</asrwt>
<pdfrwt beam="1">  1        3 0.26654513E+00 0.41977179E+04</pdfrwt>
<pdfrwt beam="2">  1       -3 0.39117315E+00 0.41977179E+04</pdfrwt>
<totfact> 0.14039585E-03</totfact>
</mgrwt>
</event>
<event>
 6    1  0.1014650E-006  0.7248104E+03  0.7818608E-02  0.9675719E-01
          2   -1    0    0  501    0  0.00000000000E+00  0.00000000000E+00  0.17350293074E+04  0.17350293074E+04  0.00000000000E+00 0. -1.
         -2   -1    0    0    0  501 -0.00000000000E+00 -0.00000000000E+00 -0.75697589376E+02  0.75697589376E+02  0.00000000000E+00 0.  1.
         23    2    1    2    0    0 -0.25212967648E+03  0.24478528053E+03  0.99076472198E+03  0.10554315668E+04  0.93977925618E+02 0.  0.
         13    1    3    3    0    0 -0.60352531286E+02  0.11505562175E+03  0.30097545381E+03  0.32782075579E+03  0.00000000000E+00 0.  1.
        -13    1    3    3    0    0 -0.19177714519E+03  0.12972965878E+03  0.68978926817E+03  0.72761081099E+03  0.00000000000E+00 0. -1.
         22    1    1    2    0    0  0.25212967648E+03 -0.24478528053E+03  0.66856699605E+03  0.75529533000E+03  0.00000000000E+00 0.  1.
<mgrwt>
<rscale>  0 0.72481042E+03</rscale>
<asrwt>0</asrwt>
<pdfrwt beam="1">  1        2 0.26692756E+00 0.72481042E+03</pdfrwt>
<pdfrwt beam="2">  1       -2 0.11645784E-01 0.72481042E+03</pdfrwt>
<totfact> 0.51083614E+02</totfact>
</mgrwt>
</event>
<event>
 6    1  0.1014650E-006  0.2809161E+04  0.7818608E-02  0.8300430E-01
          2   -1    0    0  501    0  0.00000000000E+00  0.00000000000E+00  0.17397668818E+04  0.17397668818E+04  0.00000000000E+00 0. -1.
         -2   -1    0    0    0  501 -0.00000000000E+00 -0.00000000000E+00 -0.11339714018E+04  0.11339714018E+04  0.00000000000E+00 0.  1.
         23    2    1    2    0    0  0.10117793847E+04 -0.14328941918E+03 -0.68039409563E+03  0.12310231514E+04  0.90843232847E+02 0.  0.
         13    1    3    3    0    0  0.52753135034E+03 -0.29826321265E+02 -0.36162735046E+03  0.64027593710E+03  0.00000000000E+00 0. -1.
        -13    1    3    3    0    0  0.48424803439E+03 -0.11346309792E+03 -0.31876674517E+03  0.59074721432E+03  0.00000000000E+00 0.  1.
         22    1    1    2    0    0 -0.10117793847E+04  0.14328941918E+03  0.12861895756E+04  0.16427151321E+04  0.00000000000E+00 0. -1.
<mgrwt>
<rscale>  0 0.28091607E+04</rscale>
<asrwt>0</asrwt>
<pdfrwt beam="1">  1        2 0.26765644E+00 0.28091607E+04</pdfrwt>
<pdfrwt beam="2">  1       -2 0.17445714E+00 0.28091607E+04</pdfrwt>
<totfact> 0.16064983E+00</totfact>
</mgrwt>
</event>
<event>
 6    1  0.1014650E-006  0.1019203E+04  0.7818608E-02  0.9287731E-01
         -1   -1    0    0    0  501 -0.00000000000E+00  0.00000000000E+00  0.12003706957E+04  0.12003706957E+04  0.00000000000E+00 0.  1.
          1   -1    0    0  501    0  0.00000000000E+00 -0.00000000000E+00 -0.21634440343E+03  0.21634440343E+03  0.00000000000E+00 0. -1.
         23    2    1    2    0    0  0.41810558058E+03 -0.43125104367E+02  0.10578621204E+03  0.44307364065E+03  0.91931916367E+02 0.  0.
         13    1    3    3    0    0  0.65703777014E+02 -0.31511343390E+02  0.43955768303E+02  0.85100297551E+02  0.00000000000E+00 0.  1.
        -13    1    3    3    0    0  0.35240180356E+03 -0.11613760978E+02  0.61830443736E+02  0.35797334310E+03  0.00000000000E+00 0. -1.
         22    1    1    2    0    0 -0.41810558058E+03  0.43125104367E+02  0.87824008025E+03  0.97364145850E+03  0.00000000000E+00 0.  1.
<mgrwt>
<rscale>  0 0.10192026E+04</rscale>
<asrwt>0</asrwt>
<pdfrwt beam="1">  1        1 0.33283755E-01 0.10192026E+04</pdfrwt>
<pdfrwt beam="2">  1       -1 0.18467241E+00 0.10192026E+04</pdfrwt>
<totfact> 0.25939557E+01</totfact>
</mgrwt>
</event>
<event>
 6    1  0.1014650E-006  0.5767109E+03  0.7818608E-02  0.9954937E-01
          2   -1    0    0  501    0  0.00000000000E+00  0.00000000000E+00  0.43521241642E+03  0.43521241642E+03  0.00000000000E+00 0. -1.
         -2   -1    0    0    0  501 -0.00000000000E+00 -0.00000000000E+00 -0.19105350772E+03  0.19105350772E+03  0.00000000000E+00 0.  1.
         23    2    1    2    0    0 -0.36236840656E+02  0.16443784939E+03 -0.11914736820E+03  0.22583569829E+03  0.91938851100E+02 0.  0.
         11    1    3    3    0    0  0.11130748372E+02  0.12736005891E+03 -0.10122966276E+03  0.16307030014E+03  0.00000000000E+00 0. -1.
        -11    1    3    3    0    0 -0.47367589028E+02  0.37077790476E+02 -0.17917705444E+02  0.62765398153E+02  0.00000000000E+00 0.  1.
         22    1    1    2    0    0  0.36236840656E+02 -0.16443784939E+03  0.36330627691E+03  0.40043022585E+03  0.00000000000E+00 0. -1.
<mgrwt>
<rscale>  0 0.57671088E+03</rscale>
<asrwt>0</asrwt>
<pdfrwt beam="1">  1        2 0.66955756E-01 0.57671088E+03</pdfrwt>
<pdfrwt beam="2">  1       -2 0.29392847E-01 0.57671088E+03</pdfrwt>
<totfact> 0.77321208E+02</totfact>
</mgrwt>
</event>
<event>
 6    1  0.1014650E-006  0.2440439E+04  0.7818608E-02  0.8424517E-01
          2   -1    0    0  501    0  0.00000000000E+00  0.00000000000E+00  0.13227119434E+04  0.13227119434E+04  0.00000000000E+00 0. -1.
         -2   -1    0    0    0  501 -0.00000000000E+00 -0.00000000000E+00 -0.11256685117E+04  0.11256685117E+04  0.00000000000E+00 0.  1.
         23    2    1    2    0    0  0.92516213535E+03 -0.79924304107E+02  0.89022350700E+03  0.12895830233E+04  0.90628970976E+02 0.  0.
         13    1    3    3    0    0  0.62751983677E+03 -0.92421877419E+02  0.58014267906E+03  0.85958622431E+03  0.00000000000E+00 0.  1.
        -13    1    3    3    0    0  0.29764229858E+03  0.12497573312E+02  0.31008082794E+03  0.42999679894E+03  0.00000000000E+00 0. -1.
         22    1    1    2    0    0 -0.92516213535E+03  0.79924304107E+02 -0.69318007536E+03  0.11587974318E+04  0.00000000000E+00 0. -1.
<mgrwt>
<rscale>  0 0.24404386E+04</rscale>
<asrwt>0</asrwt>
<pdfrwt beam="1">  1        2 0.20349415E+00 0.24404386E+04</pdfrwt>
<pdfrwt beam="2">  1       -2 0.17317977E+00 0.24404386E+04</pdfrwt>
<totfact> 0.29086091E+00</totfact>
</mgrwt>
</event>
<event>
 6    1  0.1245863E-006  0.2137276E+04  0.7818608E-02  0.8544999E-01
          2   -1    0    0  501    0  0.00000000000E+00  0.00000000000E+00  0.10515772032E+04  0.10515772032E+04  0.00000000000E+00 0. -1.
         -2   -1    0    0    0  501 -0.00000000000E+00 -0.00000000000E+00 -0.10859751473E+04  0.10859751473E+04  0.00000000000E+00 0.  1.
         23    2    1    2    0    0 -0.88444611374E+02  0.71343228357E+03 -0.80536304044E+03  0.10834198862E+04  0.91547531260E+02 0.  0.
         13    1    3    3    0    0 -0.80670987461E+02  0.34024657516E+03 -0.35196666615E+03  0.49614118374E+03  0.00000000000E+00 0.  1.
        -13    1    3    3    0    0 -0.77736239129E+01  0.37318570841E+03 -0.45339637429E+03  0.58727870250E+03  0.00000000000E+00 0. -1.
         22    1    1    2    0    0  0.88444611374E+02 -0.71343228357E+03  0.77096509635E+03  0.10541324643E+04  0.00000000000E+00 0. -1.
<mgrwt>
<rscale>  0 0.21372756E+04</rscale>
<asrwt>0</asrwt>
<pdfrwt beam="1">  1        2 0.16178111E+00 0.21372756E+04</pdfrwt>
<pdfrwt beam="2">  1       -2 0.16707310E+00 0.21372756E+04</pdfrwt>
<totfact> 0.47987911E+00</totfact>
</mgrwt>
</event>
<event>
 6    1  0.1014650E-006  0.1508873E+04  0.7818608E-02  0.8878574E-01
         -2   -1    0    0    0  501 -0.00000000000E+00  0.00000000000E+00  0.53259073686E+03  0.53259073686E+03  0.00000000000E+00 0.  1.
          2   -1    0    0  501    0  0.00000000000E+00 -0.00000000000E+00 -0.10686897845E+04  0.10686897845E+04  0.00000000000E+00 0. -1.
         23    2    1    2    0    0 -0.20788429429E+02  0.56451400117E+03 -0.79518044126E+03  0.97980535305E+03  0.92727446777E+02 0.  0.
         13    1    3    3    0    0  0.93667959283E+01  0.25622176162E+03 -0.43309712252E+03  0.50329955844E+03  0.00000000000E+00 0.  1.
        -13    1    3    3    0    0 -0.30155225357E+02  0.30829223955E+03 -0.36208331874E+03  0.47650579461E+03  0.00000000000E+00 0. -1.
         22    1    1    2    0    0  0.20788429429E+02 -0.56451400117E+03  0.25908139361E+03  0.62147516831E+03  0.00000000000E+00 0.  1.
<mgrwt>
<rscale>  0 0.15088728E+04</rscale>
<asrwt>0</asrwt>
<pdfrwt beam="1">  1        2 0.16441381E+00 0.15088728E+04</pdfrwt>
<pdfrwt beam="2">  1       -2 0.81937037E-01 0.15088728E+04</pdfrwt>
<totfact> 0.28817710E+01</totfact>
</mgrwt>
</event>
<event>
 6    1  0.1014650E-006  0.2929885E+04  0.7818608E-02  0.8264041E-01
         -2   -1    0    0    0  501 -0.00000000000E+00  0.00000000000E+00  0.19255649077E+04  0.19255649077E+04  0.00000000000E+00 0.  1.
          2   -1    0    0  501    0  0.00000000000E+00 -0.00000000000E+00 -0.11145071185E+04  0.11145071185E+04  0.00000000000E+00 0. -1.
         23    2    1    2    0    0 -0.38641614278E+01  0.10778743885E+04  0.14336735790E+04  0.17952915030E+04  0.76311993668E+02 0.  0.
         11    1    3    3    0    0 -0.17663735806E+02  0.32707389530E+03  0.48800448194E+03  0.58773949581E+03  0.00000000000E+00 0.  1.
        -11    1    3    3    0    0  0.13799574378E+02  0.75080049320E+03  0.94566909711E+03  0.12075520072E+04  0.00000000000E+00 0. -1.
         22    1    1    2    0    0  0.38641614278E+01 -0.10778743885E+04 -0.62261578988E+03  0.12447805232E+04  0.00000000000E+00 0. -1.
<mgrwt>
<rscale>  0 0.29298845E+04</rscale>
<asrwt>0</asrwt>
<pdfrwt beam="1">  1        2 0.17146263E+00 0.29298845E+04</pdfrwt>
<pdfrwt beam="2">  1       -2 0.29624076E+00 0.29298845E+04</pdfrwt>
<totfact> 0.61575106E-01</totfact>
</mgrwt>
</event>
<event>
 6    1  0.1014650E-006  0.9559828E+03  0.7818608E-02  0.9358185E-01
          1   -1    0    0  501    0  0.00000000000E+00  0.00000000000E+00  0.36429290177E+03  0.36429290177E+03  0.00000000000E+00 0. -1.
         -1   -1    0    0    0  501 -0.00000000000E+00 -0.00000000000E+00 -0.62717609198E+03  0.62717609198E+03  0.00000000000E+00 0.  1.
         23    2    1    2    0    0 -0.13465170310E+03  0.24746100430E+03  0.26249041949E+03  0.39532684663E+03  0.89521313359E+02 0.  0.
         11    1    3    3    0    0 -0.41267345140E+02  0.12819231911E+03  0.74508291970E+02  0.15390825197E+03  0.00000000000E+00 0. -1.
        -11    1    3    3    0    0 -0.93384357964E+02  0.11926868519E+03  0.18798212752E+03  0.24141859466E+03  0.00000000000E+00 0.  1.
         22    1    1    2    0    0  0.13465170310E+03 -0.24746100430E+03 -0.52537360970E+03  0.59614214712E+03  0.00000000000E+00 0.  1.
<mgrwt>
<rscale>  0 0.95598284E+03</rscale>
<asrwt>0</asrwt>
<pdfrwt beam="1">  1        1 0.56045062E-01 0.95598284E+03</pdfrwt>
<pdfrwt beam="2">  1       -1 0.96488630E-01 0.95598284E+03</pdfrwt>
<totfact> 0.70630829E+01</totfact>
</mgrwt>
</event>
<event>
 6    1  0.1014650E-006  0.2321172E+04  0.7818608E-02  0.8469620E-01
         -2   -1    0    0    0  501 -0.00000000000E+00  0.00000000000E+00  0.60770718740E+03  0.60770718740E+03  0.00000000000E+00 0.  1.
          2   -1    0    0  501    0  0.00000000000E+00 -0.00000000000E+00 -0.22164626784E+04  0.22164626784E+04  0.00000000000E+00 0. -1.
         23    2    1    2    0    0  0.90233153817E+03  0.58755817316E+03 -0.28472040489E+03  0.11175663029E+04  0.91988699405E+02 0.  0.
         13    1    3    3    0    0  0.56677656003E+03  0.32778334882E+03 -0.14300539222E+03  0.67017022835E+03  0.00000000000E+00 0.  1.
        -13    1    3    3    0    0  0.33555497814E+03  0.25977482435E+03 -0.14171501267E+03  0.44739607456E+03  0.00000000000E+00 0. -1.
         22    1    1    2    0    0 -0.90233153817E+03 -0.58755817316E+03 -0.13240350861E+04  0.17066035629E+04  0.00000000000E+00 0. -1.
<mgrwt>
<rscale>  0 0.23211724E+04</rscale>
<asrwt>0</asrwt>
<pdfrwt beam="1">  1        2 0.34099426E+00 0.23211724E+04</pdfrwt>
<pdfrwt beam="2">  1       -2 0.93493414E-01 0.23211724E+04</pdfrwt>
<totfact> 0.44252702E+00</totfact>
</mgrwt>
</event>
<event>
 6    1  0.1014650E-006  0.7692797E+03  0.7818608E-02  0.9605580E-01
          1   -1    0    0  501    0  0.00000000000E+00  0.00000000000E+00  0.21443196036E+04  0.21443196036E+04  0.00000000000E+00 0. -1.
         -1   -1    0    0    0  501 -0.00000000000E+00 -0.00000000000E+00 -0.68995233556E+02  0.68995233556E+02  0.00000000000E+00 0.  1.
         23    2    1    2    0    0  0.34027333902E+03 -0.11459019655E+03  0.70821175975E+03  0.79983906884E+03  0.96238147343E+02 0.  0.
         11    1    3    3    0    0  0.17451262337E+02 -0.33916139876E+02  0.57785525199E+02  0.69238847649E+02  0.00000000000E+00 0.  1.
        -11    1    3    3    0    0  0.32282207668E+03 -0.80674056672E+02  0.65042623455E+03  0.73060022119E+03  0.00000000000E+00 0. -1.
         22    1    1    2    0    0 -0.34027333902E+03  0.11459019655E+03  0.13671126103E+04  0.14134757684E+04  0.00000000000E+00 0. -1.
<mgrwt>
<rscale>  0 0.76927975E+03</rscale>
<asrwt>0</asrwt>
<pdfrwt beam="1">  1        1 0.32989527E+00 0.76927975E+03</pdfrwt>
<pdfrwt beam="2">  1       -1 0.10614653E-01 0.76927975E+03</pdfrwt>
<totfact> 0.14071792E+02</totfact>
</mgrwt>
</event>
<event>
 6    1  0.1014650E-006  0.3023356E+04  0.7818608E-02  0.8237093E-01
          1   -1    0    0  501    0  0.00000000000E+00  0.00000000000E+00  0.17139537613E+04  0.17139537613E+04  0.00000000000E+00 0. -1.
         -1   -1    0    0    0  501 -0.00000000000E+00 -0.00000000000E+00 -0.13332740097E+04  0.13332740097E+04  0.00000000000E+00 0.  1.
         23    2    1    2    0    0 -0.47556636360E+03  0.29928920630E+03 -0.12223815795E+04  0.13485391514E+04  0.92756249960E+02 0.  0.
         11    1    3    3    0    0 -0.24676796845E+03  0.20412101230E+03 -0.64091345095E+03  0.71647042473E+03  0.00000000000E+00 0. -1.
        -11    1    3    3    0    0 -0.22879839515E+03  0.95168193997E+02 -0.58146812853E+03  0.63206872670E+03  0.00000000000E+00 0.  1.
         22    1    1    2    0    0  0.47556636360E+03 -0.29928920630E+03  0.16030613311E+04  0.16986886196E+04  0.00000000000E+00 0. -1.
<mgrwt>
<rscale>  0 0.30233558E+04</rscale>
<asrwt>0</asrwt>
<pdfrwt beam="1">  1        1 0.26368520E+00 0.30233558E+04</pdfrwt>
<pdfrwt beam="2">  1       -1 0.20511908E+00 0.30233558E+04</pdfrwt>
<totfact> 0.54968422E-01</totfact>
</mgrwt>
</event>
<event>
 6    1  0.1014650E-006  0.3374608E+04  0.7818608E-02  0.8144167E-01
          2   -1    0    0  501    0  0.00000000000E+00  0.00000000000E+00  0.21594520205E+04  0.21594520205E+04  0.00000000000E+00 0. -1.
         -2   -1    0    0    0  501 -0.00000000000E+00 -0.00000000000E+00 -0.13183874677E+04  0.13183874677E+04  0.00000000000E+00 0.  1.
         23    2    1    2    0    0 -0.10037373971E+04 -0.12998161731E+04  0.28024955503E+02  0.16453427671E+04  0.96729401010E+02 0.  0.
         11    1    3    3    0    0 -0.47821587220E+03 -0.57211164504E+03 -0.25862124256E+02  0.74610388304E+03  0.00000000000E+00 0. -1.
        -11    1    3    3    0    0 -0.52552152488E+03 -0.72770452806E+03  0.53887079759E+02  0.89923888407E+03  0.00000000000E+00 0.  1.
         22    1    1    2    0    0  0.10037373971E+04  0.12998161731E+04  0.81303959723E+03  0.18324967211E+04  0.00000000000E+00 0. -1.
<mgrwt>
<rscale>  0 0.33746078E+04</rscale>
<asrwt>0</asrwt>
<pdfrwt beam="1">  1        2 0.33222339E+00 0.33746078E+04</pdfrwt>
<pdfrwt beam="2">  1       -2 0.20282884E+00 0.33746078E+04</pdfrwt>
<totfact> 0.57577865E-01</totfact>
</mgrwt>
</event>
<event>
 6    1  0.1014650E-006  0.1557339E+04  0.7818608E-02  0.8847193E-01
          1   -1    0    0  501    0  0.00000000000E+00  0.00000000000E+00  0.14508521900E+04  0.14508521900E+04  0.00000000000E+00 0. -1.
         -1   -1    0    0    0  501 -0.00000000000E+00 -0.00000000000E+00 -0.41791049556E+03  0.41791049556E+03  0.00000000000E+00 0.  1.
         23    2    1    2    0    0  0.23453134991E+03  0.35857526396E+03 -0.25737292688E+03  0.50916973324E+03  0.97117556307E+02 0.  0.
         13    1    3    3    0    0  0.16030045300E+03  0.18409708703E+03 -0.10419031284E+03  0.26541212100E+03  0.00000000000E+00 0. -1.
        -13    1    3    3    0    0  0.74230896912E+02  0.17447817693E+03 -0.15318261404E+03  0.24375761224E+03  0.00000000000E+00 0.  1.
         22    1    1    2    0    0 -0.23453134991E+03 -0.35857526396E+03  0.12903146213E+04  0.13595929523E+04  0.00000000000E+00 0. -1.
<mgrwt>
<rscale>  0 0.15573392E+04</rscale>
<asrwt>0</asrwt>
<pdfrwt beam="1">  1        1 0.22320803E+00 0.15573392E+04</pdfrwt>
<pdfrwt beam="2">  1       -1 0.64293923E-01 0.15573392E+04</pdfrwt>
<totfact> 0.16717321E+01</totfact>
</mgrwt>
</event>
<event>
 6    1  0.1014650E-006  0.3327224E+04  0.7818608E-02  0.8156003E-01
          2   -1    0    0  501    0  0.00000000000E+00  0.00000000000E+00  0.30162753515E+04  0.30162753515E+04  0.00000000000E+00 0. -1.
         -2   -1    0    0    0  501 -0.00000000000E+00 -0.00000000000E+00 -0.91755726327E+03  0.91755726327E+03  0.00000000000E+00 0.  1.
         23    2    1    2    0    0 -0.81717130342E+03  0.14470979625E+04  0.10030269559E+04  0.19432546811E+04  0.91182395504E+02 0.  0.
         13    1    3    3    0    0 -0.64789483133E+02  0.10106807742E+03  0.47114130695E+02  0.12896578891E+03  0.00000000000E+00 0.  1.
        -13    1    3    3    0    0 -0.75238182028E+03  0.13460298851E+04  0.95591282518E+03  0.18142888922E+04  0.00000000000E+00 0. -1.
         22    1    1    2    0    0  0.81717130342E+03 -0.14470979625E+04  0.10956911324E+04  0.19905779336E+04  0.00000000000E+00 0. -1.
<mgrwt>
<rscale>  0 0.33272243E+04</rscale>
<asrwt>0</asrwt>
<pdfrwt beam="1">  1        2 0.46404236E+00 0.33272243E+04</pdfrwt>
<pdfrwt beam="2">  1       -2 0.14116266E+00 0.33272243E+04</pdfrwt>
<totfact> 0.49779778E-01</totfact>
</mgrwt>
</event>
<event>
 6    1  0.1014650E-006  0.9985291E+03  0.7818608E-02  0.9310160E-01
         -1   -1    0    0    0  501 -0.00000000000E+00  0.00000000000E+00  0.12399739323E+03  0.12399739323E+03  0.00000000000E+00 0.  1.
          1   -1    0    0  501    0  0.00000000000E+00 -0.00000000000E+00 -0.20102446326E+04  0.20102446326E+04  0.00000000000E+00 0. -1.
         23    2    1    2    0    0  0.13788461868E+03 -0.47070203929E+03 -0.80864806479E+03  0.95026881712E+03  0.92339342893E+02 0.  0.
         11    1    3    3    0    0  0.86698827817E+02 -0.40856516364E+03 -0.69833805399E+03  0.81370646878E+03  0.00000000000E+00 0. -1.
        -11    1    3    3    0    0  0.51185790862E+02 -0.62136875646E+02 -0.11031001080E+03  0.13656234834E+03  0.00000000000E+00 0.  1.
         22    1    1    2    0    0 -0.13788461868E+03  0.47070203929E+03 -0.10775991746E+04  0.11839732087E+04  0.00000000000E+00 0.  1.
<mgrwt>
<rscale>  0 0.99852911E+03</rscale>
<asrwt>0</asrwt>
<pdfrwt beam="1">  1        1 0.30926840E+00 0.99852911E+03</pdfrwt>
<pdfrwt beam="2">  1       -1 0.19076523E-01 0.99852911E+03</pdfrwt>
<totfact> 0.65420832E+01</totfact>
</mgrwt>
</event>
<event>
 6    1  0.1014650E-006  0.2145629E+04  0.7818608E-02  0.8541406E-01
         -2   -1    0    0    0  501 -0.00000000000E+00  0.00000000000E+00  0.60893704934E+03  0.60893704934E+03  0.00000000000E+00 0.  1.
          2   -1    0    0  501    0  0.00000000000E+00 -0.00000000000E+00 -0.18900656240E+04  0.18900656240E+04  0.00000000000E+00 0. -1.
         23    2    1    2    0    0 -0.94932349982E+03  0.20608741096E+03 -0.11662019563E+03  0.98250443956E+03  0.89596737987E+02 0.  0.
         13    1    3    3    0    0 -0.99681239689E+02 -0.48093093231E+01 -0.41441454280E+01  0.99883196501E+02  0.00000000000E+00 0.  1.
        -13    1    3    3    0    0 -0.84964226013E+03  0.21089672029E+03 -0.11247605020E+03  0.88262124306E+03  0.00000000000E+00 0. -1.
         22    1    1    2    0    0  0.94932349982E+03 -0.20608741096E+03 -0.11645083790E+04  0.15164982338E+04  0.00000000000E+00 0. -1.
<mgrwt>
<rscale>  0 0.21456290E+04</rscale>
<asrwt>0</asrwt>
<pdfrwt beam="1">  1        2 0.29077932E+00 0.21456290E+04</pdfrwt>
<pdfrwt beam="2">  1       -2 0.93682625E-01 0.21456290E+04</pdfrwt>
<totfact> 0.67985532E+00</totfact>
</mgrwt>
</event>
<event>
 6    1  0.1014650E-006  0.1947704E+04  0.7818608E-02  0.8631469E-01
         -2   -1    0    0    0  501 -0.00000000000E+00  0.00000000000E+00  0.82556423278E+03  0.82556423278E+03  0.00000000000E+00 0.  1.
          2   -1    0    0  501    0  0.00000000000E+00 -0.00000000000E+00 -0.11487749067E+04  0.11487749067E+04  0.00000000000E+00 0. -1.
         23    2    1    2    0    0  0.14444592877E+03  0.70923784811E+03 -0.81948622716E+03  0.10967444858E+04  0.86068804529E+02 0.  0.
         11    1    3    3    0    0  0.70542202066E+02  0.29394404457E+03 -0.40489769742E+03  0.50529342860E+03  0.00000000000E+00 0. -1.
        -11    1    3    3    0    0  0.73903726702E+02  0.41529380354E+03 -0.41458852974E+03  0.59145105721E+03  0.00000000000E+00 0.  1.
         22    1    1    2    0    0 -0.14444592877E+03 -0.70923784811E+03  0.49627555320E+03  0.87759465372E+03  0.00000000000E+00 0.  1.
<mgrwt>
<rscale>  0 0.19477038E+04</rscale>
<asrwt>0</asrwt>
<pdfrwt beam="1">  1        2 0.17673460E+00 0.19477038E+04</pdfrwt>
<pdfrwt beam="2">  1       -2 0.12700988E+00 0.19477038E+04</pdfrwt>
<totfact> 0.87409425E+00</totfact>
</mgrwt>
</event>
<event>
 6    1  0.1014650E-006  0.1707007E+04  0.7818608E-02  0.8757378E-01
          2   -1    0    0  501    0  0.00000000000E+00  0.00000000000E+00  0.55677213407E+03  0.55677213407E+03  0.00000000000E+00 0. -1.
         -2   -1    0    0    0  501 -0.00000000000E+00 -0.00000000000E+00 -0.13083781649E+04  0.13083781649E+04  0.00000000000E+00 0.  1.
         23    2    1    2    0    0  0.48574435793E+03  0.68940323040E+03 -0.25159799497E+03  0.88472568113E+03  0.90628827837E+02 0.  0.
         13    1    3    3    0    0  0.14197570723E+03  0.13995263087E+03 -0.74630362260E+02  0.21286975197E+03  0.00000000000E+00 0. -1.
        -13    1    3    3    0    0  0.34376865070E+03  0.54945059953E+03 -0.17696763271E+03  0.67185592917E+03  0.00000000000E+00 0.  1.
         22    1    1    2    0    0 -0.48574435793E+03 -0.68940323040E+03 -0.50000803589E+03  0.98042461786E+03  0.00000000000E+00 0. -1.
<mgrwt>
<rscale>  0 0.17070073E+04</rscale>
<asrwt>0</asrwt>
<pdfrwt beam="1">  1        2 0.85657253E-01 0.17070073E+04</pdfrwt>
<pdfrwt beam="2">  1       -2 0.20128895E+00 0.17070073E+04</pdfrwt>
<totfact> 0.67242838E+00</totfact>
</mgrwt>
</event>
<event>
 6    1  0.1014650E-006  0.1953953E+04  0.7818608E-02  0.8628457E-01
         -1   -1    0    0    0  501 -0.00000000000E+00  0.00000000000E+00  0.55667278161E+03  0.55667278161E+03  0.00000000000E+00 0.  1.
          1   -1    0    0  501    0  0.00000000000E+00 -0.00000000000E+00 -0.17146217382E+04  0.17146217382E+04  0.00000000000E+00 0. -1.
         23    2    1    2    0    0 -0.85364082808E+03  0.44589477154E+03 -0.75684218363E+03  0.12280249219E+04  0.87808354906E+02 0.  0.
         11    1    3    3    0    0 -0.38622370143E+02  0.42417627053E+02 -0.52175841589E+02  0.77545219104E+02  0.00000000000E+00 0. -1.
        -11    1    3    3    0    0 -0.81501845794E+03  0.40347714449E+03 -0.70466634204E+03  0.11504797028E+04  0.00000000000E+00 0.  1.
         22    1    1    2    0    0  0.85364082808E+03 -0.44589477154E+03 -0.40110677298E+03  0.10432695979E+04  0.00000000000E+00 0.  1.
<mgrwt>
<rscale>  0 0.19539532E+04</rscale>
<asrwt>0</asrwt>
<pdfrwt beam="1">  1        1 0.26378795E+00 0.19539532E+04</pdfrwt>
<pdfrwt beam="2">  1       -1 0.85641968E-01 0.19539532E+04</pdfrwt>
<totfact> 0.58419257E+00</totfact>
</mgrwt>
</event>
<event>
 6    1  0.1014650E-006  0.1427469E+04  0.7818608E-02  0.8934172E-01
         -2   -1    0    0    0  501 -0.00000000000E+00  0.00000000000E+00  0.54144937612E+03  0.54144937612E+03  0.00000000000E+00 0.  1.
          2   -1    0    0  501    0  0.00000000000E+00 -0.00000000000E+00 -0.94083885747E+03  0.94083885747E+03  0.00000000000E+00 0. -1.
         23    2    1    2    0    0 -0.64152068331E+03  0.10191404508E+03 -0.49917474003E+03  0.82510305607E+03  0.98409208672E+02 0.  0.
         11    1    3    3    0    0 -0.34753850247E+03  0.46277312947E+02 -0.20830120342E+03  0.40781612491E+03  0.00000000000E+00 0.  1.
        -11    1    3    3    0    0 -0.29398218084E+03  0.55636732135E+02 -0.29087353661E+03  0.41728693116E+03  0.00000000000E+00 0. -1.
         22    1    1    2    0    0  0.64152068331E+03 -0.10191404508E+03  0.99785258678E+02  0.65718517752E+03  0.00000000000E+00 0.  1.
<mgrwt>
<rscale>  0 0.14274685E+04</rscale>
<asrwt>0</asrwt>
<pdfrwt beam="1">  1        2 0.14474444E+00 0.14274685E+04</pdfrwt>
<pdfrwt beam="2">  1       -2 0.83299904E-01 0.14274685E+04</pdfrwt>
<totfact> 0.33747983E+01</totfact>
</mgrwt>
</event>
<event>
 6    1  0.1014650E-006  0.1802669E+04  0.7818608E-02  0.8704881E-01
          1   -1    0    0  501    0  0.00000000000E+00  0.00000000000E+00  0.12930445126E+04  0.12930445126E+04  0.00000000000E+00 0. -1.
         -1   -1    0    0    0  501 -0.00000000000E+00 -0.00000000000E+00 -0.62828798225E+03  0.62828798225E+03  0.00000000000E+00 0.  1.
         23    2    1    2    0    0 -0.85009592757E+03  0.14114839544E+03  0.60625415644E+03  0.10576146686E+04  0.91753634862E+02 0.  0.
         13    1    3    3    0    0 -0.76797475890E+03  0.15088049173E+03  0.56437353738E+03  0.96491846432E+03  0.00000000000E+00 0.  1.
        -13    1    3    3    0    0 -0.82121168674E+02 -0.97320962886E+01  0.41880619060E+02  0.92696204320E+02  0.00000000000E+00 0. -1.
         22    1    1    2    0    0  0.85009592757E+03 -0.14114839544E+03  0.58502373936E+02  0.86371782624E+03  0.00000000000E+00 0.  1.
<mgrwt>
<rscale>  0 0.18026695E+04</rscale>
<asrwt>0</asrwt>
<pdfrwt beam="1">  1        1 0.19892992E+00 0.18026695E+04</pdfrwt>
<pdfrwt beam="2">  1       -1 0.96659690E-01 0.18026695E+04</pdfrwt>
<totfact> 0.88891996E+00</totfact>
</mgrwt>
</event>
<event>
 6    1  0.1014650E-006  0.3020520E+04  0.7818608E-02  0.8237896E-01
         -2   -1    0    0    0  501 -0.00000000000E+00  0.00000000000E+00  0.16434043388E+04  0.16434043388E+04  0.00000000000E+00 0.  1.
          2   -1    0    0  501    0  0.00000000000E+00 -0.00000000000E+00 -0.13879023454E+04  0.13879023454E+04  0.00000000000E+00 0. -1.
         23    2    1    2    0    0  0.67546207403E+03  0.11806594127E+04 -0.52767886816E+03  0.14617277839E+04  0.89428541961E+02 0.  0.
         13    1    3    3    0    0  0.56083124079E+03  0.10305570226E+04 -0.43472930920E+03  0.12512270097E+04  0.00000000000E+00 0. -1.
        -13    1    3    3    0    0  0.11463083324E+03  0.15010239010E+03 -0.92949558957E+02  0.21050077423E+03  0.00000000000E+00 0.  1.
         22    1    1    2    0    0 -0.67546207403E+03 -0.11806594127E+04  0.78318086159E+03  0.15695789003E+04  0.00000000000E+00 0.  1.
<mgrwt>
<rscale>  0 0.30205196E+04</rscale>
<asrwt>0</asrwt>
<pdfrwt beam="1">  1        2 0.21352344E+00 0.30205196E+04</pdfrwt>
<pdfrwt beam="2">  1       -2 0.25283144E+00 0.30205196E+04</pdfrwt>
<totfact> 0.77574965E-01</totfact>
</mgrwt>
</event>
<event>
 6    1  0.1014650E-006  0.3925888E+04  0.7818608E-02  0.8019666E-01
         -1   -1    0    0    0  501 -0.00000000000E+00  0.00000000000E+00  0.22803434176E+04  0.22803434176E+04  0.00000000000E+00 0.  1.
          1   -1    0    0  501    0  0.00000000000E+00 -0.00000000000E+00 -0.16897232254E+04  0.16897232254E+04  0.00000000000E+00 0. -1.
         23    2    1    2    0    0 -0.21498879402E+03  0.96485578459E+03 -0.14182528250E+04  0.17311522485E+04  0.90995413238E+02 0.  0.
         13    1    3    3    0    0 -0.11695805247E+03  0.32616116733E+03 -0.50099414079E+03  0.60914318696E+03  0.00000000000E+00 0.  1.
        -13    1    3    3    0    0 -0.98030741543E+02  0.63869461726E+03 -0.91725868418E+03  0.11220090615E+04  0.00000000000E+00 0. -1.
         22    1    1    2    0    0  0.21498879402E+03 -0.96485578459E+03  0.20088730172E+04  0.22389143945E+04  0.00000000000E+00 0.  1.
<mgrwt>
<rscale>  0 0.39258880E+04</rscale>
<asrwt>0</asrwt>
<pdfrwt beam="1">  1        1 0.25995742E+00 0.39258880E+04</pdfrwt>
<pdfrwt beam="2">  1       -1 0.35082207E+00 0.39258880E+04</pdfrwt>
<totfact> 0.58496162E-02</totfact>
</mgrwt>
</event>
<event>
 6    1  0.1014650E-006  0.1115899E+04  0.7818608E-02  0.9189832E-01
         -1   -1    0    0    0  501 -0.00000000000E+00  0.00000000000E+00  0.14490425248E+03  0.14490425248E+03  0.00000000000E+00 0.  1.
          1   -1    0    0  501    0  0.00000000000E+00 -0.00000000000E+00 -0.21483688538E+04  0.21483688538E+04  0.00000000000E+00 0. -1.
         23    2    1    2    0    0 -0.17790471785E+03 -0.46946088641E+03 -0.52559410475E+03  0.73245767289E+03  0.90561951851E+02 0.  0.
         13    1    3    3    0    0 -0.74254659971E+02 -0.17078419298E+03 -0.25843693416E+03  0.31854457151E+03  0.00000000000E+00 0. -1.
        -13    1    3    3    0    0 -0.10365005788E+03 -0.29867669343E+03 -0.26715717059E+03  0.41391310138E+03  0.00000000000E+00 0.  1.
         22    1    1    2    0    0  0.17790471785E+03  0.46946088641E+03 -0.14778704966E+04  0.15608154334E+04  0.00000000000E+00 0.  1.
<mgrwt>
<rscale>  0 0.11158992E+04</rscale>
<asrwt>0</asrwt>
<pdfrwt beam="1">  1        1 0.33051829E+00 0.11158992E+04</pdfrwt>
<pdfrwt beam="2">  1       -1 0.22292962E-01 0.11158992E+04</pdfrwt>
<totfact> 0.40224207E+01</totfact>
</mgrwt>
</event>
<event>
 6    1  0.1014650E-006  0.2804396E+04  0.7818608E-02  0.8301905E-01
         -1   -1    0    0    0  501 -0.00000000000E+00  0.00000000000E+00  0.16266430971E+04  0.16266430971E+04  0.00000000000E+00 0.  1.
          1   -1    0    0  501    0  0.00000000000E+00 -0.00000000000E+00 -0.12087221528E+04  0.12087221528E+04  0.00000000000E+00 0. -1.
         23    2    1    2    0    0 -0.12102341156E+03 -0.13556542818E+04  0.54361132016E+03  0.14685282924E+04  0.92827153046E+02 0.  0.
         11    1    3    3    0    0 -0.10060534646E+03 -0.60776269647E+03  0.24370448264E+03  0.66248683444E+03  0.00000000000E+00 0.  1.
        -11    1    3    3    0    0 -0.20418065097E+02 -0.74789158529E+03  0.29990683752E+03  0.80604145794E+03  0.00000000000E+00 0. -1.
         22    1    1    2    0    0  0.12102341156E+03  0.13556542818E+04 -0.12569037579E+03  0.13668369575E+04  0.00000000000E+00 0. -1.
<mgrwt>
<rscale>  0 0.28043962E+04</rscale>
<asrwt>0</asrwt>
<pdfrwt beam="1">  1        1 0.18595725E+00 0.28043962E+04</pdfrwt>
<pdfrwt beam="2">  1       -1 0.25025278E+00 0.28043962E+04</pdfrwt>
<totfact> 0.63288072E-01</totfact>
</mgrwt>
</event>
<event>
 6    1  0.1014650E-006  0.5377304E+04  0.7818608E-02  0.7772801E-01
         -2   -1    0    0    0  501 -0.00000000000E+00  0.00000000000E+00  0.16909790396E+04  0.16909790396E+04  0.00000000000E+00 0.  1.
          2   -1    0    0  501    0  0.00000000000E+00 -0.00000000000E+00 -0.42749495694E+04  0.42749495694E+04  0.00000000000E+00 0. -1.
         23    2    1    2    0    0 -0.21739993493E+04  0.11813178642E+04 -0.12722791069E+03  0.24791866679E+04  0.91621645492E+02 0.  0.
         13    1    3    3    0    0 -0.13160365691E+04  0.73836537553E+03 -0.11737250571E+03  0.15135758931E+04  0.00000000000E+00 0.  1.
        -13    1    3    3    0    0 -0.85796278021E+03  0.44295248865E+03 -0.98554049827E+01  0.96561077481E+03  0.00000000000E+00 0. -1.
         22    1    1    2    0    0  0.21739993493E+04 -0.11813178642E+04 -0.24567426191E+04  0.34867419410E+04  0.00000000000E+00 0. -1.
<mgrwt>
<rscale>  0 0.53773042E+04</rscale>
<asrwt>0</asrwt>
<pdfrwt beam="1">  1        2 0.65768455E+00 0.53773042E+04</pdfrwt>
<pdfrwt beam="2">  1       -2 0.26015062E+00 0.53773042E+04</pdfrwt>
<totfact> 0.77984232E-03</totfact>
</mgrwt>
</event>
<event>
 6    1  0.1014650E-006  0.1861095E+04  0.7818608E-02  0.8674468E-01
         -1   -1    0    0    0  501 -0.00000000000E+00  0.00000000000E+00  0.48423218710E+03  0.48423218710E+03  0.00000000000E+00 0.  1.
          1   -1    0    0  501    0  0.00000000000E+00 -0.00000000000E+00 -0.17882298131E+04  0.17882298131E+04  0.00000000000E+00 0. -1.
         23    2    1    2    0    0 -0.89306581570E+03 -0.15603800062E+03 -0.40921084879E+03  0.99866539734E+03  0.89244878093E+02 0.  0.
         13    1    3    3    0    0 -0.71694133676E+03 -0.94908082111E+02 -0.30303201963E+03  0.78411786699E+03  0.00000000000E+00 0.  1.
        -13    1    3    3    0    0 -0.17612447893E+03 -0.61129918509E+02 -0.10617882916E+03  0.21454753035E+03  0.00000000000E+00 0. -1.
         22    1    1    2    0    0  0.89306581570E+03  0.15603800062E+03 -0.89478677723E+03  0.12737966029E+04  0.00000000000E+00 0. -1.
<mgrwt>
<rscale>  0 0.18610948E+04</rscale>
<asrwt>0</asrwt>
<pdfrwt beam="1">  1        1 0.27511228E+00 0.18610948E+04</pdfrwt>
<pdfrwt beam="2">  1       -1 0.74497260E-01 0.18610948E+04</pdfrwt>
<totfact> 0.70629672E+00</totfact>
</mgrwt>
</event>
<event>
 6    1  0.1437076E-006  0.2212281E+04  0.7818608E-02  0.8513334E-01
          1   -1    0    0  501    0  0.00000000000E+00  0.00000000000E+00  0.10201765413E+04  0.10201765413E+04  0.00000000000E+00 0. -1.
         -1   -1    0    0    0  501 -0.00000000000E+00 -0.00000000000E+00 -0.11993485002E+04  0.11993485002E+04  0.00000000000E+00 0.  1.
         23    2    1    2    0    0  0.26962084928E+03 -0.64309673411E+03 -0.94873095775E+03  0.11810213754E+04  0.91936103271E+02 0.  0.
         11    1    3    3    0    0  0.16684965195E+03 -0.42979622359E+03 -0.69460170458E+03  0.83368766824E+03  0.00000000000E+00 0.  1.
        -11    1    3    3    0    0  0.10277119732E+03 -0.21330051053E+03 -0.25412925317E+03  0.34733370713E+03  0.00000000000E+00 0. -1.
         22    1    1    2    0    0 -0.26962084928E+03  0.64309673411E+03  0.76955899890E+03  0.10385036661E+04  0.00000000000E+00 0. -1.
<mgrwt>
<rscale>  0 0.22122814E+04</rscale>
<asrwt>0</asrwt>
<pdfrwt beam="1">  1        1 0.15695024E+00 0.22122814E+04</pdfrwt>
<pdfrwt beam="2">  1       -1 0.18451515E+00 0.22122814E+04</pdfrwt>
<totfact> 0.25676920E+00</totfact>
</mgrwt>
</event>
<event>
 6    1  0.1014650E-006  0.2808895E+04  0.7818608E-02  0.8300512E-01
          2   -1    0    0  501    0  0.00000000000E+00  0.00000000000E+00  0.23469562308E+04  0.23469562308E+04  0.00000000000E+00 0. -1.
         -2   -1    0    0    0  501 -0.00000000000E+00 -0.00000000000E+00 -0.84043884726E+03  0.84043884726E+03  0.00000000000E+00 0.  1.
         23    2    1    2    0    0 -0.19035921874E+03 -0.10268490484E+03  0.23270435089E+04  0.23388410467E+04  0.90912745796E+02 0.  0.
         11    1    3    3    0    0 -0.15294754732E+02  0.16751000596E+02  0.21872659606E+03  0.21989963476E+03  0.00000000000E+00 0.  1.
        -11    1    3    3    0    0 -0.17506446401E+03 -0.11943590543E+03  0.21083169129E+04  0.21189414119E+04  0.00000000000E+00 0. -1.
         22    1    1    2    0    0  0.19035921874E+03  0.10268490484E+03 -0.82052612535E+03  0.84855403141E+03  0.00000000000E+00 0.  1.
<mgrwt>
<rscale>  0 0.28088953E+04</rscale>
<asrwt>0</asrwt>
<pdfrwt beam="1">  1        2 0.36107019E+00 0.28088953E+04</pdfrwt>
<pdfrwt beam="2">  1       -2 0.12929829E+00 0.28088953E+04</pdfrwt>
<totfact> 0.16318902E+00</totfact>
</mgrwt>
</event>
<event>
 6    1  0.1014650E-006  0.6594979E+03  0.7818608E-02  0.9789118E-01
         -2   -1    0    0    0  501 -0.00000000000E+00  0.00000000000E+00  0.14035249561E+03  0.14035249561E+03  0.00000000000E+00 0.  1.
          2   -1    0    0  501    0  0.00000000000E+00 -0.00000000000E+00 -0.77472352664E+03  0.77472352664E+03  0.00000000000E+00 0. -1.
         23    2    1    2    0    0 -0.17012758400E+03 -0.27479378414E+03 -0.35259423530E+03  0.48629498109E+03  0.87778671831E+02 0.  0.
         13    1    3    3    0    0 -0.79937953968E+02 -0.14118504083E+03 -0.23988614747E+03  0.28960085633E+03  0.00000000000E+00 0. -1.
        -13    1    3    3    0    0 -0.90189630036E+02 -0.13360874331E+03 -0.11270808783E+03  0.19669412476E+03  0.00000000000E+00 0.  1.
         22    1    1    2    0    0  0.17012758400E+03  0.27479378414E+03 -0.28177679573E+03  0.42878104115E+03  0.00000000000E+00 0.  1.
<mgrwt>
<rscale>  0 0.65949793E+03</rscale>
<asrwt>0</asrwt>
<pdfrwt beam="1">  1        2 0.11918823E+00 0.65949793E+03</pdfrwt>
<pdfrwt beam="2">  1       -2 0.21592692E-01 0.65949793E+03</pdfrwt>
<totfact> 0.67389701E+02</totfact>
</mgrwt>
</event>
<event>
 6    1  0.1014650E-006  0.1465771E+04  0.7818608E-02  0.8907539E-01
          1   -1    0    0  501    0  0.00000000000E+00  0.00000000000E+00  0.20788193272E+04  0.20788193272E+04  0.00000000000E+00 0. -1.
         -1   -1    0    0    0  501 -0.00000000000E+00 -0.00000000000E+00 -0.25837814679E+03  0.25837814679E+03  0.00000000000E+00 0.  1.
         23    2    1    2    0    0 -0.65500342998E+03 -0.23696073170E+03  0.12623261235E+04  0.14446324632E+04  0.91191173383E+02 0.  0.
         11    1    3    3    0    0 -0.47990344081E+03 -0.15447052317E+03  0.98379714978E+03  0.11054525259E+04  0.00000000000E+00 0. -1.
        -11    1    3    3    0    0 -0.17509998917E+03 -0.82490208528E+02  0.27852897373E+03  0.33917993737E+03  0.00000000000E+00 0.  1.
         22    1    1    2    0    0  0.65500342998E+03  0.23696073170E+03  0.55811505686E+03  0.89256501071E+03  0.00000000000E+00 0. -1.
<mgrwt>
<rscale>  0 0.14657714E+04</rscale>
<asrwt>0</asrwt>
<pdfrwt beam="1">  1        1 0.31981835E+00 0.14657714E+04</pdfrwt>
<pdfrwt beam="2">  1       -1 0.39750485E-01 0.14657714E+04</pdfrwt>
<totfact> 0.15759438E+01</totfact>
</mgrwt>
</event>
<event>
 6    1  0.1014650E-006  0.2322366E+04  0.7818608E-02  0.8469155E-01
         -2   -1    0    0    0  501 -0.00000000000E+00  0.00000000000E+00  0.83126489347E+03  0.83126489347E+03  0.00000000000E+00 0.  1.
          2   -1    0    0  501    0  0.00000000000E+00 -0.00000000000E+00 -0.16220407424E+04  0.16220407424E+04  0.00000000000E+00 0. -1.
         23    2    1    2    0    0  0.73996924786E+01  0.49499566197E+03 -0.15034308077E+04  0.15855772504E+04  0.93142701094E+02 0.  0.
         11    1    3    3    0    0  0.19027188147E+02  0.42934528263E+03 -0.11925014316E+04  0.12675800053E+04  0.00000000000E+00 0.  1.
        -11    1    3    3    0    0 -0.11627495668E+02  0.65650379343E+02 -0.31092937611E+03  0.31799724510E+03  0.00000000000E+00 0. -1.
         22    1    1    2    0    0 -0.73996924786E+01 -0.49499566197E+03  0.71265495870E+03  0.86772838549E+03  0.00000000000E+00 0.  1.
<mgrwt>
<rscale>  0 0.23223656E+04</rscale>
<asrwt>0</asrwt>
<pdfrwt beam="1">  1        2 0.24954473E+00 0.23223656E+04</pdfrwt>
<pdfrwt beam="2">  1       -2 0.12788691E+00 0.23223656E+04</pdfrwt>
<totfact> 0.44412927E+00</totfact>
</mgrwt>
</event>
<event>
 6    1  0.1014650E-006  0.3829472E+04  0.7818608E-02  0.8039860E-01
          1   -1    0    0  501    0  0.00000000000E+00  0.00000000000E+00  0.52916847641E+04  0.52916847641E+04  0.00000000000E+00 0. -1.
         -1   -1    0    0    0  501 -0.00000000000E+00 -0.00000000000E+00 -0.69282556143E+03  0.69282556143E+03  0.00000000000E+00 0.  1.
         23    2    1    2    0    0  0.46538077230E+03 -0.13056341669E+04  0.23907656824E+03  0.14096918088E+04  0.93880505891E+02 0.  0.
         13    1    3    3    0    0  0.27093445023E+03 -0.87721721715E+03  0.13704477012E+03  0.92827624736E+03  0.00000000000E+00 0.  1.
        -13    1    3    3    0    0  0.19444632207E+03 -0.42841694977E+03  0.10203179812E+03  0.48141556149E+03  0.00000000000E+00 0. -1.
         22    1    1    2    0    0 -0.46538077230E+03  0.13056341669E+04  0.43597826345E+04  0.45748185167E+04  0.00000000000E+00 0. -1.
<mgrwt>
<rscale>  0 0.38294723E+04</rscale>
<asrwt>0</asrwt>
<pdfrwt beam="1">  1        1 0.81410532E+00 0.38294723E+04</pdfrwt>
<pdfrwt beam="2">  1       -1 0.10658855E+00 0.38294723E+04</pdfrwt>
<totfact> 0.21757744E-03</totfact>
</mgrwt>
</event>
<event>
 6    1  0.1014650E-006  0.1735972E+04  0.7818608E-02  0.8741110E-01
         -2   -1    0    0    0  501 -0.00000000000E+00  0.00000000000E+00  0.29173778824E+03  0.29173778824E+03  0.00000000000E+00 0.  1.
          2   -1    0    0  501    0  0.00000000000E+00 -0.00000000000E+00 -0.25824536170E+04  0.25824536170E+04  0.00000000000E+00 0. -1.
         23    2    1    2    0    0 -0.68236210092E+03 -0.28162048171E+03 -0.18968777297E+04  0.20375095178E+04  0.91497439066E+02 0.  0.
         13    1    3    3    0    0 -0.52165048047E+03 -0.24732064560E+03 -0.15385765774E+04  0.16433212133E+04  0.00000000000E+00 0.  1.
        -13    1    3    3    0    0 -0.16071162045E+03 -0.34299836103E+02 -0.35830115232E+03  0.39418830457E+03  0.00000000000E+00 0. -1.
         22    1    1    2    0    0  0.68236210092E+03  0.28162048171E+03 -0.39383809913E+03  0.83668188747E+03  0.00000000000E+00 0.  1.
<mgrwt>
<rscale>  0 0.17359716E+04</rscale>
<asrwt>0</asrwt>
<pdfrwt beam="1">  1        2 0.39730057E+00 0.17359716E+04</pdfrwt>
<pdfrwt beam="2">  1       -2 0.44882736E-01 0.17359716E+04</pdfrwt>
<totfact> 0.13946112E+01</totfact>
</mgrwt>
</event>
<event>
 6    1  0.1014650E-006  0.1721571E+04  0.7818608E-02  0.8749156E-01
          1   -1    0    0  501    0  0.00000000000E+00  0.00000000000E+00  0.51103998834E+03  0.51103998834E+03  0.00000000000E+00 0. -1.
         -1   -1    0    0    0  501 -0.00000000000E+00 -0.00000000000E+00 -0.14498901851E+04  0.14498901851E+04  0.00000000000E+00 0.  1.
         23    2    1    2    0    0  0.50407399352E+03  0.53951616139E+03  0.28357448065E+02  0.74410688818E+03  0.87878534474E+02 0.  0.
         13    1    3    3    0    0  0.24092346123E+03  0.20076076145E+03 -0.71088409318E+01  0.31368699866E+03  0.00000000000E+00 0. -1.
        -13    1    3    3    0    0  0.26315053229E+03  0.33875539995E+03  0.35466288997E+02  0.43041988952E+03  0.00000000000E+00 0.  1.
         22    1    1    2    0    0 -0.50407399352E+03 -0.53951616139E+03 -0.96720764480E+03  0.12168232852E+04  0.00000000000E+00 0.  1.
<mgrwt>
<rscale>  0 0.17215712E+04</rscale>
<asrwt>0</asrwt>
<pdfrwt beam="1">  1        1 0.78621535E-01 0.17215712E+04</pdfrwt>
<pdfrwt beam="2">  1       -1 0.22306003E+00 0.17215712E+04</pdfrwt>
<totfact> 0.42875364E+00</totfact>
</mgrwt>
</event>
<event>
 6    1  0.1014650E-006  0.8574586E+03  0.7818608E-02  0.9480381E-01
          1   -1    0    0  501    0  0.00000000000E+00  0.00000000000E+00  0.61285901063E+03  0.61285901063E+03  0.00000000000E+00 0. -1.
         -1   -1    0    0    0  501 -0.00000000000E+00 -0.00000000000E+00 -0.29992022557E+03  0.29992022557E+03  0.00000000000E+00 0.  1.
         23    2    1    2    0    0 -0.12196370894E+03  0.39886684269E+03  0.23851529302E+03  0.48909449413E+03  0.91400080324E+02 0.  0.
         13    1    3    3    0    0 -0.60263564029E+02  0.21794223235E+03  0.77100181140E+02  0.23890364527E+03  0.00000000000E+00 0.  1.
        -13    1    3    3    0    0 -0.61700144911E+02  0.18092461035E+03  0.16141511188E+03  0.25019084886E+03  0.00000000000E+00 0. -1.
         22    1    1    2    0    0  0.12196370894E+03 -0.39886684269E+03  0.74423492046E+02  0.42368474207E+03  0.00000000000E+00 0. -1.
<mgrwt>
<rscale>  0 0.85745860E+03</rscale>
<asrwt>0</asrwt>
<pdfrwt beam="1">  1        1 0.94286001E-01 0.85745860E+03</pdfrwt>
<pdfrwt beam="2">  1       -1 0.46141573E-01 0.85745860E+03</pdfrwt>
<totfact> 0.15659483E+02</totfact>
</mgrwt>
</event>
<event>
 6    1  0.1014650E-006  0.2046880E+04  0.7818608E-02  0.8585011E-01
         -2   -1    0    0    0  501 -0.00000000000E+00  0.00000000000E+00  0.46257194152E+03  0.46257194152E+03  0.00000000000E+00 0.  1.
          2   -1    0    0  501    0  0.00000000000E+00 -0.00000000000E+00 -0.22643603092E+04  0.22643603092E+04  0.00000000000E+00 0. -1.
         23    2    1    2    0    0  0.63915584995E+03 -0.48103408821E+03 -0.17486419226E+04  0.19252224908E+04  0.93909909515E+02 0.  0.
         11    1    3    3    0    0  0.46516707632E+03 -0.31963691961E+03 -0.13121607874E+04  0.14283956389E+04  0.00000000000E+00 0. -1.
        -11    1    3    3    0    0  0.17398877363E+03 -0.16139716860E+03 -0.43648113514E+03  0.49682685185E+03  0.00000000000E+00 0.  1.
         22    1    1    2    0    0 -0.63915584995E+03  0.48103408821E+03 -0.53146445106E+02  0.80170975994E+03  0.00000000000E+00 0.  1.
<mgrwt>
<rscale>  0 0.20468801E+04</rscale>
<asrwt>0</asrwt>
<pdfrwt beam="1">  1        2 0.34836312E+00 0.20468801E+04</pdfrwt>
<pdfrwt beam="2">  1       -2 0.71164915E-01 0.20468801E+04</pdfrwt>
<totfact> 0.78816949E+00</totfact>
</mgrwt>
</event>
<event>
 6    1  0.1014650E-006  0.2861782E+04  0.7818608E-02  0.8284340E-01
         -2   -1    0    0    0  501 -0.00000000000E+00  0.00000000000E+00  0.24057564204E+04  0.24057564204E+04  0.00000000000E+00 0.  1.
          2   -1    0    0  501    0  0.00000000000E+00 -0.00000000000E+00 -0.85106264360E+03  0.85106264360E+03  0.00000000000E+00 0. -1.
         23    2    1    2    0    0 -0.31235758723E+03  0.64927693963E+03  0.21826632869E+04  0.23010609816E+04  0.10832733031E+03 0.  0.
         11    1    3    3    0    0 -0.28268468321E+03  0.48367910940E+03  0.16594026836E+04  0.17514203886E+04  0.00000000000E+00 0. -1.
        -11    1    3    3    0    0 -0.29672904023E+02  0.16559783023E+03  0.52326060323E+03  0.54964059303E+03  0.00000000000E+00 0.  1.
         22    1    1    2    0    0  0.31235758723E+03 -0.64927693963E+03 -0.62796951003E+03  0.95575808245E+03  0.00000000000E+00 0. -1.
<mgrwt>
<rscale>  0 0.28617823E+04</rscale>
<asrwt>0</asrwt>
<pdfrwt beam="1">  1        2 0.13093272E+00 0.28617823E+04</pdfrwt>
<pdfrwt beam="2">  1       -2 0.37011637E+00 0.28617823E+04</pdfrwt>
<totfact> 0.31785673E-01</totfact>
</mgrwt>
</event>
<event>
 6    1  0.1014650E-006  0.3246506E+04  0.7818608E-02  0.8176642E-01
         -2   -1    0    0    0  501 -0.00000000000E+00  0.00000000000E+00  0.31378372643E+04  0.31378372643E+04  0.00000000000E+00 0.  1.
          2   -1    0    0  501    0  0.00000000000E+00 -0.00000000000E+00 -0.83973432379E+03  0.83973432379E+03  0.00000000000E+00 0. -1.
         23    2    1    2    0    0 -0.11113775155E+04  0.68449761793E+03  0.23296170137E+04  0.26719337717E+04  0.91747909542E+02 0.  0.
         11    1    3    3    0    0 -0.44777765460E+03  0.27682128919E+03  0.84878773905E+03  0.99878700436E+03  0.00000000000E+00 0. -1.
        -11    1    3    3    0    0 -0.66359986085E+03  0.40767632874E+03  0.14808292747E+04  0.16731467674E+04  0.00000000000E+00 0.  1.
         22    1    1    2    0    0  0.11113775155E+04 -0.68449761793E+03 -0.31514073203E+02  0.13056378164E+04  0.00000000000E+00 0.  1.
<mgrwt>
<rscale>  0 0.32465056E+04</rscale>
<asrwt>0</asrwt>
<pdfrwt beam="1">  1        2 0.12918990E+00 0.32465056E+04</pdfrwt>
<pdfrwt beam="2">  1       -2 0.48274419E+00 0.32465056E+04</pdfrwt>
<totfact> 0.57283411E-02</totfact>
</mgrwt>
</event>
<event>
 6    1  0.1014650E-006  0.2508887E+04  0.7818608E-02  0.8399826E-01
         -2   -1    0    0    0  501 -0.00000000000E+00  0.00000000000E+00  0.89952756459E+03  0.89952756459E+03  0.00000000000E+00 0.  1.
          2   -1    0    0  501    0  0.00000000000E+00 -0.00000000000E+00 -0.17493950615E+04  0.17493950615E+04  0.00000000000E+00 0. -1.
         23    2    1    2    0    0  0.23653719539E+03  0.89935313475E+03  0.46113493901E+03  0.10415915175E+04  0.86495962124E+02 0.  0.
         11    1    3    3    0    0  0.15948713844E+03  0.43694367285E+03  0.22570711215E+03  0.51701027171E+03  0.00000000000E+00 0.  1.
        -11    1    3    3    0    0  0.77050056946E+02  0.46240946190E+03  0.23542782686E+03  0.52458124574E+03  0.00000000000E+00 0. -1.
         22    1    1    2    0    0 -0.23653719539E+03 -0.89935313475E+03 -0.13110024359E+04  0.16073311086E+04  0.00000000000E+00 0. -1.
<mgrwt>
<rscale>  0 0.25088875E+04</rscale>
<asrwt>0</asrwt>
<pdfrwt beam="1">  1        2 0.26913770E+00 0.25088875E+04</pdfrwt>
<pdfrwt beam="2">  1       -2 0.13838886E+00 0.25088875E+04</pdfrwt>
<totfact> 0.30370314E+00</totfact>
</mgrwt>
</event>
<event>
 6    1  0.1014650E-006  0.2678444E+04  0.7818608E-02  0.8342033E-01
          1   -1    0    0  501    0  0.00000000000E+00  0.00000000000E+00  0.14652646308E+04  0.14652646308E+04  0.00000000000E+00 0. -1.
         -1   -1    0    0    0  501 -0.00000000000E+00 -0.00000000000E+00 -0.12240215419E+04  0.12240215419E+04  0.00000000000E+00 0.  1.
         23    2    1    2    0    0  0.65572403913E+03 -0.44404305248E+03 -0.96164379806E+03  0.12491177412E+04  0.91586512079E+02 0.  0.
         13    1    3    3    0    0  0.12183631360E+03 -0.45066302450E+02 -0.13677038832E+03  0.18862979099E+03  0.00000000000E+00 0. -1.
        -13    1    3    3    0    0  0.53388772553E+03 -0.39897675003E+03 -0.82487340974E+03  0.10604879503E+04  0.00000000000E+00 0.  1.
         22    1    1    2    0    0 -0.65572403913E+03  0.44404305248E+03  0.12028868870E+04  0.14401684314E+04  0.00000000000E+00 0. -1.
<mgrwt>
<rscale>  0 0.26784439E+04</rscale>
<asrwt>0</asrwt>
<pdfrwt beam="1">  1        1 0.22542533E+00 0.26784439E+04</pdfrwt>
<pdfrwt beam="2">  1       -1 0.18831101E+00 0.26784439E+04</pdfrwt>
<totfact> 0.10987106E+00</totfact>
</mgrwt>
</event>
<event>
 6    1  0.1014650E-006  0.1610575E+04  0.7818608E-02  0.8814077E-01
          1   -1    0    0  501    0  0.00000000000E+00  0.00000000000E+00  0.11173383101E+04  0.11173383101E+04  0.00000000000E+00 0. -1.
         -1   -1    0    0    0  501 -0.00000000000E+00 -0.00000000000E+00 -0.58038660925E+03  0.58038660925E+03  0.00000000000E+00 0.  1.
         23    2    1    2    0    0  0.23705915695E+02  0.13001078246E+03  0.11039392889E+04  0.11155396405E+04  0.91005285152E+02 0.  0.
         13    1    3    3    0    0  0.14227836788E+02  0.81964307109E+02  0.95794844955E+03  0.96155385235E+03  0.00000000000E+00 0.  1.
        -13    1    3    3    0    0  0.94780789070E+01  0.48046475348E+02  0.14599083936E+03  0.15398578814E+03  0.00000000000E+00 0. -1.
         22    1    1    2    0    0 -0.23705915695E+02 -0.13001078246E+03 -0.56698758802E+03  0.58218527890E+03  0.00000000000E+00 0.  1.
<mgrwt>
<rscale>  0 0.16105753E+04</rscale>
<asrwt>0</asrwt>
<pdfrwt beam="1">  1        1 0.17189820E+00 0.16105753E+04</pdfrwt>
<pdfrwt beam="2">  1       -1 0.89290248E-01 0.16105753E+04</pdfrwt>
<totfact> 0.14501928E+01</totfact>
</mgrwt>
</event>
<event>
 6    1  0.1014650E-006  0.1958750E+04  0.7818608E-02  0.8626153E-01
          2   -1    0    0  501    0  0.00000000000E+00  0.00000000000E+00  0.22247145243E+04  0.22247145243E+04  0.00000000000E+00 0. -1.
         -2   -1    0    0    0  501 -0.00000000000E+00 -0.00000000000E+00 -0.43114559141E+03  0.43114559141E+03  0.00000000000E+00 0.  1.
         23    2    1    2    0    0  0.91473825008E+03  0.29464419041E+03  0.11386960149E+04  0.14929242603E+04  0.92913763938E+02 0.  0.
         11    1    3    3    0    0  0.83493338759E+03  0.29418921153E+03  0.10315277112E+04  0.13593051434E+04  0.00000000000E+00 0. -1.
        -11    1    3    3    0    0  0.79804862496E+02  0.45497887439E+00  0.10716830367E+03  0.13361911688E+03  0.00000000000E+00 0.  1.
         22    1    1    2    0    0 -0.91473825008E+03 -0.29464419041E+03  0.65487291800E+03  0.11629358554E+04  0.00000000000E+00 0.  1.
<mgrwt>
<rscale>  0 0.19587505E+04</rscale>
<asrwt>0</asrwt>
<pdfrwt beam="1">  1        2 0.34226377E+00 0.19587505E+04</pdfrwt>
<pdfrwt beam="2">  1       -2 0.66330092E-01 0.19587505E+04</pdfrwt>
<totfact> 0.97428137E+00</totfact>
</mgrwt>
</event>
<event>
 6    1  0.1014650E-006  0.4727498E+04  0.7818608E-02  0.7871976E-01
         -2   -1    0    0    0  501 -0.00000000000E+00  0.00000000000E+00  0.18502148054E+04  0.18502148054E+04  0.00000000000E+00 0.  1.
          2   -1    0    0  501    0  0.00000000000E+00 -0.00000000000E+00 -0.30198168312E+04  0.30198168312E+04  0.00000000000E+00 0. -1.
         23    2    1    2    0    0  0.12186613241E+04 -0.56311364284E+02  0.14993822835E+04  0.19354475714E+04  0.97486805025E+02 0.  0.
         11    1    3    3    0    0  0.72873296751E+03  0.11118979447E+02  0.91990095003E+03  0.11736239293E+04  0.00000000000E+00 0. -1.
        -11    1    3    3    0    0  0.48992835656E+03 -0.67430343731E+02  0.57948133345E+03  0.76182364208E+03  0.00000000000E+00 0.  1.
         22    1    1    2    0    0 -0.12186613241E+04  0.56311364284E+02 -0.26689843093E+04  0.29345840652E+04  0.00000000000E+00 0. -1.
<mgrwt>
<rscale>  0 0.47274982E+04</rscale>
<asrwt>0</asrwt>
<pdfrwt beam="1">  1        2 0.46458721E+00 0.47274982E+04</pdfrwt>
<pdfrwt beam="2">  1       -2 0.28464843E+00 0.47274982E+04</pdfrwt>
<totfact> 0.49627773E-02</totfact>
</mgrwt>
</event>
<event>
 6    1  0.1014650E-006  0.2176806E+04  0.7818608E-02  0.8528145E-01
         -2   -1    0    0    0  501 -0.00000000000E+00  0.00000000000E+00  0.31451118220E+03  0.31451118220E+03  0.00000000000E+00 0.  1.
          2   -1    0    0  501    0  0.00000000000E+00 -0.00000000000E+00 -0.37665452167E+04  0.37665452167E+04  0.00000000000E+00 0. -1.
         23    2    1    2    0    0  0.82034943377E+03  0.28104989776E+03 -0.50220804261E+03  0.10064124161E+04  0.93224432024E+02 0.  0.
         11    1    3    3    0    0  0.62002391202E+03  0.22939955934E+03 -0.42324570507E+03  0.78497817559E+03  0.00000000000E+00 0.  1.
        -11    1    3    3    0    0  0.20032552175E+03  0.51650338424E+02 -0.78962337538E+02  0.22143424052E+03  0.00000000000E+00 0. -1.
         22    1    1    2    0    0 -0.82034943377E+03 -0.28104989776E+03 -0.29498259919E+04  0.30746439828E+04  0.00000000000E+00 0. -1.
<mgrwt>
<rscale>  0 0.21768055E+04</rscale>
<asrwt>0</asrwt>
<pdfrwt beam="1">  1        2 0.57946850E+00 0.21768055E+04</pdfrwt>
<pdfrwt beam="2">  1       -2 0.48386336E-01 0.21768055E+04</pdfrwt>
<totfact> 0.19397353E+00</totfact>
</mgrwt>
</event>
<event>
 6    1  0.1014650E-006  0.7365939E+03  0.7818608E-02  0.9656620E-01
         -2   -1    0    0    0  501 -0.00000000000E+00  0.00000000000E+00  0.10473513585E+03  0.10473513585E+03  0.00000000000E+00 0.  1.
          2   -1    0    0  501    0  0.00000000000E+00 -0.00000000000E+00 -0.12951015908E+04  0.12951015908E+04  0.00000000000E+00 0. -1.
         23    2    1    2    0    0  0.22623220673E+03  0.19193738848E+03 -0.10005681393E+04  0.10476373895E+04  0.91577978504E+02 0.  0.
         13    1    3    3    0    0  0.12838995186E+03  0.13748818527E+03 -0.74924072854E+03  0.77249508097E+03  0.00000000000E+00 0.  1.
        -13    1    3    3    0    0  0.97842254877E+02  0.54449203209E+02 -0.25132741072E+03  0.27514230854E+03  0.00000000000E+00 0. -1.
         22    1    1    2    0    0 -0.22623220673E+03 -0.19193738848E+03 -0.18979831573E+03  0.35219933719E+03  0.00000000000E+00 0. -1.
<mgrwt>
<rscale>  0 0.73659389E+03</rscale>
<asrwt>0</asrwt>
<pdfrwt beam="1">  1        2 0.19924641E+00 0.73659389E+03</pdfrwt>
<pdfrwt beam="2">  1       -2 0.16113097E-01 0.73659389E+03</pdfrwt>
<totfact> 0.52114902E+02</totfact>
</mgrwt>
</event>
<event>
 6    1  0.1014650E-006  0.4397985E+04  0.7818608E-02  0.7928744E-01
          2   -1    0    0  501    0  0.00000000000E+00  0.00000000000E+00  0.30712988793E+04  0.30712988793E+04  0.00000000000E+00 0. -1.
         -2   -1    0    0    0  501 -0.00000000000E+00 -0.00000000000E+00 -0.15744377849E+04  0.15744377849E+04  0.00000000000E+00 0.  1.
         23    2    1    2    0    0 -0.18176604858E+04  0.48238715892E+03  0.19508258657E+04  0.27111382493E+04  0.89230240035E+02 0.  0.
         11    1    3    3    0    0 -0.38165471148E+03  0.13490695775E+03  0.39540387950E+03  0.56586609190E+03  0.00000000000E+00 0.  1.
        -11    1    3    3    0    0 -0.14360057744E+04  0.34748020117E+03  0.15554219863E+04  0.21452721574E+04  0.00000000000E+00 0. -1.
         22    1    1    2    0    0  0.18176604858E+04 -0.48238715892E+03 -0.45396477135E+03  0.19345984148E+04  0.00000000000E+00 0.  1.
<mgrwt>
<rscale>  0 0.43979854E+04</rscale>
<asrwt>0</asrwt>
<pdfrwt beam="1">  1        2 0.47250752E+00 0.43979854E+04</pdfrwt>
<pdfrwt beam="2">  1       -2 0.24222120E+00 0.43979854E+04</pdfrwt>
<totfact> 0.86001363E-02</totfact>
</mgrwt>
</event>
<event>
 6    1  0.1014650E-006  0.2816023E+04  0.7818608E-02  0.8298311E-01
         -3   -1    0    0    0  501 -0.00000000000E+00  0.00000000000E+00  0.16610889016E+04  0.16610889016E+04  0.00000000000E+00 0.  1.
          3   -1    0    0  501    0  0.00000000000E+00 -0.00000000000E+00 -0.11934917417E+04  0.11934917417E+04  0.00000000000E+00 0. -1.
         23    2    1    2    0    0 -0.74867686502E+03  0.63438437052E+02  0.14393646215E+04  0.16262185293E+04  0.90965420580E+02 0.  0.
         11    1    3    3    0    0 -0.44064822551E+03  0.35096574153E+02  0.94106065429E+03  0.10397104324E+04  0.00000000000E+00 0. -1.
        -11    1    3    3    0    0 -0.30802863951E+03  0.28341862899E+02  0.49830396726E+03  0.58650809691E+03  0.00000000000E+00 0.  1.
         22    1    1    2    0    0  0.74867686502E+03 -0.63438437052E+02 -0.97176746171E+03  0.12283621140E+04  0.00000000000E+00 0. -1.
<mgrwt>
<rscale>  0 0.28160226E+04</rscale>
<asrwt>0</asrwt>
<pdfrwt beam="1">  1        3 0.18361411E+00 0.28160226E+04</pdfrwt>
<pdfrwt beam="2">  1       -3 0.25555214E+00 0.28160226E+04</pdfrwt>
<totfact> 0.28801046E-02</totfact>
</mgrwt>
</event>
<event>
 6    1  0.1014650E-006  0.9432673E+03  0.7818608E-02  0.9373055E-01
         -2   -1    0    0    0  501 -0.00000000000E+00  0.00000000000E+00  0.98548835557E+03  0.98548835557E+03  0.00000000000E+00 0.  1.
          2   -1    0    0  501    0  0.00000000000E+00 -0.00000000000E+00 -0.22571377015E+03  0.22571377015E+03  0.00000000000E+00 0. -1.
         23    2    1    2    0    0 -0.10218280593E+03 -0.24842399842E+03  0.87425678102E+03  0.91920558134E+03  0.91968324905E+02 0.  0.
         11    1    3    3    0    0 -0.56314974136E+02 -0.12622242648E+03  0.30009847330E+03  0.33039759523E+03  0.00000000000E+00 0. -1.
        -11    1    3    3    0    0 -0.45867831793E+02 -0.12220157194E+03  0.57415830772E+03  0.58880798611E+03  0.00000000000E+00 0.  1.
         22    1    1    2    0    0  0.10218280593E+03  0.24842399842E+03 -0.11448219560E+03  0.29199654438E+03  0.00000000000E+00 0. -1.
<mgrwt>
<rscale>  0 0.94326728E+03</rscale>
<asrwt>0</asrwt>
<pdfrwt beam="1">  1        2 0.34725196E-01 0.94326728E+03</pdfrwt>
<pdfrwt beam="2">  1       -2 0.15161359E+00 0.94326728E+03</pdfrwt>
<totfact> 0.43981174E+01</totfact>
</mgrwt>
</event>
<event>
 6    1  0.1014650E-006  0.2444410E+04  0.7818608E-02  0.8423062E-01
          1   -1    0    0  501    0  0.00000000000E+00  0.00000000000E+00  0.16122251842E+04  0.16122251842E+04  0.00000000000E+00 0. -1.
         -1   -1    0    0    0  501 -0.00000000000E+00 -0.00000000000E+00 -0.92653635785E+03  0.92653635785E+03  0.00000000000E+00 0.  1.
         23    2    1    2    0    0  0.65229131613E+03 -0.99270981316E+03  0.51713095685E+02  0.11923284909E+04  0.89533522509E+02 0.  0.
         13    1    3    3    0    0  0.14917296735E+03 -0.17472422745E+03 -0.10562235552E+02  0.22998410959E+03  0.00000000000E+00 0. -1.
        -13    1    3    3    0    0  0.50311834878E+03 -0.81798558571E+03  0.62275331237E+02  0.96234438128E+03  0.00000000000E+00 0.  1.
         22    1    1    2    0    0 -0.65229131613E+03  0.99270981316E+03  0.63397573066E+03  0.13464330512E+04  0.00000000000E+00 0.  1.
<mgrwt>
<rscale>  0 0.24444102E+04</rscale>
<asrwt>0</asrwt>
<pdfrwt beam="1">  1        1 0.24803464E+00 0.24444102E+04</pdfrwt>
<pdfrwt beam="2">  1       -1 0.14254406E+00 0.24444102E+04</pdfrwt>
<totfact> 0.19532543E+00</totfact>
</mgrwt>
</event>
<event>
 6    1  0.1014650E-006  0.4688205E+04  0.7818608E-02  0.7878491E-01
          2   -1    0    0  501    0  0.00000000000E+00  0.00000000000E+00  0.29508505901E+04  0.29508505901E+04  0.00000000000E+00 0. -1.
         -2   -1    0    0    0  501 -0.00000000000E+00 -0.00000000000E+00 -0.18621129560E+04  0.18621129560E+04  0.00000000000E+00 0.  1.
         23    2    1    2    0    0 -0.21075539964E+04 -0.75662136087E+03  0.12532545758E+04  0.25676739087E+04  0.89680200477E+02 0.  0.
         13    1    3    3    0    0 -0.11575083458E+04 -0.40253458630E+03  0.73493683824E+03  0.14289827921E+04  0.00000000000E+00 0. -1.
        -13    1    3    3    0    0 -0.95004565060E+03 -0.35408677457E+03  0.51831773755E+03  0.11386911167E+04  0.00000000000E+00 0.  1.
         22    1    1    2    0    0  0.21075539964E+04  0.75662136087E+03 -0.16451694166E+03  0.22452896373E+04  0.00000000000E+00 0.  1.
<mgrwt>
<rscale>  0 0.46882052E+04</rscale>
<asrwt>0</asrwt>
<pdfrwt beam="1">  1        2 0.45397701E+00 0.46882052E+04</pdfrwt>
<pdfrwt beam="2">  1       -2 0.28647892E+00 0.46882052E+04</pdfrwt>
<totfact> 0.53594164E-02</totfact>
</mgrwt>
</event>
<event>
 6    1  0.1014650E-006  0.3485054E+04  0.7818608E-02  0.8117341E-01
          2   -1    0    0  501    0  0.00000000000E+00  0.00000000000E+00  0.13296950158E+04  0.13296950158E+04  0.00000000000E+00 0. -1.
         -2   -1    0    0    0  501 -0.00000000000E+00 -0.00000000000E+00 -0.22835319616E+04  0.22835319616E+04  0.00000000000E+00 0.  1.
         23    2    1    2    0    0 -0.93717263264E+03 -0.35802857808E+03 -0.19528624318E+04  0.21974131027E+04  0.92063348351E+02 0.  0.
         13    1    3    3    0    0 -0.24107028063E+03 -0.85610966859E+02 -0.41520088357E+03  0.48768421296E+03  0.00000000000E+00 0. -1.
        -13    1    3    3    0    0 -0.69610235200E+03 -0.27241761122E+03 -0.15376615482E+04  0.17097288897E+04  0.00000000000E+00 0.  1.
         22    1    1    2    0    0  0.93717263264E+03  0.35802857808E+03  0.99902548603E+03  0.14158138747E+04  0.00000000000E+00 0. -1.
<mgrwt>
<rscale>  0 0.34850544E+04</rscale>
<asrwt>0</asrwt>
<pdfrwt beam="1">  1        2 0.20456846E+00 0.34850544E+04</pdfrwt>
<pdfrwt beam="2">  1       -2 0.35131261E+00 0.34850544E+04</pdfrwt>
<totfact> 0.19941469E-01</totfact>
</mgrwt>
</event>
<event>
 6    1  0.1014650E-006  0.4960575E+04  0.7818608E-02  0.7834618E-01
          2   -1    0    0  501    0  0.00000000000E+00  0.00000000000E+00  0.26892158075E+04  0.26892158075E+04  0.00000000000E+00 0. -1.
         -2   -1    0    0    0  501 -0.00000000000E+00 -0.00000000000E+00 -0.22875913370E+04  0.22875913370E+04  0.00000000000E+00 0.  1.
         23    2    1    2    0    0  0.18231848851E+04  0.15065978379E+04 -0.54555256365E+03  0.24290660854E+04  0.94309476795E+02 0.  0.
         11    1    3    3    0    0  0.14441219775E+04  0.12087327152E+04 -0.47118349010E+03  0.19412719912E+04  0.00000000000E+00 0. -1.
        -11    1    3    3    0    0  0.37906290761E+03  0.29786512262E+03 -0.74369073546E+02  0.48779409416E+03  0.00000000000E+00 0.  1.
         22    1    1    2    0    0 -0.18231848851E+04 -0.15065978379E+04  0.94717703422E+03  0.25477410591E+04  0.00000000000E+00 0.  1.
<mgrwt>
<rscale>  0 0.49605753E+04</rscale>
<asrwt>0</asrwt>
<pdfrwt beam="1">  1        2 0.41372551E+00 0.49605753E+04</pdfrwt>
<pdfrwt beam="2">  1       -2 0.35193713E+00 0.49605753E+04</pdfrwt>
<totfact> 0.29772206E-02</totfact>
</mgrwt>
</event>
<event>
 6    1  0.1014650E-006  0.1180057E+04  0.7818608E-02  0.9130494E-01
          2   -1    0    0  501    0  0.00000000000E+00  0.00000000000E+00  0.12023042763E+04  0.12023042763E+04  0.00000000000E+00 0. -1.
         -2   -1    0    0    0  501 -0.00000000000E+00 -0.00000000000E+00 -0.28955513494E+03  0.28955513494E+03  0.00000000000E+00 0.  1.
         23    2    1    2    0    0 -0.53200430457E+03  0.87036978965E+02  0.75115294640E+03  0.92908294940E+03  0.91435016205E+02 0.  0.
         13    1    3    3    0    0 -0.30969558651E+03  0.14769999044E+02  0.37982248526E+03  0.49030055015E+03  0.00000000000E+00 0.  1.
        -13    1    3    3    0    0 -0.22230871806E+03  0.72266979921E+02  0.37133046115E+03  0.43878239925E+03  0.00000000000E+00 0. -1.
         22    1    1    2    0    0  0.53200430457E+03 -0.87036978965E+02  0.16159619497E+03  0.56277646185E+03  0.00000000000E+00 0. -1.
<mgrwt>
<rscale>  0 0.11800566E+04</rscale>
<asrwt>0</asrwt>
<pdfrwt beam="1">  1        2 0.18496989E+00 0.11800566E+04</pdfrwt>
<pdfrwt beam="2">  1       -2 0.44546944E-01 0.11800566E+04</pdfrwt>
<totfact> 0.89104135E+01</totfact>
</mgrwt>
</event>
<event>
 6    1  0.1014650E-006  0.1551517E+04  0.7818608E-02  0.8850899E-01
         -1   -1    0    0    0  501 -0.00000000000E+00  0.00000000000E+00  0.34818891831E+03  0.34818891831E+03  0.00000000000E+00 0.  1.
          1   -1    0    0  501    0  0.00000000000E+00 -0.00000000000E+00 -0.17283759938E+04  0.17283759938E+04  0.00000000000E+00 0. -1.
         23    2    1    2    0    0 -0.37898021354E+03  0.18275754797E+03  0.17675868076E+03  0.46377031530E+03  0.82540599297E+02 0.  0.
         11    1    3    3    0    0 -0.24828810473E+03  0.80176588107E+02  0.87657913000E+02  0.27524385178E+03  0.00000000000E+00 0.  1.
        -11    1    3    3    0    0 -0.13069210882E+03  0.10258095987E+03  0.89100767760E+02  0.18852646353E+03  0.00000000000E+00 0. -1.
         22    1    1    2    0    0  0.37898021354E+03 -0.18275754797E+03 -0.15569457563E+04  0.16127945968E+04  0.00000000000E+00 0. -1.
<mgrwt>
<rscale>  0 0.15515172E+04</rscale>
<asrwt>0</asrwt>
<pdfrwt beam="1">  1        1 0.26590400E+00 0.15515172E+04</pdfrwt>
<pdfrwt beam="2">  1       -1 0.53567526E-01 0.15515172E+04</pdfrwt>
<totfact> 0.15441726E+01</totfact>
</mgrwt>
</event>
<event>
 6    1  0.1014650E-006  0.3689556E+04  0.7818608E-02  0.8070280E-01
         -2   -1    0    0    0  501 -0.00000000000E+00  0.00000000000E+00  0.22464754322E+04  0.22464754322E+04  0.00000000000E+00 0.  1.
          2   -1    0    0  501    0  0.00000000000E+00 -0.00000000000E+00 -0.15149089544E+04  0.15149089544E+04  0.00000000000E+00 0. -1.
         23    2    1    2    0    0  0.36998095007E+03  0.96513983584E+03  0.19223573953E+04  0.21845635929E+04  0.92083276662E+02 0.  0.
         13    1    3    3    0    0  0.90715002562E+02  0.29276637652E+03  0.49409750619E+03  0.58144106196E+03  0.00000000000E+00 0.  1.
        -13    1    3    3    0    0  0.27926594750E+03  0.67237345933E+03  0.14282598891E+04  0.16031225309E+04  0.00000000000E+00 0. -1.
         22    1    1    2    0    0 -0.36998095007E+03 -0.96513983584E+03 -0.11907909175E+04  0.15768207937E+04  0.00000000000E+00 0. -1.
<mgrwt>
<rscale>  0 0.36895559E+04</rscale>
<asrwt>0</asrwt>
<pdfrwt beam="1">  1        2 0.23306292E+00 0.36895559E+04</pdfrwt>
<pdfrwt beam="2">  1       -2 0.34561160E+00 0.36895559E+04</pdfrwt>
<totfact> 0.16695924E-01</totfact>
</mgrwt>
</event>
<event>
 6    1  0.1014650E-006  0.8118987E+03  0.7818608E-02  0.9542952E-01
         -1   -1    0    0    0  501 -0.00000000000E+00  0.00000000000E+00  0.57235034605E+03  0.57235034605E+03  0.00000000000E+00 0.  1.
          1   -1    0    0  501    0  0.00000000000E+00 -0.00000000000E+00 -0.28792658423E+03  0.28792658423E+03  0.00000000000E+00 0. -1.
         23    2    1    2    0    0  0.31080600050E+03 -0.64986816994E+01 -0.12422716703E+03  0.34681983912E+03  0.90603581460E+02 0.  0.
         13    1    3    3    0    0  0.13206739036E+03 -0.26477576764E+02 -0.12925843249E+02  0.13531420876E+03  0.00000000000E+00 0. -1.
        -13    1    3    3    0    0  0.17873861014E+03  0.19978895065E+02 -0.11130132378E+03  0.21150563037E+03  0.00000000000E+00 0.  1.
         22    1    1    2    0    0 -0.31080600050E+03  0.64986816994E+01  0.40865092885E+03  0.51345709115E+03  0.00000000000E+00 0.  1.
<mgrwt>
<rscale>  0 0.81189871E+03</rscale>
<asrwt>0</asrwt>
<pdfrwt beam="1">  1        1 0.44296398E-01 0.81189871E+03</pdfrwt>
<pdfrwt beam="2">  1       -1 0.88053899E-01 0.81189871E+03</pdfrwt>
<totfact> 0.11868548E+02</totfact>
</mgrwt>
</event>
<event>
 6    1  0.1014650E-006  0.2839342E+04  0.7818608E-02  0.8291157E-01
         -2   -1    0    0    0  501 -0.00000000000E+00  0.00000000000E+00  0.11354763528E+04  0.11354763528E+04  0.00000000000E+00 0.  1.
          2   -1    0    0  501    0  0.00000000000E+00 -0.00000000000E+00 -0.17749957459E+04  0.17749957459E+04  0.00000000000E+00 0. -1.
         23    2    1    2    0    0  0.54899804276E+03 -0.10593809485E+04 -0.11056810436E+04  0.16294594019E+04  0.94448541519E+02 0.  0.
         11    1    3    3    0    0  0.15292557126E+03 -0.26798062508E+03 -0.34106481671E+03  0.45991853079E+03  0.00000000000E+00 0.  1.
        -11    1    3    3    0    0  0.39607247149E+03 -0.79140032346E+03 -0.76461622694E+03  0.11695408711E+04  0.00000000000E+00 0. -1.
         22    1    1    2    0    0 -0.54899804276E+03  0.10593809485E+04  0.46616165051E+03  0.12810126969E+04  0.00000000000E+00 0.  1.
<mgrwt>
<rscale>  0 0.28393420E+04</rscale>
<asrwt>0</asrwt>
<pdfrwt beam="1">  1        2 0.27307627E+00 0.28393420E+04</pdfrwt>
<pdfrwt beam="2">  1       -2 0.17468867E+00 0.28393420E+04</pdfrwt>
<totfact> 0.15261652E+00</totfact>
</mgrwt>
</event>
<event>
 6    1  0.1014650E-006  0.2491273E+04  0.7818608E-02  0.8406101E-01
          2   -1    0    0  501    0  0.00000000000E+00  0.00000000000E+00  0.17362184402E+04  0.17362184402E+04  0.00000000000E+00 0. -1.
         -2   -1    0    0    0  501 -0.00000000000E+00 -0.00000000000E+00 -0.89367201214E+03  0.89367201214E+03  0.00000000000E+00 0.  1.
         23    2    1    2    0    0 -0.66243030903E+03 -0.59984398050E+03 -0.49160130079E+03  0.10240956717E+04  0.92051021385E+02 0.  0.
         11    1    3    3    0    0 -0.36567880286E+03 -0.30340817740E+03 -0.21414655388E+03  0.52118735164E+03  0.00000000000E+00 0.  1.
        -11    1    3    3    0    0 -0.29675150618E+03 -0.29643580309E+03 -0.27745474690E+03  0.50290832003E+03  0.00000000000E+00 0. -1.
         22    1    1    2    0    0  0.66243030903E+03  0.59984398050E+03  0.13341477289E+04  0.16057947807E+04  0.00000000000E+00 0. -1.
<mgrwt>
<rscale>  0 0.24912726E+04</rscale>
<asrwt>0</asrwt>
<pdfrwt beam="1">  1        2 0.26711053E+00 0.24912726E+04</pdfrwt>
<pdfrwt beam="2">  1       -2 0.13748800E+00 0.24912726E+04</pdfrwt>
<totfact> 0.31459299E+00</totfact>
</mgrwt>
</event>
<event>
 6    1  0.1014650E-006  0.1742475E+04  0.7818608E-02  0.8737503E-01
          2   -1    0    0  501    0  0.00000000000E+00  0.00000000000E+00  0.27175257945E+04  0.27175257945E+04  0.00000000000E+00 0. -1.
         -2   -1    0    0    0  501 -0.00000000000E+00 -0.00000000000E+00 -0.27931838878E+03  0.27931838878E+03  0.00000000000E+00 0.  1.
         23    2    1    2    0    0 -0.59566525864E+03 -0.26958537907E+03  0.22069208521E+04  0.23033120306E+04  0.85166224169E+02 0.  0.
         13    1    3    3    0    0 -0.37993937946E+03 -0.19915273145E+03  0.13278134237E+04  0.13953867674E+04  0.00000000000E+00 0. -1.
        -13    1    3    3    0    0 -0.21572587917E+03 -0.70432647617E+02  0.87910742840E+03  0.90792526314E+03  0.00000000000E+00 0.  1.
         22    1    1    2    0    0  0.59566525864E+03  0.26958537907E+03  0.23128655360E+03  0.69353215270E+03  0.00000000000E+00 0.  1.
<mgrwt>
<rscale>  0 0.17424752E+04</rscale>
<asrwt>0</asrwt>
<pdfrwt beam="1">  1        2 0.41808087E+00 0.17424752E+04</pdfrwt>
<pdfrwt beam="2">  1       -2 0.42972062E-01 0.17424752E+04</pdfrwt>
<totfact> 0.12654595E+01</totfact>
</mgrwt>
</event>
<event>
 6    1  0.1014650E-006  0.8965600E+03  0.7818608E-02  0.9429892E-01
          1   -1    0    0  501    0  0.00000000000E+00  0.00000000000E+00  0.80994043228E+03  0.80994043228E+03  0.00000000000E+00 0. -1.
         -1   -1    0    0    0  501 -0.00000000000E+00 -0.00000000000E+00 -0.24811080001E+03  0.24811080001E+03  0.00000000000E+00 0.  1.
         23    2    1    2    0    0  0.12892439623E+03 -0.18197613225E+03  0.73603249936E+03  0.77506103538E+03  0.96119487049E+02 0.  0.
         11    1    3    3    0    0  0.84415970651E+02 -0.39706785498E+02  0.25965821448E+03  0.27590772599E+03  0.00000000000E+00 0. -1.
        -11    1    3    3    0    0  0.44508425581E+02 -0.14226934675E+03  0.47637428488E+03  0.49915330938E+03  0.00000000000E+00 0.  1.
         22    1    1    2    0    0 -0.12892439623E+03  0.18197613225E+03 -0.17420286709E+03  0.28299019692E+03  0.00000000000E+00 0.  1.
<mgrwt>
<rscale>  0 0.89656002E+03</rscale>
<asrwt>0</asrwt>
<pdfrwt beam="1">  1        1 0.12460622E+00 0.89656002E+03</pdfrwt>
<pdfrwt beam="2">  1       -1 0.38170893E-01 0.89656002E+03</pdfrwt>
<totfact> 0.14475944E+02</totfact>
</mgrwt>
</event>
<event>
 6    1  0.1014650E-006  0.7545293E+04  0.7818608E-02  0.7523672E-01
         -2   -1    0    0    0  501 -0.00000000000E+00  0.00000000000E+00  0.40210514057E+04  0.40210514057E+04  0.00000000000E+00 0.  1.
          2   -1    0    0  501    0  0.00000000000E+00 -0.00000000000E+00 -0.35395870427E+04  0.35395870427E+04  0.00000000000E+00 0. -1.
         23    2    1    2    0    0 -0.45053959984E+03  0.15149847764E+04  0.36727177145E+04  0.39994219769E+04  0.91410802562E+02 0.  0.
         11    1    3    3    0    0 -0.22761782379E+03  0.60989624832E+03  0.14909684773E+04  0.16268897651E+04  0.00000000000E+00 0.  1.
        -11    1    3    3    0    0 -0.22292177605E+03  0.90508852806E+03  0.21817492372E+04  0.23725322118E+04  0.00000000000E+00 0. -1.
         22    1    1    2    0    0  0.45053959984E+03 -0.15149847764E+04 -0.31912533515E+04  0.35612164716E+04  0.00000000000E+00 0. -1.
<mgrwt>
<rscale>  0 0.75452930E+04</rscale>
<asrwt>0</asrwt>
<pdfrwt beam="1">  1        2 0.54455185E+00 0.75452930E+04</pdfrwt>
<pdfrwt beam="2">  1       -2 0.61862330E+00 0.75452930E+04</pdfrwt>
<totfact> 0.20338073E-04</totfact>
</mgrwt>
</event>
<event>
 6    1  0.1014650E-006  0.2772188E+04  0.7818608E-02  0.8311955E-01
          1   -1    0    0  501    0  0.00000000000E+00  0.00000000000E+00  0.18525981434E+04  0.18525981434E+04  0.00000000000E+00 0. -1.
         -1   -1    0    0    0  501 -0.00000000000E+00 -0.00000000000E+00 -0.10370604813E+04  0.10370604813E+04  0.00000000000E+00 0.  1.
         23    2    1    2    0    0 -0.88898457857E+03 -0.21737428449E+03 -0.67470720990E+03  0.11408376107E+04  0.93463759834E+02 0.  0.
         11    1    3    3    0    0 -0.58329879819E+03 -0.13118980153E+03 -0.38618385894E+03  0.71174870910E+03  0.00000000000E+00 0.  1.
        -11    1    3    3    0    0 -0.30568578038E+03 -0.86184482963E+02 -0.28852335095E+03  0.42908890160E+03  0.00000000000E+00 0. -1.
         22    1    1    2    0    0  0.88898457857E+03  0.21737428449E+03  0.14902448720E+04  0.17488210140E+04  0.00000000000E+00 0. -1.
<mgrwt>
<rscale>  0 0.27721878E+04</rscale>
<asrwt>0</asrwt>
<pdfrwt beam="1">  1        1 0.28501510E+00 0.27721878E+04</pdfrwt>
<pdfrwt beam="2">  1       -1 0.15954777E+00 0.27721878E+04</pdfrwt>
<totfact> 0.95907109E-01</totfact>
</mgrwt>
</event>
<event>
 6    1  0.1014650E-006  0.2523856E+04  0.7818608E-02  0.8394536E-01
         -2   -1    0    0    0  501 -0.00000000000E+00  0.00000000000E+00  0.61550527715E+03  0.61550527715E+03  0.00000000000E+00 0.  1.
          2   -1    0    0  501    0  0.00000000000E+00 -0.00000000000E+00 -0.25872433622E+04  0.25872433622E+04  0.00000000000E+00 0. -1.
         23    2    1    2    0    0  0.61106952648E+02  0.11254157582E+03 -0.25781720636E+04  0.25829407366E+04  0.90620047958E+02 0.  0.
         11    1    3    3    0    0  0.20511600579E+02  0.77785886512E+02 -0.21415440990E+04  0.21430544785E+04  0.00000000000E+00 0. -1.
        -11    1    3    3    0    0  0.40595352069E+02  0.34755689306E+02 -0.43662796461E+03  0.43988625806E+03  0.00000000000E+00 0.  1.
         22    1    1    2    0    0 -0.61106952648E+02 -0.11254157582E+03  0.60643397858E+03  0.61980790276E+03  0.00000000000E+00 0.  1.
<mgrwt>
<rscale>  0 0.25238557E+04</rscale>
<asrwt>0</asrwt>
<pdfrwt beam="1">  1        2 0.39803743E+00 0.25238557E+04</pdfrwt>
<pdfrwt beam="2">  1       -2 0.94693121E-01 0.25238557E+04</pdfrwt>
<totfact> 0.25876639E+00</totfact>
</mgrwt>
</event>
<event>
 6    1  0.1580426E-006  0.3721104E+04  0.7818608E-02  0.8063301E-01
          2   -1    0    0  501    0  0.00000000000E+00  0.00000000000E+00  0.21017903151E+04  0.21017903151E+04  0.00000000000E+00 0. -1.
         -2   -1    0    0    0  501 -0.00000000000E+00 -0.00000000000E+00 -0.16470023989E+04  0.16470023989E+04  0.00000000000E+00 0.  1.
         23    2    1    2    0    0 -0.79171106125E+03  0.13139112974E+04  0.12862887038E+04  0.20039251369E+04  0.89487556070E+02 0.  0.
         13    1    3    3    0    0 -0.52091843425E+03  0.86545156635E+03  0.79097065202E+03  0.12829641465E+04  0.00000000000E+00 0.  1.
        -13    1    3    3    0    0 -0.27079262700E+03  0.44845973105E+03  0.49531805179E+03  0.72096099037E+03  0.00000000000E+00 0. -1.
         22    1    1    2    0    0  0.79171106125E+03 -0.13139112974E+04 -0.83150078760E+03  0.17448675771E+04  0.00000000000E+00 0.  1.
<mgrwt>
<rscale>  0 0.37211040E+04</rscale>
<asrwt>0</asrwt>
<pdfrwt beam="1">  1        2 0.32335236E+00 0.37211040E+04</pdfrwt>
<pdfrwt beam="2">  1       -2 0.25338498E+00 0.37211040E+04</pdfrwt>
<totfact> 0.28981117E-01</totfact>
</mgrwt>
</event>
<event>
 6    1  0.1014650E-006  0.3286868E+04  0.7818608E-02  0.8166245E-01
          2   -1    0    0  501    0  0.00000000000E+00  0.00000000000E+00  0.20683086160E+04  0.20683086160E+04  0.00000000000E+00 0. -1.
         -2   -1    0    0    0  501 -0.00000000000E+00 -0.00000000000E+00 -0.13058375042E+04  0.13058375042E+04  0.00000000000E+00 0.  1.
         23    2    1    2    0    0  0.12039389481E+04  0.72394028651E+03  0.12545419206E+04  0.18856259792E+04  0.90284957806E+02 0.  0.
         13    1    3    3    0    0  0.44554484408E+03  0.29419688177E+03  0.42663990239E+03  0.68343516126E+03  0.00000000000E+00 0. -1.
        -13    1    3    3    0    0  0.75839410404E+03  0.42974340474E+03  0.82790201819E+03  0.12021908179E+04  0.00000000000E+00 0.  1.
         22    1    1    2    0    0 -0.12039389481E+04 -0.72394028651E+03 -0.49207080881E+03  0.14885201410E+04  0.00000000000E+00 0.  1.
<mgrwt>
<rscale>  0 0.32868678E+04</rscale>
<asrwt>0</asrwt>
<pdfrwt beam="1">  1        2 0.31820133E+00 0.32868678E+04</pdfrwt>
<pdfrwt beam="2">  1       -2 0.20089808E+00 0.32868678E+04</pdfrwt>
<totfact> 0.67145706E-01</totfact>
</mgrwt>
</event>
<event>
 6    1  0.1014650E-006  0.1458543E+04  0.7818608E-02  0.8912499E-01
         -2   -1    0    0    0  501 -0.00000000000E+00  0.00000000000E+00  0.51406700216E+03  0.51406700216E+03  0.00000000000E+00 0.  1.
          2   -1    0    0  501    0  0.00000000000E+00 -0.00000000000E+00 -0.10345675900E+04  0.10345675900E+04  0.00000000000E+00 0. -1.
         23    2    1    2    0    0  0.51777213008E+03 -0.46490132613E+03 -0.40279720206E+02  0.70315644137E+03  0.92656912582E+02 0.  0.
         11    1    3    3    0    0  0.16373336859E+03 -0.14813356181E+03 -0.56154760608E+02  0.22782784129E+03  0.00000000000E+00 0. -1.
        -11    1    3    3    0    0  0.35403876148E+03 -0.31676776432E+03  0.15875040403E+02  0.47532860008E+03  0.00000000000E+00 0.  1.
         22    1    1    2    0    0 -0.51777213008E+03  0.46490132613E+03 -0.48022086760E+03  0.84547815075E+03  0.00000000000E+00 0. -1.
<mgrwt>
<rscale>  0 0.14585432E+04</rscale>
<asrwt>0</asrwt>
<pdfrwt beam="1">  1        2 0.15916424E+00 0.14585432E+04</pdfrwt>
<pdfrwt beam="2">  1       -2 0.79087231E-01 0.14585432E+04</pdfrwt>
<totfact> 0.32917700E+01</totfact>
</mgrwt>
</event>
<event>
 6    1  0.1014650E-006  0.2748134E+04  0.7818608E-02  0.8319554E-01
         -1   -1    0    0    0  501 -0.00000000000E+00  0.00000000000E+00  0.16530700629E+04  0.16530700629E+04  0.00000000000E+00 0.  1.
          1   -1    0    0  501    0  0.00000000000E+00 -0.00000000000E+00 -0.11421535876E+04  0.11421535876E+04  0.00000000000E+00 0. -1.
         23    2    1    2    0    0  0.11327453503E+03  0.51263311315E+03 -0.10341712614E+04  0.11633780870E+04  0.91184134491E+02 0.  0.
         13    1    3    3    0    0  0.87962039542E+02  0.27416291331E+03 -0.48321103986E+03  0.56249047323E+03  0.00000000000E+00 0. -1.
        -13    1    3    3    0    0  0.25312495491E+02  0.23847019983E+03 -0.55096022152E+03  0.60088761373E+03  0.00000000000E+00 0.  1.
         22    1    1    2    0    0 -0.11327453503E+03 -0.51263311315E+03  0.15450877367E+04  0.16318455635E+04  0.00000000000E+00 0.  1.
<mgrwt>
<rscale>  0 0.27481338E+04</rscale>
<asrwt>0</asrwt>
<pdfrwt beam="1">  1        1 0.17571594E+00 0.27481338E+04</pdfrwt>
<pdfrwt beam="2">  1       -1 0.25431847E+00 0.27481338E+04</pdfrwt>
<totfact> 0.66979257E-01</totfact>
</mgrwt>
</event>
<event>
 6    1  0.1014650E-006  0.2569824E+04  0.7818608E-02  0.8378524E-01
         -2   -1    0    0    0  501 -0.00000000000E+00  0.00000000000E+00  0.57903742932E+03  0.57903742932E+03  0.00000000000E+00 0.  1.
          2   -1    0    0  501    0  0.00000000000E+00 -0.00000000000E+00 -0.28512824171E+04  0.28512824171E+04  0.00000000000E+00 0. -1.
         23    2    1    2    0    0  0.10656840981E+04  0.34339523872E+03 -0.30037390699E+03  0.11627488010E+04  0.90318344440E+02 0.  0.
         13    1    3    3    0    0  0.16159801831E+03  0.22515740429E+02 -0.28518924584E+02  0.16563274781E+03  0.00000000000E+00 0. -1.
        -13    1    3    3    0    0  0.90408607976E+03  0.32087949829E+03 -0.27185498240E+03  0.99711605318E+03  0.00000000000E+00 0.  1.
         22    1    1    2    0    0 -0.10656840981E+04 -0.34339523872E+03 -0.19718710808E+04  0.22675710454E+04  0.00000000000E+00 0. -1.
<mgrwt>
<rscale>  0 0.25698243E+04</rscale>
<asrwt>0</asrwt>
<pdfrwt beam="1">  1        2 0.43865884E+00 0.25698243E+04</pdfrwt>
<pdfrwt beam="2">  1       -2 0.89082680E-01 0.25698243E+04</pdfrwt>
<totfact> 0.20648527E+00</totfact>
</mgrwt>
</event>
<event>
 6    1  0.1014650E-006  0.2606080E+04  0.7818608E-02  0.8366139E-01
          1   -1    0    0  501    0  0.00000000000E+00  0.00000000000E+00  0.13844996149E+04  0.13844996149E+04  0.00000000000E+00 0. -1.
         -1   -1    0    0    0  501 -0.00000000000E+00 -0.00000000000E+00 -0.12263729877E+04  0.12263729877E+04  0.00000000000E+00 0.  1.
         23    2    1    2    0    0 -0.86787046011E+03  0.83659039001E+03 -0.41233028570E+03  0.12772670741E+04  0.91171803518E+02 0.  0.
         11    1    3    3    0    0 -0.22850808356E+03  0.26190914447E+03 -0.88963402705E+02  0.35878521601E+03  0.00000000000E+00 0.  1.
        -11    1    3    3    0    0 -0.63936237655E+03  0.57468124554E+03 -0.32336688300E+03  0.91848185804E+03  0.00000000000E+00 0. -1.
         22    1    1    2    0    0  0.86787046011E+03 -0.83659039001E+03  0.57045691292E+03  0.13336055285E+04  0.00000000000E+00 0. -1.
<mgrwt>
<rscale>  0 0.26060798E+04</rscale>
<asrwt>0</asrwt>
<pdfrwt beam="1">  1        1 0.21299994E+00 0.26060798E+04</pdfrwt>
<pdfrwt beam="2">  1       -1 0.18867277E+00 0.26060798E+04</pdfrwt>
<totfact> 0.12521368E+00</totfact>
</mgrwt>
</event>
<event>
 6    1  0.1014650E-006  0.1901556E+04  0.7818608E-02  0.8654082E-01
         -2   -1    0    0    0  501 -0.00000000000E+00  0.00000000000E+00  0.88215481607E+03  0.88215481607E+03  0.00000000000E+00 0.  1.
          2   -1    0    0  501    0  0.00000000000E+00 -0.00000000000E+00 -0.10247398102E+04  0.10247398102E+04  0.00000000000E+00 0. -1.
         23    2    1    2    0    0  0.61932446261E+03  0.64208836034E+03  0.25175615866E+03  0.93152536426E+03  0.92293490421E+02 0.  0.
         13    1    3    3    0    0  0.16833760898E+03  0.23431981025E+03  0.69057932732E+02  0.29666870773E+03  0.00000000000E+00 0. -1.
        -13    1    3    3    0    0  0.45098685362E+03  0.40776855009E+03  0.18269822593E+03  0.63485665653E+03  0.00000000000E+00 0.  1.
         22    1    1    2    0    0 -0.61932446261E+03 -0.64208836034E+03 -0.39434115276E+03  0.97536926198E+03  0.00000000000E+00 0.  1.
<mgrwt>
<rscale>  0 0.19015564E+04</rscale>
<asrwt>0</asrwt>
<pdfrwt beam="1">  1        2 0.15765228E+00 0.19015564E+04</pdfrwt>
<pdfrwt beam="2">  1       -2 0.13571613E+00 0.19015564E+04</pdfrwt>
<totfact> 0.88517320E+00</totfact>
</mgrwt>
</event>
<event>
 6    1  0.1014650E-006  0.2771273E+04  0.7818608E-02  0.8312243E-01
         -2   -1    0    0    0  501 -0.00000000000E+00  0.00000000000E+00  0.12831126124E+04  0.12831126124E+04  0.00000000000E+00 0.  1.
          2   -1    0    0  501    0  0.00000000000E+00 -0.00000000000E+00 -0.14963527234E+04  0.14963527234E+04  0.00000000000E+00 0. -1.
         23    2    1    2    0    0 -0.37304765950E+03 -0.65081096373E+03 -0.12734152026E+04  0.14807387705E+04  0.91003084092E+02 0.  0.
         11    1    3    3    0    0 -0.14296431682E+03 -0.16890558751E+03 -0.35295881710E+03  0.41659071034E+03  0.00000000000E+00 0.  1.
        -11    1    3    3    0    0 -0.23008334268E+03 -0.48190537621E+03 -0.92045638552E+03  0.10641480601E+04  0.00000000000E+00 0. -1.
         22    1    1    2    0    0  0.37304765950E+03  0.65081096373E+03  0.10601750916E+04  0.12987265653E+04  0.00000000000E+00 0.  1.
<mgrwt>
<rscale>  0 0.27712734E+04</rscale>
<asrwt>0</asrwt>
<pdfrwt beam="1">  1        2 0.23020811E+00 0.27712734E+04</pdfrwt>
<pdfrwt beam="2">  1       -2 0.19740194E+00 0.27712734E+04</pdfrwt>
<totfact> 0.15392106E+00</totfact>
</mgrwt>
</event>
<event>
 6    1  0.1014650E-006  0.1860473E+04  0.7818608E-02  0.8674786E-01
         -1   -1    0    0    0  501 -0.00000000000E+00  0.00000000000E+00  0.19784432366E+04  0.19784432366E+04  0.00000000000E+00 0.  1.
          1   -1    0    0  501    0  0.00000000000E+00 -0.00000000000E+00 -0.43738419689E+03  0.43738419689E+03  0.00000000000E+00 0. -1.
         23    2    1    2    0    0  0.58077598403E+03  0.57565370647E+03  0.20311134821E+03  0.84777706486E+03  0.93775255412E+02 0.  0.
         11    1    3    3    0    0  0.34614836719E+03  0.29530806385E+03  0.14545757615E+03  0.47768551489E+03  0.00000000000E+00 0. -1.
        -11    1    3    3    0    0  0.23462761684E+03  0.28034564262E+03  0.57653772068E+02  0.37009154996E+03  0.00000000000E+00 0.  1.
         22    1    1    2    0    0 -0.58077598403E+03 -0.57565370647E+03  0.13379476915E+04  0.15680503687E+04  0.00000000000E+00 0.  1.
<mgrwt>
<rscale>  0 0.18604728E+04</rscale>
<asrwt>0</asrwt>
<pdfrwt beam="1">  1        1 0.67289878E-01 0.18604728E+04</pdfrwt>
<pdfrwt beam="2">  1       -1 0.30437588E+00 0.18604728E+04</pdfrwt>
<totfact> 0.15470010E+00</totfact>
</mgrwt>
</event>
<event>
 6    1  0.1014650E-006  0.8460485E+03  0.7818608E-02  0.9495656E-01
          1   -1    0    0  501    0  0.00000000000E+00  0.00000000000E+00  0.90891372887E+03  0.90891372887E+03  0.00000000000E+00 0. -1.
         -1   -1    0    0    0  501 -0.00000000000E+00 -0.00000000000E+00 -0.19688285856E+03  0.19688285856E+03  0.00000000000E+00 0.  1.
         23    2    1    2    0    0 -0.39439905110E+03 -0.24557484346E+02  0.53863013034E+03  0.67426269748E+03  0.91400691252E+02 0.  0.
         11    1    3    3    0    0 -0.14423137474E+03 -0.13311020512E+01  0.27220370703E+03  0.30805733137E+03  0.00000000000E+00 0. -1.
        -11    1    3    3    0    0 -0.25016767636E+03 -0.23226382294E+02  0.26642642331E+03  0.36620536611E+03  0.00000000000E+00 0.  1.
         22    1    1    2    0    0  0.39439905110E+03  0.24557484346E+02  0.17340073997E+03  0.43153388995E+03  0.00000000000E+00 0.  1.
<mgrwt>
<rscale>  0 0.84604854E+03</rscale>
<asrwt>0</asrwt>
<pdfrwt beam="1">  1        1 0.13983288E+00 0.84604854E+03</pdfrwt>
<pdfrwt beam="2">  1       -1 0.30289671E-01 0.84604854E+03</pdfrwt>
<totfact> 0.18100219E+02</totfact>
</mgrwt>
</event>
<event>
 6    1  0.1014650E-006  0.2459490E+04  0.7818608E-02  0.8417561E-01
          1   -1    0    0  501    0  0.00000000000E+00  0.00000000000E+00  0.18468171979E+04  0.18468171979E+04  0.00000000000E+00 0. -1.
         -1   -1    0    0    0  501 -0.00000000000E+00 -0.00000000000E+00 -0.81885355385E+03  0.81885355385E+03  0.00000000000E+00 0.  1.
         23    2    1    2    0    0  0.11117975955E+04  0.45257264120E+03  0.23449304398E+03  0.12267435534E+04  0.94851828003E+02 0.  0.
         13    1    3    3    0    0  0.60557739102E+03  0.19550920028E+03  0.12724980622E+03  0.64895326265E+03  0.00000000000E+00 0.  1.
        -13    1    3    3    0    0  0.50622020447E+03  0.25706344091E+03  0.10724323776E+03  0.57779029077E+03  0.00000000000E+00 0. -1.
         22    1    1    2    0    0 -0.11117975955E+04 -0.45257264120E+03  0.79347060005E+03  0.14389271983E+04  0.00000000000E+00 0. -1.
<mgrwt>
<rscale>  0 0.24594900E+04</rscale>
<asrwt>0</asrwt>
<pdfrwt beam="1">  1        1 0.28412572E+00 0.24594900E+04</pdfrwt>
<pdfrwt beam="2">  1       -1 0.12597747E+00 0.24594900E+04</pdfrwt>
<totfact> 0.18524497E+00</totfact>
</mgrwt>
</event>
<event>
 6    1  0.1014650E-006  0.1380043E+04  0.7818608E-02  0.8968393E-01
          1   -1    0    0  501    0  0.00000000000E+00  0.00000000000E+00  0.21936231263E+04  0.21936231263E+04  0.00000000000E+00 0. -1.
         -1   -1    0    0    0  501 -0.00000000000E+00 -0.00000000000E+00 -0.21705166801E+03  0.21705166801E+03  0.00000000000E+00 0.  1.
         23    2    1    2    0    0  0.44408867821E+03  0.25486938975E+03  0.19197592360E+03  0.55407726594E+03  0.89295584685E+02 0.  0.
         11    1    3    3    0    0  0.37818223559E+03  0.19364080063E+03  0.18634329662E+03  0.46394222396E+03  0.00000000000E+00 0.  1.
        -11    1    3    3    0    0  0.65906442623E+02  0.61228589120E+02  0.56326269730E+01  0.90135041973E+02  0.00000000000E+00 0. -1.
         22    1    1    2    0    0 -0.44408867821E+03 -0.25486938975E+03  0.17845955347E+04  0.18565975283E+04  0.00000000000E+00 0. -1.
<mgrwt>
<rscale>  0 0.13800428E+04</rscale>
<asrwt>0</asrwt>
<pdfrwt beam="1">  1        1 0.33748047E+00 0.13800428E+04</pdfrwt>
<pdfrwt beam="2">  1       -1 0.33392566E-01 0.13800428E+04</pdfrwt>
<totfact> 0.18172086E+01</totfact>
</mgrwt>
</event>
<event>
 6    1  0.1520669E-006  0.3293942E+04  0.7818608E-02  0.8164438E-01
         -1   -1    0    0    0  501 -0.00000000000E+00  0.00000000000E+00  0.24703519614E+04  0.24703519614E+04  0.00000000000E+00 0.  1.
          1   -1    0    0  501    0  0.00000000000E+00 -0.00000000000E+00 -0.10980273502E+04  0.10980273502E+04  0.00000000000E+00 0. -1.
         23    2    1    2    0    0  0.10064464682E+04  0.79820401434E+03 -0.42776807686E+03  0.13569549228E+04  0.90977981705E+02 0.  0.
         11    1    3    3    0    0  0.37450324880E+03  0.32565059845E+03 -0.20558930284E+03  0.53718521673E+03  0.00000000000E+00 0. -1.
        -11    1    3    3    0    0  0.63194321939E+03  0.47255341590E+03 -0.22217877402E+03  0.81976970610E+03  0.00000000000E+00 0.  1.
         22    1    1    2    0    0 -0.10064464682E+04 -0.79820401434E+03  0.18000926881E+04  0.22114243888E+04  0.00000000000E+00 0.  1.
<mgrwt>
<rscale>  0 0.32939423E+04</rscale>
<asrwt>0</asrwt>
<pdfrwt beam="1">  1        1 0.16892729E+00 0.32939423E+04</pdfrwt>
<pdfrwt beam="2">  1       -1 0.38005415E+00 0.32939423E+04</pdfrwt>
<totfact> 0.10316189E-01</totfact>
</mgrwt>
</event>
<event>
 6    1  0.1014650E-006  0.5137880E+04  0.7818608E-02  0.7807583E-01
          2   -1    0    0  501    0  0.00000000000E+00  0.00000000000E+00  0.50407056208E+04  0.50407056208E+04  0.00000000000E+00 0. -1.
         -2   -1    0    0    0  501 -0.00000000000E+00 -0.00000000000E+00 -0.13092320085E+04  0.13092320085E+04  0.00000000000E+00 0.  1.
         23    2    1    2    0    0 -0.46194425273E+03  0.25138436229E+04  0.21749356838E+04  0.33573446774E+04  0.92821340018E+02 0.  0.
         11    1    3    3    0    0 -0.29530312441E+03  0.13524461578E+04  0.11709470719E+04  0.18131275715E+04  0.00000000000E+00 0.  1.
        -11    1    3    3    0    0 -0.16664112833E+03  0.11613974651E+04  0.10039886119E+04  0.15442171060E+04  0.00000000000E+00 0. -1.
         22    1    1    2    0    0  0.46194425273E+03 -0.25138436229E+04  0.15565379284E+04  0.29925929519E+04  0.00000000000E+00 0.  1.
<mgrwt>
<rscale>  0 0.51378802E+04</rscale>
<asrwt>0</asrwt>
<pdfrwt beam="1">  1        2 0.77549316E+00 0.51378802E+04</pdfrwt>
<pdfrwt beam="2">  1       -2 0.20142031E+00 0.51378802E+04</pdfrwt>
<totfact> 0.28012124E-03</totfact>
</mgrwt>
</event>
<event>
 6    1  0.1014650E-006  0.3262629E+04  0.7818608E-02  0.8172470E-01
          2   -1    0    0  501    0  0.00000000000E+00  0.00000000000E+00  0.26979263852E+04  0.26979263852E+04  0.00000000000E+00 0. -1.
         -2   -1    0    0    0  501 -0.00000000000E+00 -0.00000000000E+00 -0.98638258112E+03  0.98638258112E+03  0.00000000000E+00 0.  1.
         23    2    1    2    0    0  0.36046333757E+03  0.13478600874E+04  0.18082208660E+04  0.22857357337E+04  0.90909357039E+02 0.  0.
         11    1    3    3    0    0  0.92616310409E+02  0.25089531934E+03  0.38987331380E+03  0.47278688965E+03  0.00000000000E+00 0. -1.
        -11    1    3    3    0    0  0.26784702717E+03  0.10969647680E+04  0.14183475522E+04  0.18129488440E+04  0.00000000000E+00 0.  1.
         22    1    1    2    0    0 -0.36046333757E+03 -0.13478600874E+04 -0.96677061865E+02  0.13985732327E+04  0.00000000000E+00 0. -1.
<mgrwt>
<rscale>  0 0.32626294E+04</rscale>
<asrwt>0</asrwt>
<pdfrwt beam="1">  1        2 0.41506560E+00 0.32626294E+04</pdfrwt>
<pdfrwt beam="2">  1       -2 0.15175117E+00 0.32626294E+04</pdfrwt>
<totfact> 0.64789585E-01</totfact>
</mgrwt>
</event>
<event>
 6    1  0.1014650E-006  0.5436223E+03  0.7818608E-02  0.1002981E+00
         -2   -1    0    0    0  501 -0.00000000000E+00  0.00000000000E+00  0.12098714113E+03  0.12098714113E+03  0.00000000000E+00 0.  1.
          2   -1    0    0  501    0  0.00000000000E+00 -0.00000000000E+00 -0.61065406954E+03  0.61065406954E+03  0.00000000000E+00 0. -1.
         23    2    1    2    0    0 -0.98629927634E+02  0.24151498406E+03 -0.19544737440E+03  0.33842053965E+03  0.90947431765E+02 0.  0.
         11    1    3    3    0    0 -0.64281354287E+02  0.11620797431E+03 -0.15101961282E+03  0.20110521938E+03  0.00000000000E+00 0.  1.
        -11    1    3    3    0    0 -0.34348573347E+02  0.12530700975E+03 -0.44427761581E+02  0.13731532028E+03  0.00000000000E+00 0. -1.
         22    1    1    2    0    0  0.98629927634E+02 -0.24151498406E+03 -0.29421955401E+03  0.39322067102E+03  0.00000000000E+00 0. -1.
<mgrwt>
<rscale>  0 0.54362226E+03</rscale>
<asrwt>0</asrwt>
<pdfrwt beam="1">  1        2 0.93946781E-01 0.54362226E+03</pdfrwt>
<pdfrwt beam="2">  1       -2 0.18613406E-01 0.54362226E+03</pdfrwt>
<totfact> 0.11773931E+03</totfact>
</mgrwt>
</event>
<event>
 6    1  0.1014650E-006  0.2635097E+04  0.7818608E-02  0.8356376E-01
          2   -1    0    0  501    0  0.00000000000E+00  0.00000000000E+00  0.16659021589E+04  0.16659021589E+04  0.00000000000E+00 0. -1.
         -2   -1    0    0    0  501 -0.00000000000E+00 -0.00000000000E+00 -0.10420383803E+04  0.10420383803E+04  0.00000000000E+00 0.  1.
         23    2    1    2    0    0  0.38017194186E+03 -0.12581212266E+04  0.24377577669E+03  0.13397787742E+04  0.90447819983E+02 0.  0.
         11    1    3    3    0    0  0.12949755024E+03 -0.38568243795E+03  0.35020775094E+02  0.40834668255E+03  0.00000000000E+00 0.  1.
        -11    1    3    3    0    0  0.25067439163E+03 -0.87243878867E+03  0.20875500160E+03  0.93143209161E+03  0.00000000000E+00 0. -1.
         22    1    1    2    0    0 -0.38017194186E+03  0.12581212266E+04  0.38008800187E+03  0.13681617651E+04  0.00000000000E+00 0. -1.
<mgrwt>
<rscale>  0 0.26350970E+04</rscale>
<asrwt>0</asrwt>
<pdfrwt beam="1">  1        2 0.25629264E+00 0.26350970E+04</pdfrwt>
<pdfrwt beam="2">  1       -2 0.16031360E+00 0.26350970E+04</pdfrwt>
<totfact> 0.22644699E+00</totfact>
</mgrwt>
</event>
<event>
 6    1  0.1014650E-006  0.5423997E+03  0.7818608E-02  0.1003269E+00
          1   -1    0    0  501    0  0.00000000000E+00  0.00000000000E+00  0.90117053571E+03  0.90117053571E+03  0.00000000000E+00 0. -1.
         -1   -1    0    0    0  501 -0.00000000000E+00 -0.00000000000E+00 -0.81615371172E+02  0.81615371172E+02  0.00000000000E+00 0.  1.
         23    2    1    2    0    0  0.23964255118E+03 -0.30100684588E+02  0.22308883382E+03  0.33927468925E+03  0.83690402317E+02 0.  0.
         11    1    3    3    0    0  0.72163872499E+02 -0.25060205323E+02  0.12091528946E+03  0.14302498247E+03  0.00000000000E+00 0.  1.
        -11    1    3    3    0    0  0.16747867868E+03 -0.50404792647E+01  0.10217354436E+03  0.19624970678E+03  0.00000000000E+00 0. -1.
         22    1    1    2    0    0 -0.23964255118E+03  0.30100684588E+02  0.59646633071E+03  0.64351121764E+03  0.00000000000E+00 0. -1.
<mgrwt>
<rscale>  0 0.54239973E+03</rscale>
<asrwt>0</asrwt>
<pdfrwt beam="1">  1        1 0.13864161E+00 0.54239973E+03</pdfrwt>
<pdfrwt beam="2">  1       -1 0.12556212E-01 0.54239973E+03</pdfrwt>
<totfact> 0.80654593E+02</totfact>
</mgrwt>
</event>
<event>
 6    1  0.1014650E-006  0.3002678E+04  0.7818608E-02  0.8242966E-01
          1   -1    0    0  501    0  0.00000000000E+00  0.00000000000E+00  0.84174097989E+03  0.84174097989E+03  0.00000000000E+00 0. -1.
         -1   -1    0    0    0  501 -0.00000000000E+00 -0.00000000000E+00 -0.26778064581E+04  0.26778064581E+04  0.00000000000E+00 0.  1.
         23    2    1    2    0    0 -0.11540921307E+04 -0.40067399725E+03 -0.19389749067E+04  0.22935545145E+04  0.91106113806E+02 0.  0.
         11    1    3    3    0    0 -0.45611249957E+03 -0.12000063378E+03 -0.69973123354E+03  0.84383799604E+03  0.00000000000E+00 0. -1.
        -11    1    3    3    0    0 -0.69797963110E+03 -0.28067336347E+03 -0.12392436732E+04  0.14497165184E+04  0.00000000000E+00 0.  1.
         22    1    1    2    0    0  0.11540921307E+04  0.40067399725E+03  0.10290942845E+03  0.12259929236E+04  0.00000000000E+00 0. -1.
<mgrwt>
<rscale>  0 0.30026784E+04</rscale>
<asrwt>0</asrwt>
<pdfrwt beam="1">  1        1 0.12949861E+00 0.30026784E+04</pdfrwt>
<pdfrwt beam="2">  1       -1 0.41197022E+00 0.30026784E+04</pdfrwt>
<totfact> 0.10247207E-01</totfact>
</mgrwt>
</event>
<event>
 6    1  0.1014650E-006  0.4505358E+04  0.7818608E-02  0.7909699E-01
          1   -1    0    0  501    0  0.00000000000E+00  0.00000000000E+00  0.30083045108E+04  0.30083045108E+04  0.00000000000E+00 0. -1.
         -1   -1    0    0    0  501 -0.00000000000E+00 -0.00000000000E+00 -0.16868517523E+04  0.16868517523E+04  0.00000000000E+00 0.  1.
         23    2    1    2    0    0 -0.41318286720E+03 -0.11674682779E+04  0.26208219411E+04  0.29001458078E+04  0.91846601354E+02 0.  0.
         11    1    3    3    0    0 -0.30775119960E+03 -0.75487824566E+03  0.17698080762E+04  0.19485308807E+04  0.00000000000E+00 0.  1.
        -11    1    3    3    0    0 -0.10543166759E+03 -0.41259003226E+03  0.85101386489E+03  0.95161492710E+03  0.00000000000E+00 0. -1.
         22    1    1    2    0    0  0.41318286720E+03  0.11674682779E+04 -0.12993691826E+04  0.17950104553E+04  0.00000000000E+00 0.  1.
<mgrwt>
<rscale>  0 0.45053585E+04</rscale>
<asrwt>0</asrwt>
<pdfrwt beam="1">  1        1 0.46281608E+00 0.45053585E+04</pdfrwt>
<pdfrwt beam="2">  1       -1 0.25951565E+00 0.45053585E+04</pdfrwt>
<totfact> 0.26751052E-02</totfact>
</mgrwt>
</event>
<event>
 6    1  0.1014650E-006  0.2057586E+04  0.7818608E-02  0.8580161E-01
         -4   -1    0    0    0  501 -0.00000000000E+00  0.00000000000E+00  0.93555877833E+03  0.93555877833E+03  0.00000000000E+00 0.  1.
          4   -1    0    0  501    0  0.00000000000E+00 -0.00000000000E+00 -0.11313181191E+04  0.11313181191E+04  0.00000000000E+00 0. -1.
         23    2    1    2    0    0 -0.17961178182E+03  0.71186612622E+03 -0.81923677597E+03  0.11036853868E+04  0.89211906044E+02 0.  0.
         11    1    3    3    0    0 -0.10656072803E+03  0.46875659878E+03 -0.47337407524E+03  0.67466358488E+03  0.00000000000E+00 0.  1.
        -11    1    3    3    0    0 -0.73051053793E+02  0.24310952744E+03 -0.34586270073E+03  0.42902180195E+03  0.00000000000E+00 0. -1.
         22    1    1    2    0    0  0.17961178182E+03 -0.71186612622E+03  0.62347743522E+03  0.96319151058E+03  0.00000000000E+00 0.  1.
<mgrwt>
<rscale>  0 0.20575856E+04</rscale>
<asrwt>0</asrwt>
<pdfrwt beam="1">  1        4 0.17404894E+00 0.20575856E+04</pdfrwt>
<pdfrwt beam="2">  1       -4 0.14393212E+00 0.20575856E+04</pdfrwt>
<totfact> 0.12164751E-01</totfact>
</mgrwt>
</event>
<event>
 6    1  0.1014650E-006  0.2400339E+04  0.7818608E-02  0.8439377E-01
          1   -1    0    0  501    0  0.00000000000E+00  0.00000000000E+00  0.10658863874E+04  0.10658863874E+04  0.00000000000E+00 0. -1.
         -1   -1    0    0    0  501 -0.00000000000E+00 -0.00000000000E+00 -0.13513701354E+04  0.13513701354E+04  0.00000000000E+00 0.  1.
         23    2    1    2    0    0  0.37247566545E+03  0.67690759687E+03 -0.10655332409E+04  0.13193406665E+04  0.91414937387E+02 0.  0.
         11    1    3    3    0    0  0.15508630997E+03  0.28981141747E+03 -0.53075670756E+03  0.62429568624E+03  0.00000000000E+00 0. -1.
        -11    1    3    3    0    0  0.21738935548E+03  0.38709617940E+03 -0.53477653334E+03  0.69504498027E+03  0.00000000000E+00 0.  1.
         22    1    1    2    0    0 -0.37247566545E+03 -0.67690759687E+03  0.78004949294E+03  0.10979158563E+04  0.00000000000E+00 0. -1.
<mgrwt>
<rscale>  0 0.24003392E+04</rscale>
<asrwt>0</asrwt>
<pdfrwt beam="1">  1        1 0.16398252E+00 0.24003392E+04</pdfrwt>
<pdfrwt beam="2">  1       -1 0.20790310E+00 0.24003392E+04</pdfrwt>
<totfact> 0.16019978E+00</totfact>
</mgrwt>
</event>
<event>
 6    1  0.1014650E-006  0.9423945E+03  0.7818608E-02  0.9374085E-01
         -1   -1    0    0    0  501 -0.00000000000E+00  0.00000000000E+00  0.15981623266E+03  0.15981623266E+03  0.00000000000E+00 0.  1.
          1   -1    0    0  501    0  0.00000000000E+00 -0.00000000000E+00 -0.13892635826E+04  0.13892635826E+04  0.00000000000E+00 0. -1.
         23    2    1    2    0    0  0.20595032897E+03 -0.41508830914E+03 -0.52954065460E+03  0.70968525692E+03  0.92336431768E+02 0.  0.
         13    1    3    3    0    0  0.96119043747E+02 -0.12805337307E+03 -0.13404439425E+03  0.20881675353E+03  0.00000000000E+00 0. -1.
        -13    1    3    3    0    0  0.10983128523E+03 -0.28703493608E+03 -0.39549626035E+03  0.50086850340E+03  0.00000000000E+00 0.  1.
         22    1    1    2    0    0 -0.20595032897E+03  0.41508830914E+03 -0.69990669536E+03  0.83939455835E+03  0.00000000000E+00 0. -1.
<mgrwt>
<rscale>  0 0.94239455E+03</rscale>
<asrwt>0</asrwt>
<pdfrwt beam="1">  1        1 0.21373286E+00 0.94239455E+03</pdfrwt>
<pdfrwt beam="2">  1       -1 0.24587113E-01 0.94239455E+03</pdfrwt>
<totfact> 0.11328517E+02</totfact>
</mgrwt>
</event>
<event>
 6    1  0.1014650E-006  0.4078406E+04  0.7818608E-02  0.7988914E-01
          2   -1    0    0  501    0  0.00000000000E+00  0.00000000000E+00  0.31640126533E+04  0.31640126533E+04  0.00000000000E+00 0. -1.
         -2   -1    0    0    0  501 -0.00000000000E+00 -0.00000000000E+00 -0.13142641440E+04  0.13142641440E+04  0.00000000000E+00 0.  1.
         23    2    1    2    0    0  0.39730306611E+03 -0.69935359982E+03  0.29816419973E+04  0.30897062906E+04  0.95659699717E+02 0.  0.
         13    1    3    3    0    0  0.38251773835E+03 -0.63866566667E+03  0.26686662278E+04  0.27705582631E+04  0.00000000000E+00 0. -1.
        -13    1    3    3    0    0  0.14785327761E+02 -0.60687933153E+02  0.31297576952E+03  0.31914802749E+03  0.00000000000E+00 0.  1.
         22    1    1    2    0    0 -0.39730306611E+03  0.69935359982E+03 -0.11318934880E+04  0.13885705067E+04  0.00000000000E+00 0.  1.
<mgrwt>
<rscale>  0 0.40784058E+04</rscale>
<asrwt>0</asrwt>
<pdfrwt beam="1">  1        2 0.48677118E+00 0.40784058E+04</pdfrwt>
<pdfrwt beam="2">  1       -2 0.20219448E+00 0.40784058E+04</pdfrwt>
<totfact> 0.13791364E-01</totfact>
</mgrwt>
</event>
<event>
 6    1  0.1276553E-006  0.3252796E+04  0.7818608E-02  0.8175011E-01
          2   -1    0    0  501    0  0.00000000000E+00  0.00000000000E+00  0.24172394767E+04  0.24172394767E+04  0.00000000000E+00 0. -1.
         -2   -1    0    0    0  501 -0.00000000000E+00 -0.00000000000E+00 -0.10942939114E+04  0.10942939114E+04  0.00000000000E+00 0.  1.
         23    2    1    2    0    0  0.55017255511E+03  0.19797581795E+03 -0.97483129183E+03  0.11405288013E+04  0.92874292763E+02 0.  0.
         13    1    3    3    0    0  0.28112852033E+03  0.14362492739E+03 -0.47608458400E+03  0.57124241424E+03  0.00000000000E+00 0. -1.
        -13    1    3    3    0    0  0.26904403478E+03  0.54350890565E+02 -0.49874670783E+03  0.56928638709E+03  0.00000000000E+00 0.  1.
         22    1    1    2    0    0 -0.55017255511E+03 -0.19797581795E+03  0.22977768572E+04  0.23710045867E+04  0.00000000000E+00 0. -1.
<mgrwt>
<rscale>  0 0.32527960E+04</rscale>
<asrwt>0</asrwt>
<pdfrwt beam="1">  1        2 0.37188299E+00 0.32527960E+04</pdfrwt>
<pdfrwt beam="2">  1       -2 0.16835291E+00 0.32527960E+04</pdfrwt>
<totfact> 0.71337959E-01</totfact>
</mgrwt>
</event>
<event>
 6    1  0.1014650E-006  0.5487628E+03  0.7818608E-02  0.1001781E+00
         -1   -1    0    0    0  501 -0.00000000000E+00  0.00000000000E+00  0.93661814963E+03  0.93661814963E+03  0.00000000000E+00 0.  1.
          1   -1    0    0  501    0  0.00000000000E+00 -0.00000000000E+00 -0.80379771179E+02  0.80379771179E+02  0.00000000000E+00 0. -1.
         23    2    1    2    0    0 -0.74483921877E+02  0.19302624227E+03  0.13341837781E+03  0.26514970598E+03  0.98472931414E+02 0.  0.
         11    1    3    3    0    0 -0.68840265469E+02  0.10679948776E+03  0.12514475696E+03  0.17834327274E+03  0.00000000000E+00 0. -1.
        -11    1    3    3    0    0 -0.56436564076E+01  0.86226754502E+02  0.82736208494E+01  0.86806433239E+02  0.00000000000E+00 0.  1.
         22    1    1    2    0    0  0.74483921877E+02 -0.19302624227E+03  0.72282000064E+03  0.75184821483E+03  0.00000000000E+00 0.  1.
<mgrwt>
<rscale>  0 0.54876280E+03</rscale>
<asrwt>0</asrwt>
<pdfrwt beam="1">  1        1 0.12366119E-01 0.54876280E+03</pdfrwt>
<pdfrwt beam="2">  1       -1 0.14409509E+00 0.54876280E+03</pdfrwt>
<totfact> 0.19945458E+02</totfact>
</mgrwt>
</event>
<event>
 6    1  0.1014650E-006  0.2149551E+04  0.7818608E-02  0.8539724E-01
         -1   -1    0    0    0  501 -0.00000000000E+00  0.00000000000E+00  0.55986083426E+03  0.55986083426E+03  0.00000000000E+00 0.  1.
          1   -1    0    0  501    0  0.00000000000E+00 -0.00000000000E+00 -0.20632679016E+04  0.20632679016E+04  0.00000000000E+00 0. -1.
         23    2    1    2    0    0  0.18849885311E+03  0.79071324775E+02 -0.20383277688E+04  0.20504820307E+04  0.88951520131E+02 0.  0.
         13    1    3    3    0    0  0.15050441849E+03  0.77530954636E+02 -0.18818511695E+04  0.18894513630E+04  0.00000000000E+00 0. -1.
        -13    1    3    3    0    0  0.37994434620E+02  0.15403701388E+01 -0.15647659927E+03  0.16103066765E+03  0.00000000000E+00 0.  1.
         22    1    1    2    0    0 -0.18849885311E+03 -0.79071324775E+02  0.53492070151E+03  0.57264670516E+03  0.00000000000E+00 0.  1.
<mgrwt>
<rscale>  0 0.21495515E+04</rscale>
<asrwt>0</asrwt>
<pdfrwt beam="1">  1        1 0.31742584E+00 0.21495515E+04</pdfrwt>
<pdfrwt beam="2">  1       -1 0.86132434E-01 0.21495515E+04</pdfrwt>
<totfact> 0.32875815E+00</totfact>
</mgrwt>
</event>
<event>
 6    1  0.1014650E-006  0.1948873E+04  0.7818608E-02  0.8630905E-01
         -2   -1    0    0    0  501 -0.00000000000E+00  0.00000000000E+00  0.30168516760E+03  0.30168516760E+03  0.00000000000E+00 0.  1.
          2   -1    0    0  501    0  0.00000000000E+00 -0.00000000000E+00 -0.31474075492E+04  0.31474075492E+04  0.00000000000E+00 0. -1.
         23    2    1    2    0    0 -0.25922422420E+03  0.81408876173E+03 -0.22472283618E+04  0.24059566748E+04  0.93029568049E+02 0.  0.
         13    1    3    3    0    0 -0.52127945751E+02  0.26174240204E+03 -0.78985565797E+03  0.83372559525E+03  0.00000000000E+00 0. -1.
        -13    1    3    3    0    0 -0.20709627845E+03  0.55234635969E+03 -0.14573727038E+04  0.15722310795E+04  0.00000000000E+00 0.  1.
         22    1    1    2    0    0  0.25922422420E+03 -0.81408876173E+03 -0.59849401981E+03  0.10431360420E+04  0.00000000000E+00 0.  1.
<mgrwt>
<rscale>  0 0.19488727E+04</rscale>
<asrwt>0</asrwt>
<pdfrwt beam="1">  1        2 0.48421657E+00 0.19488727E+04</pdfrwt>
<pdfrwt beam="2">  1       -2 0.46413101E-01 0.19488727E+04</pdfrwt>
<totfact> 0.57807905E+00</totfact>
</mgrwt>
</event>
<event>
 6    1  0.1014650E-006  0.2585559E+03  0.7818608E-02  0.1108014E+00
         -2   -1    0    0    0  501 -0.00000000000E+00  0.00000000000E+00  0.16404119033E+02  0.16404119033E+02  0.00000000000E+00 0.  1.
          2   -1    0    0  501    0  0.00000000000E+00 -0.00000000000E+00 -0.10188167646E+04  0.10188167646E+04  0.00000000000E+00 0. -1.
         23    2    1    2    0    0 -0.50928479496E+02  0.21508283891E+02 -0.95858288111E+03  0.96467044384E+03  0.93014025659E+02 0.  0.
         13    1    3    3    0    0  0.16153024409E+02 -0.21573435038E+02 -0.17830777112E+03  0.18033301012E+03  0.00000000000E+00 0. -1.
        -13    1    3    3    0    0 -0.67081503905E+02  0.43081718929E+02 -0.78027510998E+03  0.78433743372E+03  0.00000000000E+00 0.  1.
         22    1    1    2    0    0  0.50928479496E+02 -0.21508283891E+02 -0.43829764411E+02  0.70550439744E+02  0.00000000000E+00 0.  1.
<mgrwt>
<rscale>  0 0.25855592E+03</rscale>
<asrwt>0</asrwt>
<pdfrwt beam="1">  1        2 0.15674105E+00 0.25855592E+03</pdfrwt>
<pdfrwt beam="2">  1       -2 0.25237105E-02 0.25855592E+03</pdfrwt>
<totfact> 0.13936206E+04</totfact>
</mgrwt>
</event>
<event>
 6    1  0.1014650E-006  0.2570838E+04  0.7818608E-02  0.8378175E-01
          2   -1    0    0  501    0  0.00000000000E+00  0.00000000000E+00  0.35750985807E+04  0.35750985807E+04  0.00000000000E+00 0. -1.
         -2   -1    0    0    0  501 -0.00000000000E+00 -0.00000000000E+00 -0.46216954735E+03  0.46216954735E+03  0.00000000000E+00 0.  1.
         23    2    1    2    0    0  0.10194629462E+04 -0.37204230375E+03  0.48155855337E+03  0.11908966173E+04  0.92822078473E+02 0.  0.
         11    1    3    3    0    0  0.56833552552E+03 -0.18760510688E+03  0.21906963187E+03  0.63733229112E+03  0.00000000000E+00 0. -1.
        -11    1    3    3    0    0  0.45112742068E+03 -0.18443719687E+03  0.26248892150E+03  0.55356432615E+03  0.00000000000E+00 0.  1.
         22    1    1    2    0    0 -0.10194629462E+04  0.37204230375E+03  0.26313704800E+04  0.28463715108E+04  0.00000000000E+00 0. -1.
<mgrwt>
<rscale>  0 0.25708378E+04</rscale>
<asrwt>0</asrwt>
<pdfrwt beam="1">  1        2 0.55001515E+00 0.25708378E+04</pdfrwt>
<pdfrwt beam="2">  1       -2 0.71103010E-01 0.25708378E+04</pdfrwt>
<totfact> 0.11470536E+00</totfact>
</mgrwt>
</event>
<event>
 6    1  0.1014650E-006  0.3150515E+04  0.7818608E-02  0.8202010E-01
         -2   -1    0    0    0  501 -0.00000000000E+00  0.00000000000E+00  0.10632154543E+04  0.10632154543E+04  0.00000000000E+00 0.  1.
          2   -1    0    0  501    0  0.00000000000E+00 -0.00000000000E+00 -0.23338972813E+04  0.23338972813E+04  0.00000000000E+00 0. -1.
         23    2    1    2    0    0  0.21840737295E+03  0.99678435232E+03  0.65594846213E+03  0.12169326750E+04  0.96829359653E+02 0.  0.
         11    1    3    3    0    0  0.22445111673E+03  0.89894703853E+03  0.60354517000E+03  0.11057806537E+04  0.00000000000E+00 0.  1.
        -11    1    3    3    0    0 -0.60437437806E+01  0.97837313789E+02  0.52403292135E+02  0.11115202128E+03  0.00000000000E+00 0. -1.
         22    1    1    2    0    0 -0.21840737295E+03 -0.99678435232E+03 -0.19266302891E+04  0.21801800606E+04  0.00000000000E+00 0. -1.
<mgrwt>
<rscale>  0 0.31505147E+04</rscale>
<asrwt>0</asrwt>
<pdfrwt beam="1">  1        2 0.35906112E+00 0.31505147E+04</pdfrwt>
<pdfrwt beam="2">  1       -2 0.16357161E+00 0.31505147E+04</pdfrwt>
<totfact> 0.86940326E-01</totfact>
</mgrwt>
</event>
<event>
 6    1  0.1014650E-006  0.1741261E+04  0.7818608E-02  0.8738176E-01
          1   -1    0    0  501    0  0.00000000000E+00  0.00000000000E+00  0.20357778610E+04  0.20357778610E+04  0.00000000000E+00 0. -1.
         -1   -1    0    0    0  501 -0.00000000000E+00 -0.00000000000E+00 -0.37233781556E+03  0.37233781556E+03  0.00000000000E+00 0.  1.
         23    2    1    2    0    0  0.48508506934E+03 -0.43135183981E+03  0.16315121726E+04  0.17581992795E+04  0.89781972821E+02 0.  0.
         13    1    3    3    0    0  0.40590571325E+03 -0.31511864049E+03  0.12439977128E+04  0.13459530137E+04  0.00000000000E+00 0.  1.
        -13    1    3    3    0    0  0.79179356091E+02 -0.11623319932E+03  0.38751445986E+03  0.41224626579E+03  0.00000000000E+00 0. -1.
         22    1    1    2    0    0 -0.48508506934E+03  0.43135183981E+03  0.31927872850E+02  0.64991639714E+03  0.00000000000E+00 0. -1.
<mgrwt>
<rscale>  0 0.17412606E+04</rscale>
<asrwt>0</asrwt>
<pdfrwt beam="1">  1        1 0.31319659E+00 0.17412606E+04</pdfrwt>
<pdfrwt beam="2">  1       -1 0.57282742E-01 0.17412606E+04</pdfrwt>
<totfact> 0.82489449E+00</totfact>
</mgrwt>
</event>
<event>
 6    1  0.1014650E-006  0.5965249E+04  0.7818608E-02  0.7694726E-01
         -1   -1    0    0    0  501 -0.00000000000E+00  0.00000000000E+00  0.40865621389E+04  0.40865621389E+04  0.00000000000E+00 0.  1.
          1   -1    0    0  501    0  0.00000000000E+00 -0.00000000000E+00 -0.21769025436E+04  0.21769025436E+04  0.00000000000E+00 0. -1.
         23    2    1    2    0    0  0.71073273834E+03 -0.20274691306E+04 -0.12162020540E+04  0.24704733629E+04  0.91209099231E+02 0.  0.
         11    1    3    3    0    0  0.40203116743E+03 -0.10348216836E+04 -0.59758680492E+03  0.12607914046E+04  0.00000000000E+00 0. -1.
        -11    1    3    3    0    0  0.30870157092E+03 -0.99264744693E+03 -0.61861524904E+03  0.12096819583E+04  0.00000000000E+00 0.  1.
         22    1    1    2    0    0 -0.71073273834E+03  0.20274691306E+04  0.31258616492E+04  0.37929913196E+04  0.00000000000E+00 0.  1.
<mgrwt>
<rscale>  0 0.59652485E+04</rscale>
<asrwt>0</asrwt>
<pdfrwt beam="1">  1        1 0.33490809E+00 0.59652485E+04</pdfrwt>
<pdfrwt beam="2">  1       -1 0.62870186E+00 0.59652485E+04</pdfrwt>
<totfact> 0.53350222E-04</totfact>
</mgrwt>
</event>
<event>
 6    1  0.1014650E-006  0.4527421E+04  0.7818608E-02  0.7905854E-01
          2   -1    0    0  501    0  0.00000000000E+00  0.00000000000E+00  0.19643736057E+04  0.19643736057E+04  0.00000000000E+00 0. -1.
         -2   -1    0    0    0  501 -0.00000000000E+00 -0.00000000000E+00 -0.26086607384E+04  0.26086607384E+04  0.00000000000E+00 0.  1.
         23    2    1    2    0    0 -0.68505439031E+03  0.21530228457E+04 -0.44794491320E+03  0.23051372655E+04  0.90533284824E+02 0.  0.
         13    1    3    3    0    0 -0.52257798601E+03  0.15159385887E+04 -0.33278770623E+03  0.16376523482E+04  0.00000000000E+00 0. -1.
        -13    1    3    3    0    0 -0.16247640430E+03  0.63708425700E+03 -0.11515720697E+03  0.66748491727E+03  0.00000000000E+00 0.  1.
         22    1    1    2    0    0  0.68505439031E+03 -0.21530228457E+04 -0.19634221944E+03  0.22678970786E+04  0.00000000000E+00 0. -1.
<mgrwt>
<rscale>  0 0.45274206E+04</rscale>
<asrwt>0</asrwt>
<pdfrwt beam="1">  1        2 0.30221133E+00 0.45274206E+04</pdfrwt>
<pdfrwt beam="2">  1       -2 0.40133242E+00 0.45274206E+04</pdfrwt>
<totfact> 0.38469185E-02</totfact>
</mgrwt>
</event>
<event>
 6    1  0.1014650E-006  0.4006084E+04  0.7818608E-02  0.8003320E-01
          2   -1    0    0  501    0  0.00000000000E+00  0.00000000000E+00  0.29432537389E+04  0.29432537389E+04  0.00000000000E+00 0. -1.
         -2   -1    0    0    0  501 -0.00000000000E+00 -0.00000000000E+00 -0.13631773714E+04  0.13631773714E+04  0.00000000000E+00 0.  1.
         23    2    1    2    0    0 -0.32727608427E+03  0.13567100395E+04  0.23333580639E+04  0.27204913004E+04  0.93494893078E+02 0.  0.
         11    1    3    3    0    0 -0.22896733504E+03  0.10800113921E+04  0.18859199759E+04  0.21853019935E+04  0.00000000000E+00 0.  1.
        -11    1    3    3    0    0 -0.98308749230E+02  0.27669864738E+03  0.44743808798E+03  0.53518930689E+03  0.00000000000E+00 0. -1.
         22    1    1    2    0    0  0.32727608427E+03 -0.13567100395E+04 -0.75328169639E+03  0.15859398099E+04  0.00000000000E+00 0.  1.
<mgrwt>
<rscale>  0 0.40060838E+04</rscale>
<asrwt>0</asrwt>
<pdfrwt beam="1">  1        2 0.45280827E+00 0.40060838E+04</pdfrwt>
<pdfrwt beam="2">  1       -2 0.20971960E+00 0.40060838E+04</pdfrwt>
<totfact> 0.17118963E-01</totfact>
</mgrwt>
</event>
<event>
 6    1  0.1014650E-006  0.2301025E+04  0.7818608E-02  0.8477517E-01
         -2   -1    0    0    0  501 -0.00000000000E+00  0.00000000000E+00  0.10719053536E+04  0.10719053536E+04  0.00000000000E+00 0.  1.
          2   -1    0    0  501    0  0.00000000000E+00 -0.00000000000E+00 -0.12348837325E+04  0.12348837325E+04  0.00000000000E+00 0. -1.
         23    2    1    2    0    0  0.84252950219E+03 -0.24505613766E+02  0.70104664686E+03  0.10997283038E+04  0.86483836106E+02 0.  0.
         13    1    3    3    0    0  0.47056034611E+03 -0.46820780824E+02  0.35644299627E+03  0.59217466548E+03  0.00000000000E+00 0.  1.
        -13    1    3    3    0    0  0.37196915608E+03  0.22315167058E+02  0.34460365060E+03  0.50755363831E+03  0.00000000000E+00 0. -1.
         22    1    1    2    0    0 -0.84252950219E+03  0.24505613766E+02 -0.86402502569E+03  0.12070607823E+04  0.00000000000E+00 0. -1.
<mgrwt>
<rscale>  0 0.23010245E+04</rscale>
<asrwt>0</asrwt>
<pdfrwt beam="1">  1        2 0.18998211E+00 0.23010245E+04</pdfrwt>
<pdfrwt beam="2">  1       -2 0.16490852E+00 0.23010245E+04</pdfrwt>
<totfact> 0.37955915E+00</totfact>
</mgrwt>
</event>
<event>
 6    1  0.1014650E-006  0.5837604E+03  0.7818608E-02  0.9939683E-01
         -2   -1    0    0    0  501 -0.00000000000E+00  0.00000000000E+00  0.19247470571E+04  0.19247470571E+04  0.00000000000E+00 0.  1.
          2   -1    0    0  501    0  0.00000000000E+00 -0.00000000000E+00 -0.44262469867E+02  0.44262469867E+02  0.00000000000E+00 0. -1.
         23    2    1    2    0    0 -0.12041102785E+03  0.25221649294E+03  0.81434284451E+03  0.86684339135E+03  0.10075327175E+03 0.  0.
         11    1    3    3    0    0 -0.86578242139E+02  0.70545290363E+02  0.28012481636E+03  0.30156648146E+03  0.00000000000E+00 0. -1.
        -11    1    3    3    0    0 -0.33832785710E+02  0.18167120258E+03  0.53421802816E+03  0.56527690988E+03  0.00000000000E+00 0.  1.
         22    1    1    2    0    0  0.12041102785E+03 -0.25221649294E+03  0.10661417427E+04  0.11021661356E+04  0.00000000000E+00 0.  1.
<mgrwt>
<rscale>  0 0.58376043E+03</rscale>
<asrwt>0</asrwt>
<pdfrwt beam="1">  1        2 0.68096122E-02 0.58376043E+03</pdfrwt>
<pdfrwt beam="2">  1       -2 0.29611487E+00 0.58376043E+03</pdfrwt>
<totfact> 0.38813339E+01</totfact>
</mgrwt>
</event>
<event>
 6    1  0.1014650E-006  0.2560468E+04  0.7818608E-02  0.8381754E-01
         -1   -1    0    0    0  501 -0.00000000000E+00  0.00000000000E+00  0.11459608342E+04  0.11459608342E+04  0.00000000000E+00 0.  1.
          1   -1    0    0  501    0  0.00000000000E+00 -0.00000000000E+00 -0.14302405777E+04  0.14302405777E+04  0.00000000000E+00 0. -1.
         23    2    1    2    0    0 -0.55472490537E+03 -0.11466909620E+04 -0.32783278893E+02  0.12777907085E+04  0.95154969983E+02 0.  0.
         11    1    3    3    0    0 -0.46009629547E+03 -0.10211324776E+04 -0.35085351953E+02  0.11205494723E+04  0.00000000000E+00 0.  1.
        -11    1    3    3    0    0 -0.94628609899E+02 -0.12555848437E+03  0.23020730596E+01  0.15724123616E+03  0.00000000000E+00 0. -1.
         22    1    1    2    0    0  0.55472490537E+03  0.11466909620E+04 -0.25149646464E+03  0.12984107034E+04  0.00000000000E+00 0.  1.
<mgrwt>
<rscale>  0 0.25604685E+04</rscale>
<asrwt>0</asrwt>
<pdfrwt beam="1">  1        1 0.22003701E+00 0.25604685E+04</pdfrwt>
<pdfrwt beam="2">  1       -1 0.17630167E+00 0.25604685E+04</pdfrwt>
<totfact> 0.14311175E+00</totfact>
</mgrwt>
</event>
<event>
 6    1  0.1014650E-006  0.6058860E+03  0.7818608E-02  0.9893269E-01
         -1   -1    0    0    0  501 -0.00000000000E+00  0.00000000000E+00  0.21729576526E+03  0.21729576526E+03  0.00000000000E+00 0.  1.
          1   -1    0    0  501    0  0.00000000000E+00 -0.00000000000E+00 -0.42234812295E+03  0.42234812295E+03  0.00000000000E+00 0. -1.
         23    2    1    2    0    0  0.24341817860E+03 -0.11084545523E+03 -0.23799359928E+03  0.37015502014E+03  0.93992877503E+02 0.  0.
         13    1    3    3    0    0  0.13146885296E+03 -0.10468099308E+03 -0.16992552411E+03  0.23899132485E+03  0.00000000000E+00 0.  1.
        -13    1    3    3    0    0  0.11194932564E+03 -0.61644621483E+01 -0.68068075166E+02  0.13116369529E+03  0.00000000000E+00 0. -1.
         22    1    1    2    0    0 -0.24341817860E+03  0.11084545523E+03  0.32941241585E+02  0.26948886807E+03  0.00000000000E+00 0.  1.
<mgrwt>
<rscale>  0 0.60588599E+03</rscale>
<asrwt>0</asrwt>
<pdfrwt beam="1">  1        1 0.64976633E-01 0.60588599E+03</pdfrwt>
<pdfrwt beam="2">  1       -1 0.33430118E-01 0.60588599E+03</pdfrwt>
<totfact> 0.47512902E+02</totfact>
</mgrwt>
</event>
<event>
 6    1  0.1014650E-006  0.1082701E+04  0.7818608E-02  0.9222218E-01
          1   -1    0    0  501    0  0.00000000000E+00  0.00000000000E+00  0.13274517791E+04  0.13274517791E+04  0.00000000000E+00 0. -1.
         -1   -1    0    0    0  501 -0.00000000000E+00 -0.00000000000E+00 -0.22076927646E+03  0.22076927646E+03  0.00000000000E+00 0.  1.
         23    2    1    2    0    0 -0.24749549370E+03  0.42399279092E+03  0.86986626415E+03  0.10031468982E+04  0.92803425564E+02 0.  0.
         13    1    3    3    0    0 -0.23760445796E+03  0.34424031364E+03  0.75179467204E+03  0.86032116147E+03  0.00000000000E+00 0. -1.
        -13    1    3    3    0    0 -0.98910357480E+01  0.79752477276E+02  0.11807159211E+03  0.14282573677E+03  0.00000000000E+00 0.  1.
         22    1    1    2    0    0  0.24749549370E+03 -0.42399279092E+03  0.23681623847E+03  0.54507415730E+03  0.00000000000E+00 0.  1.
<mgrwt>
<rscale>  0 0.10827014E+04</rscale>
<asrwt>0</asrwt>
<pdfrwt beam="1">  1        1 0.20422334E+00 0.10827014E+04</pdfrwt>
<pdfrwt beam="2">  1       -1 0.33964505E-01 0.10827014E+04</pdfrwt>
<totfact> 0.70585314E+01</totfact>
</mgrwt>
</event>
<event>
 6    1  0.1014650E-006  0.9004208E+04  0.7818608E-02  0.7399990E-01
          2   -1    0    0  501    0  0.00000000000E+00  0.00000000000E+00  0.39400505277E+04  0.39400505277E+04  0.00000000000E+00 0. -1.
         -2   -1    0    0    0  501 -0.00000000000E+00 -0.00000000000E+00 -0.51443352116E+04  0.51443352116E+04  0.00000000000E+00 0.  1.
         23    2    1    2    0    0 -0.29759672598E+04 -0.17324960007E+04  0.23230797266E+04  0.41548600818E+04  0.90770915080E+02 0.  0.
         11    1    3    3    0    0 -0.21997496431E+04 -0.12413925734E+04  0.17294016508E+04  0.30611736448E+04  0.00000000000E+00 0.  1.
        -11    1    3    3    0    0 -0.77621761670E+03 -0.49110342731E+03  0.59367807575E+03  0.10936864370E+04  0.00000000000E+00 0. -1.
         22    1    1    2    0    0  0.29759672598E+04  0.17324960007E+04 -0.35273644105E+04  0.49295256575E+04  0.00000000000E+00 0.  1.
<mgrwt>
<rscale>  0 0.90042081E+04</rscale>
<asrwt>0</asrwt>
<pdfrwt beam="1">  1        2 0.60616162E+00 0.90042081E+04</pdfrwt>
<pdfrwt beam="2">  1       -2 0.79143618E+00 0.90042081E+04</pdfrwt>
<totfact> 0.18322408E-05</totfact>
</mgrwt>
</event>
<event>
 6    1  0.1014650E-006  0.1699149E+04  0.7818608E-02  0.8761850E-01
          1   -1    0    0  501    0  0.00000000000E+00  0.00000000000E+00  0.20713230122E+04  0.20713230122E+04  0.00000000000E+00 0. -1.
         -1   -1    0    0    0  501 -0.00000000000E+00 -0.00000000000E+00 -0.34846176641E+03  0.34846176641E+03  0.00000000000E+00 0.  1.
         23    2    1    2    0    0 -0.20232074401E+03 -0.70748677062E+03  0.14616795508E+04  0.16389601556E+04  0.90620463294E+02 0.  0.
         11    1    3    3    0    0 -0.14828827583E+03 -0.48888016508E+03  0.11010753398E+04  0.12138204696E+04  0.00000000000E+00 0. -1.
        -11    1    3    3    0    0 -0.54032468176E+02 -0.21860660554E+03  0.36060421097E+03  0.42513968595E+03  0.00000000000E+00 0.  1.
         22    1    1    2    0    0  0.20232074401E+03  0.70748677062E+03  0.26118169496E+03  0.78082462297E+03  0.00000000000E+00 0.  1.
<mgrwt>
<rscale>  0 0.16991491E+04</rscale>
<asrwt>0</asrwt>
<pdfrwt beam="1">  1        1 0.31866507E+00 0.16991491E+04</pdfrwt>
<pdfrwt beam="2">  1       -1 0.53609504E-01 0.16991491E+04</pdfrwt>
<totfact> 0.89099518E+00</totfact>
</mgrwt>
</event>
<event>
 6    1  0.1014650E-006  0.2114499E+04  0.7818608E-02  0.8554883E-01
          1   -1    0    0  501    0  0.00000000000E+00  0.00000000000E+00  0.26992005661E+04  0.26992005661E+04  0.00000000000E+00 0. -1.
         -1   -1    0    0    0  501 -0.00000000000E+00 -0.00000000000E+00 -0.41411408713E+03  0.41411408713E+03  0.00000000000E+00 0.  1.
         23    2    1    2    0    0  0.58819386507E+03  0.15864892297E+03  0.24134713622E+04  0.24907199360E+04  0.87751238279E+02 0.  0.
         13    1    3    3    0    0  0.15678464331E+03  0.35537849690E+02  0.49325805779E+03  0.51879463636E+03  0.00000000000E+00 0.  1.
        -13    1    3    3    0    0  0.43140922176E+03  0.12311107328E+03  0.19202133044E+04  0.19719252996E+04  0.00000000000E+00 0. -1.
         22    1    1    2    0    0 -0.58819386507E+03 -0.15864892297E+03 -0.12838488323E+03  0.62259471721E+03  0.00000000000E+00 0.  1.
<mgrwt>
<rscale>  0 0.21144994E+04</rscale>
<asrwt>0</asrwt>
<pdfrwt beam="1">  1        1 0.41526161E+00 0.21144994E+04</pdfrwt>
<pdfrwt beam="2">  1       -1 0.63709861E-01 0.21144994E+04</pdfrwt>
<totfact> 0.22564727E+00</totfact>
</mgrwt>
</event>
<event>
 6    1  0.1014650E-006  0.2227612E+04  0.7818608E-02  0.8507023E-01
          1   -1    0    0  501    0  0.00000000000E+00  0.00000000000E+00  0.18977812983E+04  0.18977812983E+04  0.00000000000E+00 0. -1.
         -1   -1    0    0    0  501 -0.00000000000E+00 -0.00000000000E+00 -0.65369161376E+03  0.65369161376E+03  0.00000000000E+00 0.  1.
         23    2    1    2    0    0 -0.96543353422E+03 -0.54808589628E+03  0.69496550316E+03  0.13129264151E+04  0.91316275257E+02 0.  0.
         13    1    3    3    0    0 -0.50864381072E+03 -0.31613131603E+03  0.42015650401E+03  0.73156614398E+03  0.00000000000E+00 0. -1.
        -13    1    3    3    0    0 -0.45678972350E+03 -0.23195458025E+03  0.27480899915E+03  0.58136027110E+03  0.00000000000E+00 0.  1.
         22    1    1    2    0    0  0.96543353422E+03  0.54808589628E+03  0.54912418142E+03  0.12385464970E+04  0.00000000000E+00 0.  1.
<mgrwt>
<rscale>  0 0.22276119E+04</rscale>
<asrwt>0</asrwt>
<pdfrwt beam="1">  1        1 0.29196635E+00 0.22276119E+04</pdfrwt>
<pdfrwt beam="2">  1       -1 0.10056794E+00 0.22276119E+04</pdfrwt>
<totfact> 0.29912136E+00</totfact>
</mgrwt>
</event>
<event>
 6    1  0.1014650E-006  0.2282345E+04  0.7818608E-02  0.8484915E-01
         -2   -1    0    0    0  501 -0.00000000000E+00  0.00000000000E+00  0.61354582186E+03  0.61354582186E+03  0.00000000000E+00 0.  1.
          2   -1    0    0  501    0  0.00000000000E+00 -0.00000000000E+00 -0.21225377727E+04  0.21225377727E+04  0.00000000000E+00 0. -1.
         23    2    1    2    0    0 -0.47713112011E+03  0.79086896903E+03 -0.15553337960E+04  0.18112725876E+04  0.92289423849E+02 0.  0.
         13    1    3    3    0    0 -0.99997069128E+02  0.11583624886E+03 -0.30317781743E+03  0.33960895066E+03  0.00000000000E+00 0. -1.
        -13    1    3    3    0    0 -0.37713405099E+03  0.67503272017E+03 -0.12521559785E+04  0.14716636369E+04  0.00000000000E+00 0.  1.
         22    1    1    2    0    0  0.47713112011E+03 -0.79086896903E+03  0.46341845133E+02  0.92481100695E+03  0.00000000000E+00 0.  1.
<mgrwt>
<rscale>  0 0.22823446E+04</rscale>
<asrwt>0</asrwt>
<pdfrwt beam="1">  1        2 0.32654427E+00 0.22823446E+04</pdfrwt>
<pdfrwt beam="2">  1       -2 0.94391666E-01 0.22823446E+04</pdfrwt>
<totfact> 0.49022806E+00</totfact>
</mgrwt>
</event>
<event>
 6    1  0.1014650E-006  0.1692555E+04  0.7818608E-02  0.8765622E-01
          2   -1    0    0  501    0  0.00000000000E+00  0.00000000000E+00  0.29197015846E+03  0.29197015846E+03  0.00000000000E+00 0. -1.
         -2   -1    0    0    0  501 -0.00000000000E+00 -0.00000000000E+00 -0.24529407191E+04  0.24529407191E+04  0.00000000000E+00 0.  1.
         23    2    1    2    0    0 -0.62982751944E+03 -0.56149167922E+03 -0.10982453300E+04  0.13879508465E+04  0.91154469607E+02 0.  0.
         11    1    3    3    0    0 -0.91799384938E+02 -0.73366603772E+02 -0.10644211197E+03  0.15855506559E+03  0.00000000000E+00 0. -1.
        -11    1    3    3    0    0 -0.53802813450E+03 -0.48812507545E+03 -0.99180321805E+03  0.12293957809E+04  0.00000000000E+00 0.  1.
         22    1    1    2    0    0  0.62982751944E+03  0.56149167922E+03 -0.10627252306E+04  0.13569600311E+04  0.00000000000E+00 0.  1.
<mgrwt>
<rscale>  0 0.16925549E+04</rscale>
<asrwt>0</asrwt>
<pdfrwt beam="1">  1        2 0.44918487E-01 0.16925549E+04</pdfrwt>
<pdfrwt beam="2">  1       -2 0.37737548E+00 0.16925549E+04</pdfrwt>
<totfact> 0.11280796E+00</totfact>
</mgrwt>
</event>
<event>
 6    1  0.1014650E-006  0.3378158E+04  0.7818608E-02  0.8143288E-01
          2   -1    0    0  501    0  0.00000000000E+00  0.00000000000E+00  0.24530070215E+04  0.24530070215E+04  0.00000000000E+00 0. -1.
         -2   -1    0    0    0  501 -0.00000000000E+00 -0.00000000000E+00 -0.11630573285E+04  0.11630573285E+04  0.00000000000E+00 0.  1.
         23    2    1    2    0    0  0.25143663600E+03  0.86640503754E+03  0.21724510462E+04  0.23540474289E+04  0.90098159648E+02 0.  0.
         13    1    3    3    0    0 -0.37812601370E+01  0.68684171274E+02  0.18150662017E+03  0.19410426703E+03  0.00000000000E+00 0. -1.
        -13    1    3    3    0    0  0.25521789614E+03  0.79772086627E+03  0.19909444260E+04  0.21599431619E+04  0.00000000000E+00 0.  1.
         22    1    1    2    0    0 -0.25143663600E+03 -0.86640503754E+03 -0.88250135313E+03  0.12620169212E+04  0.00000000000E+00 0.  1.
<mgrwt>
<rscale>  0 0.33781580E+04</rscale>
<asrwt>0</asrwt>
<pdfrwt beam="1">  1        2 0.37738570E+00 0.33781580E+04</pdfrwt>
<pdfrwt beam="2">  1       -2 0.17893190E+00 0.33781580E+04</pdfrwt>
<totfact> 0.56721692E-01</totfact>
</mgrwt>
</event>
<event>
 6    1  0.1014650E-006  0.2376188E+04  0.7818608E-02  0.8448473E-01
         -2   -1    0    0    0  501 -0.00000000000E+00  0.00000000000E+00  0.55626419693E+03  0.55626419693E+03  0.00000000000E+00 0.  1.
          2   -1    0    0  501    0  0.00000000000E+00 -0.00000000000E+00 -0.25375846544E+04  0.25375846544E+04  0.00000000000E+00 0. -1.
         23    2    1    2    0    0 -0.63369235642E+02 -0.42970522720E+03 -0.24295560594E+04  0.24696874964E+04  0.89170857870E+02 0.  0.
         13    1    3    3    0    0 -0.46653507558E+02 -0.14975461034E+03 -0.10770097345E+04  0.10883717018E+04  0.00000000000E+00 0. -1.
        -13    1    3    3    0    0 -0.16715728084E+02 -0.27995061685E+03 -0.13525463248E+04  0.13813157946E+04  0.00000000000E+00 0.  1.
         22    1    1    2    0    0  0.63369235642E+02  0.42970522720E+03  0.44823560185E+03  0.62416135500E+03  0.00000000000E+00 0.  1.
<mgrwt>
<rscale>  0 0.23761881E+04</rscale>
<asrwt>0</asrwt>
<pdfrwt beam="1">  1        2 0.39039765E+00 0.23761881E+04</pdfrwt>
<pdfrwt beam="2">  1       -2 0.85579106E-01 0.23761881E+04</pdfrwt>
<totfact> 0.35381623E+00</totfact>
</mgrwt>
</event>
<event>
 6    1  0.1014650E-006  0.3483952E+04  0.7818608E-02  0.8117604E-01
          2   -1    0    0  501    0  0.00000000000E+00  0.00000000000E+00  0.28417967877E+04  0.28417967877E+04  0.00000000000E+00 0. -1.
         -2   -1    0    0    0  501 -0.00000000000E+00 -0.00000000000E+00 -0.10678032038E+04  0.10678032038E+04  0.00000000000E+00 0.  1.
         23    2    1    2    0    0 -0.65286073094E+03  0.63311576776E+03  0.25532897564E+04  0.27119501121E+04  0.91225660820E+02 0.  0.
         11    1    3    3    0    0 -0.17650515514E+03  0.17919687844E+03  0.83168231987E+03  0.86888495914E+03  0.00000000000E+00 0. -1.
        -11    1    3    3    0    0 -0.47635557580E+03  0.45391888932E+03  0.17216074365E+04  0.18430651530E+04  0.00000000000E+00 0.  1.
         22    1    1    2    0    0  0.65286073094E+03 -0.63311576776E+03 -0.77929617237E+03  0.11976498794E+04  0.00000000000E+00 0.  1.
<mgrwt>
<rscale>  0 0.34839516E+04</rscale>
<asrwt>0</asrwt>
<pdfrwt beam="1">  1        2 0.43719950E+00 0.34839516E+04</pdfrwt>
<pdfrwt beam="2">  1       -2 0.16427742E+00 0.34839516E+04</pdfrwt>
<totfact> 0.42031633E-01</totfact>
</mgrwt>
</event>
<event>
 6    1  0.1014650E-006  0.1237889E+04  0.7818608E-02  0.9080324E-01
         -1   -1    0    0    0  501 -0.00000000000E+00  0.00000000000E+00  0.44243050349E+03  0.44243050349E+03  0.00000000000E+00 0.  1.
          1   -1    0    0  501    0  0.00000000000E+00 -0.00000000000E+00 -0.86588139838E+03  0.86588139838E+03  0.00000000000E+00 0. -1.
         23    2    1    2    0    0 -0.44654048150E+03 -0.25204187849E+03 -0.57289649575E+03  0.77421687497E+03  0.90982770415E+02 0.  0.
         13    1    3    3    0    0 -0.67210590105E+02 -0.78550582756E+02 -0.10404852349E+03  0.14667499008E+03  0.00000000000E+00 0.  1.
        -13    1    3    3    0    0 -0.37932989140E+03 -0.17349129573E+03 -0.46884797226E+03  0.62754188489E+03  0.00000000000E+00 0. -1.
         22    1    1    2    0    0  0.44654048150E+03  0.25204187849E+03  0.14944560086E+03  0.53409502689E+03  0.00000000000E+00 0.  1.
<mgrwt>
<rscale>  0 0.12378891E+04</rscale>
<asrwt>0</asrwt>
<pdfrwt beam="1">  1        1 0.13321252E+00 0.12378891E+04</pdfrwt>
<pdfrwt beam="2">  1       -1 0.68066232E-01 0.12378891E+04</pdfrwt>
<totfact> 0.41898452E+01</totfact>
</mgrwt>
</event>
<event>
 6    1  0.1014650E-006  0.2049764E+04  0.7818608E-02  0.8583701E-01
         -2   -1    0    0    0  501 -0.00000000000E+00  0.00000000000E+00  0.15737862811E+04  0.15737862811E+04  0.00000000000E+00 0.  1.
          2   -1    0    0  501    0  0.00000000000E+00 -0.00000000000E+00 -0.66742432083E+03  0.66742432083E+03  0.00000000000E+00 0. -1.
         23    2    1    2    0    0 -0.65456956315E+02 -0.76933140492E+03  0.11877215390E+04  0.14194328727E+04  0.89172878554E+02 0.  0.
         11    1    3    3    0    0  0.13112341868E+02 -0.61436764622E+02  0.12825036585E+03  0.14280954414E+03  0.00000000000E+00 0. -1.
        -11    1    3    3    0    0 -0.78569298183E+02 -0.70789464030E+03  0.10594711731E+04  0.12766233286E+04  0.00000000000E+00 0.  1.
         22    1    1    2    0    0  0.65456956315E+02  0.76933140492E+03 -0.28135957870E+03  0.82177772923E+03  0.00000000000E+00 0. -1.
<mgrwt>
<rscale>  0 0.20497641E+04</rscale>
<asrwt>0</asrwt>
<pdfrwt beam="1">  1        2 0.10268067E+00 0.20497641E+04</pdfrwt>
<pdfrwt beam="2">  1       -2 0.24212097E+00 0.20497641E+04</pdfrwt>
<totfact> 0.28924040E+00</totfact>
</mgrwt>
</event>
<event>
 6    1  0.1014650E-006  0.2746316E+04  0.7818608E-02  0.8320131E-01
         -1   -1    0    0    0  501 -0.00000000000E+00  0.00000000000E+00  0.11911672339E+04  0.11911672339E+04  0.00000000000E+00 0.  1.
          1   -1    0    0  501    0  0.00000000000E+00 -0.00000000000E+00 -0.15829544558E+04  0.15829544558E+04  0.00000000000E+00 0. -1.
         23    2    1    2    0    0 -0.11061435147E+04  0.77819770701E+03  0.34647570730E+02  0.13560272716E+04  0.92001960676E+02 0.  0.
         13    1    3    3    0    0 -0.52746260556E+03  0.33499735649E+03  0.51115532154E+02  0.62693925284E+03  0.00000000000E+00 0. -1.
        -13    1    3    3    0    0 -0.57868090915E+03  0.44320035052E+03 -0.16467961424E+02  0.72908801874E+03  0.00000000000E+00 0.  1.
         22    1    1    2    0    0  0.11061435147E+04 -0.77819770701E+03 -0.42643479266E+03  0.14180944181E+04  0.00000000000E+00 0.  1.
<mgrwt>
<rscale>  0 0.27463164E+04</rscale>
<asrwt>0</asrwt>
<pdfrwt beam="1">  1        1 0.24353145E+00 0.27463164E+04</pdfrwt>
<pdfrwt beam="2">  1       -1 0.18325650E+00 0.27463164E+04</pdfrwt>
<totfact> 0.98340729E-01</totfact>
</mgrwt>
</event>
<event>
 6    1  0.1014650E-006  0.2645910E+04  0.7818608E-02  0.8352772E-01
          2   -1    0    0  501    0  0.00000000000E+00  0.00000000000E+00  0.14637314723E+04  0.14637314723E+04  0.00000000000E+00 0. -1.
         -2   -1    0    0    0  501 -0.00000000000E+00 -0.00000000000E+00 -0.11957175270E+04  0.11957175270E+04  0.00000000000E+00 0.  1.
         23    2    1    2    0    0  0.33388681369E+03 -0.10433710344E+04 -0.60856794460E+03  0.12564168082E+04  0.90137300408E+02 0.  0.
         11    1    3    3    0    0  0.16554804011E+03 -0.42485087114E+03 -0.29240900094E+03  0.54167097035E+03  0.00000000000E+00 0. -1.
        -11    1    3    3    0    0  0.16833877358E+03 -0.61852016324E+03 -0.31615894366E+03  0.71474583782E+03  0.00000000000E+00 0.  1.
         22    1    1    2    0    0 -0.33388681369E+03  0.10433710344E+04  0.87658188985E+03  0.14030321911E+04  0.00000000000E+00 0. -1.
<mgrwt>
<rscale>  0 0.26459096E+04</rscale>
<asrwt>0</asrwt>
<pdfrwt beam="1">  1        2 0.22518946E+00 0.26459096E+04</pdfrwt>
<pdfrwt beam="2">  1       -2 0.18395654E+00 0.26459096E+04</pdfrwt>
<totfact> 0.19977619E+00</totfact>
</mgrwt>
</event>
<event>
 6    1  0.1014650E-006  0.3325169E+04  0.7818608E-02  0.8156520E-01
          1   -1    0    0  501    0  0.00000000000E+00  0.00000000000E+00  0.13628417489E+04  0.13628417489E+04  0.00000000000E+00 0. -1.
         -1   -1    0    0    0  501 -0.00000000000E+00 -0.00000000000E+00 -0.20282530741E+04  0.20282530741E+04  0.00000000000E+00 0.  1.
         23    2    1    2    0    0  0.10328510980E+04 -0.71741463276E+03 -0.14400765121E+04  0.19140805042E+04  0.91753310271E+02 0.  0.
         11    1    3    3    0    0  0.40041876945E+03 -0.33310956221E+03 -0.59684839888E+03  0.79216487085E+03  0.00000000000E+00 0. -1.
        -11    1    3    3    0    0  0.63243232857E+03 -0.38430507055E+03 -0.84322811324E+03  0.11219156334E+04  0.00000000000E+00 0.  1.
         22    1    1    2    0    0 -0.10328510980E+04  0.71741463276E+03  0.77466518692E+03  0.14770143188E+04  0.00000000000E+00 0. -1.
<mgrwt>
<rscale>  0 0.33251694E+04</rscale>
<asrwt>0</asrwt>
<pdfrwt beam="1">  1        1 0.20966796E+00 0.33251694E+04</pdfrwt>
<pdfrwt beam="2">  1       -1 0.31203893E+00 0.33251694E+04</pdfrwt>
<totfact> 0.18630055E-01</totfact>
</mgrwt>
</event>
<event>
 6    1  0.1014650E-006  0.1746636E+04  0.7818608E-02  0.8735204E-01
         -1   -1    0    0    0  501 -0.00000000000E+00  0.00000000000E+00  0.12402687822E+04  0.12402687822E+04  0.00000000000E+00 0.  1.
          1   -1    0    0  501    0  0.00000000000E+00 -0.00000000000E+00 -0.61493472084E+03  0.61493472084E+03  0.00000000000E+00 0. -1.
         23    2    1    2    0    0 -0.84493581889E+03  0.17102955732E+03  0.17912525948E+03  0.88449760403E+03  0.84157622530E+02 0.  0.
         13    1    3    3    0    0 -0.47710400180E+03  0.11610853859E+03  0.64030204869E+02  0.49518611491E+03  0.00000000000E+00 0.  1.
        -13    1    3    3    0    0 -0.36783181709E+03  0.54921018727E+02  0.11509505461E+03  0.38931148912E+03  0.00000000000E+00 0. -1.
         22    1    1    2    0    0  0.84493581889E+03 -0.17102955732E+03  0.44620880191E+03  0.97070589903E+03  0.00000000000E+00 0. -1.
<mgrwt>
<rscale>  0 0.17466360E+04</rscale>
<asrwt>0</asrwt>
<pdfrwt beam="1">  1        1 0.94605342E-01 0.17466360E+04</pdfrwt>
<pdfrwt beam="2">  1       -1 0.19081058E+00 0.17466360E+04</pdfrwt>
<totfact> 0.54619764E+00</totfact>
</mgrwt>
</event>
<event>
 6    1  0.1014650E-006  0.1570859E+04  0.7818608E-02  0.8838653E-01
          2   -1    0    0  501    0  0.00000000000E+00  0.00000000000E+00  0.54950058207E+03  0.54950058207E+03  0.00000000000E+00 0. -1.
         -2   -1    0    0    0  501 -0.00000000000E+00 -0.00000000000E+00 -0.11226555496E+04  0.11226555496E+04  0.00000000000E+00 0.  1.
         23    2    1    2    0    0  0.85445729767E+02 -0.21402178241E+03  0.50874053502E+03  0.56598970001E+03  0.91766619590E+02 0.  0.
         13    1    3    3    0    0  0.67318059433E+02 -0.80920994598E+02  0.29833550958E+03  0.31636056134E+03  0.00000000000E+00 0. -1.
        -13    1    3    3    0    0  0.18127670334E+02 -0.13310078781E+03  0.21040502544E+03  0.24962913868E+03  0.00000000000E+00 0.  1.
         22    1    1    2    0    0 -0.85445729767E+02  0.21402178241E+03 -0.10818955025E+04  0.11061664316E+04  0.00000000000E+00 0.  1.
<mgrwt>
<rscale>  0 0.15708595E+04</rscale>
<asrwt>0</asrwt>
<pdfrwt beam="1">  1        2 0.84538552E-01 0.15708595E+04</pdfrwt>
<pdfrwt beam="2">  1       -2 0.17271624E+00 0.15708595E+04</pdfrwt>
<totfact> 0.10788428E+01</totfact>
</mgrwt>
</event>
<event>
 6    1  0.1014650E-006  0.1101139E+04  0.7818608E-02  0.9204082E-01
         -1   -1    0    0    0  501 -0.00000000000E+00  0.00000000000E+00  0.28861247944E+03  0.28861247944E+03  0.00000000000E+00 0.  1.
          1   -1    0    0  501    0  0.00000000000E+00 -0.00000000000E+00 -0.10502904466E+04  0.10502904466E+04  0.00000000000E+00 0. -1.
         23    2    1    2    0    0  0.13553145461E+03  0.11276492430E+03 -0.10135323739E+04  0.10314694445E+04  0.74810684582E+02 0.  0.
         13    1    3    3    0    0  0.78950237854E+02  0.89935449399E+02 -0.49038411365E+03  0.50477530054E+03  0.00000000000E+00 0. -1.
        -13    1    3    3    0    0  0.56581216751E+02  0.22829474899E+02 -0.52314826028E+03  0.52669414393E+03  0.00000000000E+00 0.  1.
         22    1    1    2    0    0 -0.13553145461E+03 -0.11276492430E+03  0.25185440681E+03  0.30743348153E+03  0.00000000000E+00 0.  1.
<mgrwt>
<rscale>  0 0.11011393E+04</rscale>
<asrwt>0</asrwt>
<pdfrwt beam="1">  1        1 0.16158314E+00 0.11011393E+04</pdfrwt>
<pdfrwt beam="2">  1       -1 0.44401920E-01 0.11011393E+04</pdfrwt>
<totfact> 0.69166451E+01</totfact>
</mgrwt>
</event>
<event>
 6    1  0.1652286E-006  0.4090148E+04  0.7818608E-02  0.7986604E-01
         -1   -1    0    0    0  501 -0.00000000000E+00  0.00000000000E+00  0.21339707816E+04  0.21339707816E+04  0.00000000000E+00 0.  1.
          1   -1    0    0  501    0  0.00000000000E+00 -0.00000000000E+00 -0.19598808552E+04  0.19598808552E+04  0.00000000000E+00 0. -1.
         23    2    1    2    0    0  0.52095179685E+03  0.77531005158E+03 -0.17327096264E+04  0.19705567949E+04  0.91186523078E+02 0.  0.
         13    1    3    3    0    0  0.16011405026E+03  0.29603776548E+03 -0.56159407447E+03  0.65472343181E+03  0.00000000000E+00 0. -1.
        -13    1    3    3    0    0  0.36083774659E+03  0.47927228610E+03 -0.11711155519E+04  0.13158333631E+04  0.00000000000E+00 0.  1.
         22    1    1    2    0    0 -0.52095179685E+03 -0.77531005158E+03  0.19067995529E+04  0.21232948419E+04  0.00000000000E+00 0.  1.
<mgrwt>
<rscale>  0 0.40901484E+04</rscale>
<asrwt>0</asrwt>
<pdfrwt beam="1">  1        1 0.30152013E+00 0.40901484E+04</pdfrwt>
<pdfrwt beam="2">  1       -1 0.32830320E+00 0.40901484E+04</pdfrwt>
<totfact> 0.53230239E-02</totfact>
</mgrwt>
</event>
<event>
 6    1  0.1014650E-006  0.1657742E+04  0.7818608E-02  0.8785839E-01
         -1   -1    0    0    0  501 -0.00000000000E+00  0.00000000000E+00  0.59683470684E+03  0.59683470684E+03  0.00000000000E+00 0.  1.
          1   -1    0    0  501    0  0.00000000000E+00 -0.00000000000E+00 -0.11511181114E+04  0.11511181114E+04  0.00000000000E+00 0. -1.
         23    2    1    2    0    0  0.52776646696E+03  0.44130064734E+03  0.20464032743E+03  0.72362428892E+03  0.92036639005E+02 0.  0.
         11    1    3    3    0    0  0.30669108351E+02  0.38600495278E+02  0.38789151926E+02  0.62731098746E+02  0.00000000000E+00 0. -1.
        -11    1    3    3    0    0  0.49709735861E+03  0.40270015206E+03  0.16585117550E+03  0.66089319018E+03  0.00000000000E+00 0.  1.
         22    1    1    2    0    0 -0.52776646696E+03 -0.44130064734E+03 -0.75892373195E+03  0.10243285293E+04  0.00000000000E+00 0. -1.
<mgrwt>
<rscale>  0 0.16577421E+04</rscale>
<asrwt>0</asrwt>
<pdfrwt beam="1">  1        1 0.17709509E+00 0.16577421E+04</pdfrwt>
<pdfrwt beam="2">  1       -1 0.91820725E-01 0.16577421E+04</pdfrwt>
<totfact> 0.12812831E+01</totfact>
</mgrwt>
</event>
<event>
 6    1  0.1014650E-006  0.2581102E+04  0.7818608E-02  0.8374649E-01
         -2   -1    0    0    0  501 -0.00000000000E+00  0.00000000000E+00  0.78703241012E+03  0.78703241012E+03  0.00000000000E+00 0.  1.
          2   -1    0    0  501    0  0.00000000000E+00 -0.00000000000E+00 -0.21162050253E+04  0.21162050253E+04  0.00000000000E+00 0. -1.
         23    2    1    2    0    0 -0.97396516910E+03 -0.83586625366E+03 -0.79852862937E+03  0.15144021016E+04  0.92115193644E+02 0.  0.
         13    1    3    3    0    0 -0.50450681031E+03 -0.41499033003E+03 -0.35454662209E+03  0.74326805589E+03  0.00000000000E+00 0. -1.
        -13    1    3    3    0    0 -0.46945835879E+03 -0.42087592363E+03 -0.44398200728E+03  0.77113404575E+03  0.00000000000E+00 0.  1.
         22    1    1    2    0    0  0.97396516910E+03  0.83586625366E+03 -0.53064398578E+03  0.13888353337E+04  0.00000000000E+00 0.  1.
<mgrwt>
<rscale>  0 0.25811020E+04</rscale>
<asrwt>0</asrwt>
<pdfrwt beam="1">  1        2 0.32557001E+00 0.25811020E+04</pdfrwt>
<pdfrwt beam="2">  1       -2 0.12108191E+00 0.25811020E+04</pdfrwt>
<totfact> 0.26471413E+00</totfact>
</mgrwt>
</event>
<event>
 6    1  0.1014650E-006  0.1586236E+04  0.7818608E-02  0.8829049E-01
         -1   -1    0    0    0  501 -0.00000000000E+00  0.00000000000E+00  0.53456175230E+03  0.53456175230E+03  0.00000000000E+00 0.  1.
          1   -1    0    0  501    0  0.00000000000E+00 -0.00000000000E+00 -0.11767317880E+04  0.11767317880E+04  0.00000000000E+00 0. -1.
         23    2    1    2    0    0 -0.36396177651E+03 -0.70159098052E+03 -0.33361135537E+03  0.86282047773E+03  0.92003052410E+02 0.  0.
         13    1    3    3    0    0 -0.16215092418E+03 -0.32662117060E+03 -0.10483049117E+03  0.37942554365E+03  0.00000000000E+00 0.  1.
        -13    1    3    3    0    0 -0.20181085234E+03 -0.37496980991E+03 -0.22878086420E+03  0.48339493407E+03  0.00000000000E+00 0. -1.
         22    1    1    2    0    0  0.36396177651E+03  0.70159098052E+03 -0.30855868032E+03  0.84847306257E+03  0.00000000000E+00 0.  1.
<mgrwt>
<rscale>  0 0.15862356E+04</rscale>
<asrwt>0</asrwt>
<pdfrwt beam="1">  1        1 0.18103566E+00 0.15862356E+04</pdfrwt>
<pdfrwt beam="2">  1       -1 0.82240269E-01 0.15862356E+04</pdfrwt>
<totfact> 0.15699989E+01</totfact>
</mgrwt>
</event>
<event>
 6    1  0.1014650E-006  0.2999941E+04  0.7818608E-02  0.8243748E-01
          1   -1    0    0  501    0  0.00000000000E+00  0.00000000000E+00  0.10067976260E+04  0.10067976260E+04  0.00000000000E+00 0. -1.
         -1   -1    0    0    0  501 -0.00000000000E+00 -0.00000000000E+00 -0.22347212698E+04  0.22347212698E+04  0.00000000000E+00 0.  1.
         23    2    1    2    0    0 -0.57973940711E+03  0.13233334446E+04 -0.10446073118E+04  0.17851830611E+04  0.91460046332E+02 0.  0.
         13    1    3    3    0    0 -0.70789796208E+02  0.15142761539E+03 -0.86603058064E+02  0.18825941574E+03  0.00000000000E+00 0. -1.
        -13    1    3    3    0    0 -0.50894961090E+03  0.11719058292E+04 -0.95800425373E+03  0.15969236454E+04  0.00000000000E+00 0.  1.
         22    1    1    2    0    0  0.57973940711E+03 -0.13233334446E+04 -0.18331633199E+03  0.14563358347E+04  0.00000000000E+00 0. -1.
<mgrwt>
<rscale>  0 0.29999414E+04</rscale>
<asrwt>0</asrwt>
<pdfrwt beam="1">  1        1 0.15489194E+00 0.29999414E+04</pdfrwt>
<pdfrwt beam="2">  1       -1 0.34380327E+00 0.29999414E+04</pdfrwt>
<totfact> 0.21718050E-01</totfact>
</mgrwt>
</event>
<event>
 6    1  0.1014650E-006  0.2662219E+04  0.7818608E-02  0.8347369E-01
         -1   -1    0    0    0  501 -0.00000000000E+00  0.00000000000E+00  0.13496157360E+04  0.13496157360E+04  0.00000000000E+00 0.  1.
          1   -1    0    0  501    0  0.00000000000E+00 -0.00000000000E+00 -0.13128574530E+04  0.13128574530E+04  0.00000000000E+00 0. -1.
         23    2    1    2    0    0 -0.35809529995E+03  0.95923669907E+02  0.12952954111E+04  0.13504711704E+04  0.92458562130E+02 0.  0.
         11    1    3    3    0    0 -0.23705824000E+03  0.99427208407E+02  0.96597186100E+03  0.99959192432E+03  0.00000000000E+00 0. -1.
        -11    1    3    3    0    0 -0.12103705995E+03 -0.35035384993E+01  0.32932355010E+03  0.35087924606E+03  0.00000000000E+00 0.  1.
         22    1    1    2    0    0  0.35809529995E+03 -0.95923669907E+02 -0.12585371280E+04  0.13120020186E+04  0.00000000000E+00 0. -1.
<mgrwt>
<rscale>  0 0.26622194E+04</rscale>
<asrwt>0</asrwt>
<pdfrwt beam="1">  1        1 0.20197807E+00 0.26622194E+04</pdfrwt>
<pdfrwt beam="2">  1       -1 0.20763319E+00 0.26622194E+04</pdfrwt>
<totfact> 0.10350650E+00</totfact>
</mgrwt>
</event>
<event>
 6    1  0.1014650E-006  0.8166584E+03  0.7818608E-02  0.9536213E-01
          3   -1    0    0  501    0  0.00000000000E+00  0.00000000000E+00  0.45840982515E+03  0.45840982515E+03  0.00000000000E+00 0. -1.
         -3   -1    0    0    0  501 -0.00000000000E+00 -0.00000000000E+00 -0.36371984437E+03  0.36371984437E+03  0.00000000000E+00 0.  1.
         23    2    1    2    0    0  0.12007112608E+02  0.37582962782E+03 -0.98716008122E+02  0.39928459571E+03  0.91056346340E+02 0.  0.
         11    1    3    3    0    0 -0.23848494336E+01  0.10354749879E+03  0.13465726830E+02  0.10444662661E+03  0.00000000000E+00 0. -1.
        -11    1    3    3    0    0  0.14391962042E+02  0.27228212903E+03 -0.11218173495E+03  0.29483796909E+03  0.00000000000E+00 0.  1.
         22    1    1    2    0    0 -0.12007112608E+02 -0.37582962782E+03  0.19340598890E+03  0.42284507381E+03  0.00000000000E+00 0. -1.
<mgrwt>
<rscale>  0 0.81665844E+03</rscale>
<asrwt>0</asrwt>
<pdfrwt beam="1">  1        3 0.70524588E-01 0.81665844E+03</pdfrwt>
<pdfrwt beam="2">  1       -3 0.55956899E-01 0.81665844E+03</pdfrwt>
<totfact> 0.15902383E+01</totfact>
</mgrwt>
</event>
<event>
 6    1  0.1014650E-006  0.4228144E+04  0.7818608E-02  0.7960040E-01
         -2   -1    0    0    0  501 -0.00000000000E+00  0.00000000000E+00  0.21093708836E+04  0.21093708836E+04  0.00000000000E+00 0.  1.
          2   -1    0    0  501    0  0.00000000000E+00 -0.00000000000E+00 -0.21187832033E+04  0.21187832033E+04  0.00000000000E+00 0. -1.
         23    2    1    2    0    0  0.65945011839E+03 -0.13932990576E+04  0.14406585224E+04  0.21118218423E+04  0.90209715432E+02 0.  0.
         11    1    3    3    0    0  0.50894857132E+03 -0.11209109842E+04  0.11071786100E+04  0.16556915646E+04  0.00000000000E+00 0.  1.
        -11    1    3    3    0    0  0.15050154707E+03 -0.27238807343E+03  0.33347991247E+03  0.45613027770E+03  0.00000000000E+00 0. -1.
         22    1    1    2    0    0 -0.65945011839E+03  0.13932990576E+04 -0.14500708421E+04  0.21163322446E+04  0.00000000000E+00 0. -1.
<mgrwt>
<rscale>  0 0.42281436E+04</rscale>
<asrwt>0</asrwt>
<pdfrwt beam="1">  1        2 0.32596665E+00 0.42281436E+04</pdfrwt>
<pdfrwt beam="2">  1       -2 0.32451860E+00 0.42281436E+04</pdfrwt>
<totfact> 0.99724929E-02</totfact>
</mgrwt>
</event>
<event>
 6    1  0.1014650E-006  0.2382667E+04  0.7818608E-02  0.8446021E-01
         -2   -1    0    0    0  501 -0.00000000000E+00  0.00000000000E+00  0.15314607748E+04  0.15314607748E+04  0.00000000000E+00 0.  1.
          2   -1    0    0  501    0  0.00000000000E+00 -0.00000000000E+00 -0.92674646623E+03  0.92674646623E+03  0.00000000000E+00 0. -1.
         23    2    1    2    0    0 -0.11553239258E+04 -0.99238105638E+02  0.27931434170E+02  0.11631010448E+04  0.86036621997E+02 0.  0.
         11    1    3    3    0    0 -0.10282069301E+04 -0.68943476245E+02  0.56083313566E+01  0.10305310027E+04  0.00000000000E+00 0. -1.
        -11    1    3    3    0    0 -0.12711699569E+03 -0.30294629393E+02  0.22323102814E+02  0.13257004218E+03  0.00000000000E+00 0.  1.
         22    1    1    2    0    0  0.11553239258E+04  0.99238105638E+02  0.57678287438E+03  0.12951061962E+04  0.00000000000E+00 0. -1.
<mgrwt>
<rscale>  0 0.23826673E+04</rscale>
<asrwt>0</asrwt>
<pdfrwt beam="1">  1        2 0.14257638E+00 0.23826673E+04</pdfrwt>
<pdfrwt beam="2">  1       -2 0.23560935E+00 0.23826673E+04</pdfrwt>
<totfact> 0.19977120E+00</totfact>
</mgrwt>
</event>
<event>
 6    1  0.1014650E-006  0.4105970E+04  0.7818608E-02  0.7983504E-01
         -1   -1    0    0    0  501 -0.00000000000E+00  0.00000000000E+00  0.13449485878E+04  0.13449485878E+04  0.00000000000E+00 0.  1.
          1   -1    0    0  501    0  0.00000000000E+00 -0.00000000000E+00 -0.31337615589E+04  0.31337615589E+04  0.00000000000E+00 0. -1.
         23    2    1    2    0    0  0.17021358489E+04  0.83533073077E+02  0.35180521776E+03  0.17425649654E+04  0.92312107102E+02 0.  0.
         13    1    3    3    0    0  0.11076766924E+04  0.79311367190E+02  0.19202018002E+03  0.11269914363E+04  0.00000000000E+00 0.  1.
        -13    1    3    3    0    0  0.59445915650E+03  0.42217058869E+01  0.15978503774E+03  0.61557352919E+03  0.00000000000E+00 0. -1.
         22    1    1    2    0    0 -0.17021358489E+04 -0.83533073077E+02 -0.21406181889E+04  0.27361451813E+04  0.00000000000E+00 0. -1.
<mgrwt>
<rscale>  0 0.41059704E+04</rscale>
<asrwt>0</asrwt>
<pdfrwt beam="1">  1        1 0.48211716E+00 0.41059704E+04</pdfrwt>
<pdfrwt beam="2">  1       -1 0.20691517E+00 0.41059704E+04</pdfrwt>
<totfact> 0.49838266E-02</totfact>
</mgrwt>
</event>
<event>
 6    1  0.1014650E-006  0.4330663E+03  0.7818608E-02  0.1032896E+00
         -3   -1    0    0    0  501 -0.00000000000E+00  0.00000000000E+00  0.68353927935E+03  0.68353927935E+03  0.00000000000E+00 0.  1.
          3   -1    0    0  501    0  0.00000000000E+00 -0.00000000000E+00 -0.68593855156E+02  0.68593855156E+02  0.00000000000E+00 0. -1.
         23    2    1    2    0    0  0.10895878420E+03  0.56313716245E+02  0.61079585247E+03  0.62941202697E+03  0.89692112289E+02 0.  0.
         13    1    3    3    0    0  0.21511137423E+02 -0.24537681998E+02  0.11798372675E+03  0.12241318004E+03  0.00000000000E+00 0. -1.
        -13    1    3    3    0    0  0.87447646773E+02  0.80851398243E+02  0.49281212572E+03  0.50699884693E+03  0.00000000000E+00 0.  1.
         22    1    1    2    0    0 -0.10895878420E+03 -0.56313716245E+02  0.41495717294E+01  0.12272110754E+03  0.00000000000E+00 0. -1.
<mgrwt>
<rscale>  0 0.43306625E+03</rscale>
<asrwt>0</asrwt>
<pdfrwt beam="1">  1        3 0.10552901E-01 0.43306625E+03</pdfrwt>
<pdfrwt beam="2">  1       -3 0.10515988E+00 0.43306625E+03</pdfrwt>
<totfact> 0.14115478E+02</totfact>
</mgrwt>
</event>
<event>
 6    1  0.1014650E-006  0.5670854E+04  0.7818608E-02  0.7732607E-01
         -2   -1    0    0    0  501 -0.00000000000E+00  0.00000000000E+00  0.38993188395E+04  0.38993188395E+04  0.00000000000E+00 0.  1.
          2   -1    0    0  501    0  0.00000000000E+00 -0.00000000000E+00 -0.20618079131E+04  0.20618079131E+04  0.00000000000E+00 0. -1.
         23    2    1    2    0    0  0.13021141630E+03  0.23105490649E+04  0.26398184724E+04  0.35117820662E+04  0.91540807046E+02 0.  0.
         13    1    3    3    0    0  0.67675999428E+02  0.52298624754E+03  0.60748647541E+03  0.80444668799E+03  0.00000000000E+00 0. -1.
        -13    1    3    3    0    0  0.62535416874E+02  0.17875628174E+04  0.20323319970E+04  0.27073353782E+04  0.00000000000E+00 0.  1.
         22    1    1    2    0    0 -0.13021141630E+03 -0.23105490649E+04 -0.80230754594E+03  0.24493446864E+04  0.00000000000E+00 0. -1.
<mgrwt>
<rscale>  0 0.56708541E+04</rscale>
<asrwt>0</asrwt>
<pdfrwt beam="1">  1        2 0.31720122E+00 0.56708541E+04</pdfrwt>
<pdfrwt beam="2">  1       -2 0.59989520E+00 0.56708541E+04</pdfrwt>
<totfact> 0.22041260E-03</totfact>
</mgrwt>
</event>
<event>
 6    1  0.1014650E-006  0.3069647E+04  0.7818608E-02  0.8224118E-01
         -2   -1    0    0    0  501 -0.00000000000E+00  0.00000000000E+00  0.12933974345E+04  0.12933974345E+04  0.00000000000E+00 0.  1.
          2   -1    0    0  501    0  0.00000000000E+00 -0.00000000000E+00 -0.18213145892E+04  0.18213145892E+04  0.00000000000E+00 0. -1.
         23    2    1    2    0    0  0.13652269482E+04 -0.68589378702E+03 -0.39789494162E+03  0.15813494823E+04  0.89726771184E+02 0.  0.
         13    1    3    3    0    0  0.74802921613E+03 -0.36022693778E+03 -0.26001347557E+03  0.87001043807E+03  0.00000000000E+00 0. -1.
        -13    1    3    3    0    0  0.61719773208E+03 -0.32566684925E+03 -0.13788146605E+03  0.71133904424E+03  0.00000000000E+00 0.  1.
         22    1    1    2    0    0 -0.13652269482E+04  0.68589378702E+03 -0.13002221306E+03  0.15333625413E+04  0.00000000000E+00 0.  1.
<mgrwt>
<rscale>  0 0.30696473E+04</rscale>
<asrwt>0</asrwt>
<pdfrwt beam="1">  1        2 0.28020224E+00 0.30696473E+04</pdfrwt>
<pdfrwt beam="2">  1       -2 0.19898422E+00 0.30696473E+04</pdfrwt>
<totfact> 0.96538020E-01</totfact>
</mgrwt>
</event>
<event>
 6    1  0.1014650E-006  0.3058921E+04  0.7818608E-02  0.8227103E-01
         -1   -1    0    0    0  501 -0.00000000000E+00  0.00000000000E+00  0.87988504095E+03  0.87988504095E+03  0.00000000000E+00 0.  1.
          1   -1    0    0  501    0  0.00000000000E+00 -0.00000000000E+00 -0.26585853577E+04  0.26585853577E+04  0.00000000000E+00 0. -1.
         23    2    1    2    0    0 -0.11741120946E+04  0.71608211447E+03 -0.11977548894E+03  0.13836283187E+04  0.93639474273E+02 0.  0.
         13    1    3    3    0    0 -0.21756706128E+03  0.16546228450E+03 -0.48676382354E+02  0.27763750457E+03  0.00000000000E+00 0.  1.
        -13    1    3    3    0    0 -0.95654503331E+03  0.55061982997E+03 -0.71099106581E+02  0.11059908141E+04  0.00000000000E+00 0. -1.
         22    1    1    2    0    0  0.11741120946E+04 -0.71608211447E+03 -0.16589248279E+04  0.21548420800E+04  0.00000000000E+00 0. -1.
<mgrwt>
<rscale>  0 0.30589210E+04</rscale>
<asrwt>0</asrwt>
<pdfrwt beam="1">  1        1 0.40901312E+00 0.30589210E+04</pdfrwt>
<pdfrwt beam="2">  1       -1 0.13536693E+00 0.30589210E+04</pdfrwt>
<totfact> 0.40636931E-01</totfact>
</mgrwt>
</event>
<event>
 6    1  0.1014650E-006  0.2679456E+04  0.7818608E-02  0.8341702E-01
         -1   -1    0    0    0  501 -0.00000000000E+00  0.00000000000E+00  0.12652912773E+04  0.12652912773E+04  0.00000000000E+00 0.  1.
          1   -1    0    0  501    0  0.00000000000E+00 -0.00000000000E+00 -0.14185435079E+04  0.14185435079E+04  0.00000000000E+00 0. -1.
         23    2    1    2    0    0 -0.78817970297E+03  0.79906829900E+03  0.65312083214E+03  0.13018163675E+04  0.91769508296E+02 0.  0.
         13    1    3    3    0    0 -0.46699885084E+03  0.52098143583E+03  0.37212706640E+03  0.79245702515E+03  0.00000000000E+00 0.  1.
        -13    1    3    3    0    0 -0.32118085214E+03  0.27808686316E+03  0.28099376574E+03  0.50935934234E+03  0.00000000000E+00 0. -1.
         22    1    1    2    0    0  0.78817970297E+03 -0.79906829900E+03 -0.80637306273E+03  0.13820184177E+04  0.00000000000E+00 0. -1.
<mgrwt>
<rscale>  0 0.26794557E+04</rscale>
<asrwt>0</asrwt>
<pdfrwt beam="1">  1        1 0.21823746E+00 0.26794557E+04</pdfrwt>
<pdfrwt beam="2">  1       -1 0.19466020E+00 0.26794557E+04</pdfrwt>
<totfact> 0.10690146E+00</totfact>
</mgrwt>
</event>
<event>
 6    1  0.1014650E-006  0.1943312E+04  0.7818608E-02  0.8633593E-01
         -1   -1    0    0    0  501 -0.00000000000E+00  0.00000000000E+00  0.43202267920E+03  0.43202267920E+03  0.00000000000E+00 0.  1.
          1   -1    0    0  501    0  0.00000000000E+00 -0.00000000000E+00 -0.21853376388E+04  0.21853376388E+04  0.00000000000E+00 0. -1.
         23    2    1    2    0    0 -0.40351922062E+03  0.87664086177E+03 -0.10037226544E+04  0.13953883109E+04  0.91227240938E+02 0.  0.
         11    1    3    3    0    0 -0.17104464208E+03  0.48051191685E+03 -0.52691211430E+03  0.73333781303E+03  0.00000000000E+00 0. -1.
        -11    1    3    3    0    0 -0.23247457854E+03  0.39612894492E+03 -0.47681054007E+03  0.66205049791E+03  0.00000000000E+00 0.  1.
         22    1    1    2    0    0  0.40351922062E+03 -0.87664086177E+03 -0.74959230519E+03  0.12219720070E+04  0.00000000000E+00 0.  1.
<mgrwt>
<rscale>  0 0.19433120E+04</rscale>
<asrwt>0</asrwt>
<pdfrwt beam="1">  1        1 0.33620579E+00 0.19433120E+04</pdfrwt>
<pdfrwt beam="2">  1       -1 0.66465027E-01 0.19433120E+04</pdfrwt>
<totfact> 0.47672070E+00</totfact>
</mgrwt>
</event>
<event>
 6    1  0.1014650E-006  0.3216441E+04  0.7818608E-02  0.8184489E-01
          1   -1    0    0  501    0  0.00000000000E+00  0.00000000000E+00  0.19981445717E+04  0.19981445717E+04  0.00000000000E+00 0. -1.
         -1   -1    0    0    0  501 -0.00000000000E+00 -0.00000000000E+00 -0.12943873300E+04  0.12943873300E+04  0.00000000000E+00 0.  1.
         23    2    1    2    0    0  0.91039211291E+03  0.58793652050E+02 -0.10019985976E+04  0.13581396261E+04  0.90948125783E+02 0.  0.
         13    1    3    3    0    0  0.34350306737E+03  0.52624793630E+02 -0.33395860733E+03  0.48196688434E+03  0.00000000000E+00 0.  1.
        -13    1    3    3    0    0  0.56688904554E+03  0.61688584196E+01 -0.66803999026E+03  0.87617274173E+03  0.00000000000E+00 0. -1.
         22    1    1    2    0    0 -0.91039211291E+03 -0.58793652050E+02  0.17057558393E+04  0.19343922756E+04  0.00000000000E+00 0. -1.
<mgrwt>
<rscale>  0 0.32164409E+04</rscale>
<asrwt>0</asrwt>
<pdfrwt beam="1">  1        1 0.30740686E+00 0.32164409E+04</pdfrwt>
<pdfrwt beam="2">  1       -1 0.19913651E+00 0.32164409E+04</pdfrwt>
<totfact> 0.38101726E-01</totfact>
</mgrwt>
</event>
<event>
 6    1  0.1014650E-006  0.2207975E+04  0.7818608E-02  0.8515116E-01
         -2   -1    0    0    0  501 -0.00000000000E+00  0.00000000000E+00  0.73987924192E+03  0.73987924192E+03  0.00000000000E+00 0.  1.
          2   -1    0    0  501    0  0.00000000000E+00 -0.00000000000E+00 -0.16472798987E+04  0.16472798987E+04  0.00000000000E+00 0. -1.
         23    2    1    2    0    0  0.34340354494E+03 -0.10085308785E+04 -0.14977702303E+03  0.10798511823E+04  0.92654690356E+02 0.  0.
         13    1    3    3    0    0  0.22839543561E+03 -0.74149957548E+03 -0.74031266038E+02  0.77940151641E+03  0.00000000000E+00 0.  1.
        -13    1    3    3    0    0  0.11500810933E+03 -0.26703130301E+03 -0.75745756994E+02  0.30044966584E+03  0.00000000000E+00 0. -1.
         22    1    1    2    0    0 -0.34340354494E+03  0.10085308785E+04 -0.75762363370E+03  0.13073079583E+04  0.00000000000E+00 0. -1.
<mgrwt>
<rscale>  0 0.22079748E+04</rscale>
<asrwt>0</asrwt>
<pdfrwt beam="1">  1        2 0.25342767E+00 0.22079748E+04</pdfrwt>
<pdfrwt beam="2">  1       -2 0.11382758E+00 0.22079748E+04</pdfrwt>
<totfact> 0.57957209E+00</totfact>
</mgrwt>
</event>
<event>
 6    1  0.1014650E-006  0.1001615E+04  0.7818608E-02  0.9306775E-01
         -1   -1    0    0    0  501 -0.00000000000E+00  0.00000000000E+00  0.19760385882E+03  0.19760385882E+03  0.00000000000E+00 0.  1.
          1   -1    0    0  501    0  0.00000000000E+00 -0.00000000000E+00 -0.12692479348E+04  0.12692479348E+04  0.00000000000E+00 0. -1.
         23    2    1    2    0    0 -0.33788037574E+03  0.33958653799E+03 -0.73192325927E+03  0.87957639112E+03  0.91982635610E+02 0.  0.
         13    1    3    3    0    0 -0.15621654501E+03  0.18942352927E+03 -0.30130765156E+03  0.38867876616E+03  0.00000000000E+00 0.  1.
        -13    1    3    3    0    0 -0.18166383073E+03  0.15016300872E+03 -0.43061560771E+03  0.49089762495E+03  0.00000000000E+00 0. -1.
         22    1    1    2    0    0  0.33788037574E+03 -0.33958653799E+03 -0.33972081672E+03  0.58727540252E+03  0.00000000000E+00 0. -1.
<mgrwt>
<rscale>  0 0.10016153E+04</rscale>
<asrwt>0</asrwt>
<pdfrwt beam="1">  1        1 0.19526891E+00 0.10016153E+04</pdfrwt>
<pdfrwt beam="2">  1       -1 0.30400595E-01 0.10016153E+04</pdfrwt>
<totfact> 0.95023003E+01</totfact>
</mgrwt>
</event>
<event>
 6    1  0.1014650E-006  0.2399609E+04  0.7818608E-02  0.8439650E-01
         -1   -1    0    0    0  501 -0.00000000000E+00  0.00000000000E+00  0.70514536852E+03  0.70514536852E+03  0.00000000000E+00 0.  1.
          1   -1    0    0  501    0  0.00000000000E+00 -0.00000000000E+00 -0.20414661111E+04  0.20414661111E+04  0.00000000000E+00 0. -1.
         23    2    1    2    0    0 -0.80387335876E+03  0.65262547451E+02 -0.16831253219E+04  0.18686906442E+04  0.92856326816E+02 0.  0.
         11    1    3    3    0    0 -0.64132283631E+03  0.54449073169E+02 -0.12506791375E+04  0.14065766907E+04  0.00000000000E+00 0. -1.
        -11    1    3    3    0    0 -0.16255052245E+03  0.10813474282E+02 -0.43244618436E+03  0.46211395342E+03  0.00000000000E+00 0.  1.
         22    1    1    2    0    0  0.80387335876E+03 -0.65262547451E+02  0.34680457933E+03  0.87792083542E+03  0.00000000000E+00 0.  1.
<mgrwt>
<rscale>  0 0.23996086E+04</rscale>
<asrwt>0</asrwt>
<pdfrwt beam="1">  1        1 0.31407170E+00 0.23996086E+04</pdfrwt>
<pdfrwt beam="2">  1       -1 0.10848390E+00 0.23996086E+04</pdfrwt>
<totfact> 0.19734138E+00</totfact>
</mgrwt>
</event>
<event>
 6    1  0.1014650E-006  0.1044782E+04  0.7818608E-02  0.9260748E-01
          2   -1    0    0  501    0  0.00000000000E+00  0.00000000000E+00  0.31183902620E+03  0.31183902620E+03  0.00000000000E+00 0. -1.
         -2   -1    0    0    0  501 -0.00000000000E+00 -0.00000000000E+00 -0.87510657825E+03  0.87510657825E+03  0.00000000000E+00 0.  1.
         23    2    1    2    0    0  0.21761944747E+03  0.30376807323E+03 -0.69217940260E+03  0.79165895979E+03  0.89321425255E+02 0.  0.
         11    1    3    3    0    0  0.33705387749E+02  0.11709038294E+03 -0.23450351291E+03  0.26426900784E+03  0.00000000000E+00 0.  1.
        -11    1    3    3    0    0  0.18391405972E+03  0.18667769030E+03 -0.45767588969E+03  0.52738995195E+03  0.00000000000E+00 0. -1.
         22    1    1    2    0    0 -0.21761944747E+03 -0.30376807323E+03  0.12891185055E+03  0.39528664466E+03  0.00000000000E+00 0. -1.
<mgrwt>
<rscale>  0 0.10447821E+04</rscale>
<asrwt>0</asrwt>
<pdfrwt beam="1">  1        2 0.47975235E-01 0.10447821E+04</pdfrwt>
<pdfrwt beam="2">  1       -2 0.13463178E+00 0.10447821E+04</pdfrwt>
<totfact> 0.41572182E+01</totfact>
</mgrwt>
</event>
<event>
 6    1  0.1014650E-006  0.1939212E+04  0.7818608E-02  0.8635581E-01
          2   -1    0    0  501    0  0.00000000000E+00  0.00000000000E+00  0.12107622805E+04  0.12107622805E+04  0.00000000000E+00 0. -1.
         -2   -1    0    0    0  501 -0.00000000000E+00 -0.00000000000E+00 -0.77648219316E+03  0.77648219316E+03  0.00000000000E+00 0.  1.
         23    2    1    2    0    0 -0.70293223299E+03 -0.51770320899E+03  0.64478458553E+03  0.10892230482E+04  0.92354481848E+02 0.  0.
         13    1    3    3    0    0 -0.27670671336E+03 -0.16226222034E+03  0.20017184358E+03  0.37810633469E+03  0.00000000000E+00 0.  1.
        -13    1    3    3    0    0 -0.42622551962E+03 -0.35544098865E+03  0.44461274195E+03  0.71111671356E+03  0.00000000000E+00 0. -1.
         22    1    1    2    0    0  0.70293223299E+03  0.51770320899E+03 -0.21050449818E+03  0.89802142543E+03  0.00000000000E+00 0.  1.
<mgrwt>
<rscale>  0 0.19392115E+04</rscale>
<asrwt>0</asrwt>
<pdfrwt beam="1">  1        2 0.18627112E+00 0.19392115E+04</pdfrwt>
<pdfrwt beam="2">  1       -2 0.11945880E+00 0.19392115E+04</pdfrwt>
<totfact> 0.93580895E+00</totfact>
</mgrwt>
</event>
<event>
 6    1  0.1014650E-006  0.3110498E+04  0.7818608E-02  0.8212863E-01
          1   -1    0    0  501    0  0.00000000000E+00  0.00000000000E+00  0.19202927502E+04  0.19202927502E+04  0.00000000000E+00 0. -1.
         -1   -1    0    0    0  501 -0.00000000000E+00 -0.00000000000E+00 -0.12595990285E+04  0.12595990285E+04  0.00000000000E+00 0.  1.
         23    2    1    2    0    0 -0.78270286568E+02 -0.13112362650E+04 -0.51815915393E+03  0.14149099423E+04  0.89523490507E+02 0.  0.
         11    1    3    3    0    0  0.14043917126E+02 -0.48741618585E+03 -0.18789358959E+03  0.52256652289E+03  0.00000000000E+00 0.  1.
        -11    1    3    3    0    0 -0.92314203693E+02 -0.82382007920E+03 -0.33026556435E+03  0.89234341937E+03  0.00000000000E+00 0. -1.
         22    1    1    2    0    0  0.78270286568E+02  0.13112362650E+04  0.11788528756E+04  0.17649818364E+04  0.00000000000E+00 0.  1.
<mgrwt>
<rscale>  0 0.31104976E+04</rscale>
<asrwt>0</asrwt>
<pdfrwt beam="1">  1        1 0.29542965E+00 0.31104976E+04</pdfrwt>
<pdfrwt beam="2">  1       -1 0.19378447E+00 0.31104976E+04</pdfrwt>
<totfact> 0.47305949E-01</totfact>
</mgrwt>
</event>
<event>
 6    1  0.1014650E-006  0.1809317E+04  0.7818608E-02  0.8701361E-01
          2   -1    0    0  501    0  0.00000000000E+00  0.00000000000E+00  0.14033603342E+04  0.14033603342E+04  0.00000000000E+00 0. -1.
         -2   -1    0    0    0  501 -0.00000000000E+00 -0.00000000000E+00 -0.58317644890E+03  0.58317644890E+03  0.00000000000E+00 0.  1.
         23    2    1    2    0    0 -0.48020127369E+03 -0.74286067466E+03  0.60751109190E+03  0.10767758462E+04  0.89113697389E+02 0.  0.
         13    1    3    3    0    0 -0.24336785402E+03 -0.30590311745E+03  0.24077304381E+03  0.45910378812E+03  0.00000000000E+00 0.  1.
        -13    1    3    3    0    0 -0.23683341966E+03 -0.43695755720E+03  0.36673804809E+03  0.61767205812E+03  0.00000000000E+00 0. -1.
         22    1    1    2    0    0  0.48020127369E+03  0.74286067466E+03  0.21267279342E+03  0.90976093687E+03  0.00000000000E+00 0. -1.
<mgrwt>
<rscale>  0 0.18093167E+04</rscale>
<asrwt>0</asrwt>
<pdfrwt beam="1">  1        2 0.21590159E+00 0.18093167E+04</pdfrwt>
<pdfrwt beam="2">  1       -2 0.89719454E-01 0.18093167E+04</pdfrwt>
<totfact> 0.14467944E+01</totfact>
</mgrwt>
</event>
<event>
 6    1  0.1014650E-006  0.4767504E+04  0.7818608E-02  0.7865408E-01
         -2   -1    0    0    0  501 -0.00000000000E+00  0.00000000000E+00  0.13743259051E+04  0.13743259051E+04  0.00000000000E+00 0.  1.
          2   -1    0    0  501    0  0.00000000000E+00 -0.00000000000E+00 -0.41345903528E+04  0.41345903528E+04  0.00000000000E+00 0. -1.
         23    2    1    2    0    0 -0.16342130275E+04  0.68868540460E+03 -0.32196427988E+04  0.36769860531E+04  0.95848199917E+02 0.  0.
         11    1    3    3    0    0 -0.61878824975E+03  0.25074850976E+03 -0.13074339438E+04  0.14680453776E+04  0.00000000000E+00 0. -1.
        -11    1    3    3    0    0 -0.10154247777E+04  0.43793689484E+03 -0.19122088550E+04  0.22089406756E+04  0.00000000000E+00 0.  1.
         22    1    1    2    0    0  0.16342130275E+04 -0.68868540460E+03  0.45937835116E+03  0.18319302048E+04  0.00000000000E+00 0.  1.
<mgrwt>
<rscale>  0 0.47675044E+04</rscale>
<asrwt>0</asrwt>
<pdfrwt beam="1">  1        2 0.63609082E+00 0.47675044E+04</pdfrwt>
<pdfrwt beam="2">  1       -2 0.21143476E+00 0.47675044E+04</pdfrwt>
<totfact> 0.21877153E-02</totfact>
</mgrwt>
</event>
<event>
 6    1  0.1014650E-006  0.1791452E+04  0.7818608E-02  0.8710858E-01
         -1   -1    0    0    0  501 -0.00000000000E+00  0.00000000000E+00  0.87120342303E+03  0.87120342303E+03  0.00000000000E+00 0.  1.
          1   -1    0    0  501    0  0.00000000000E+00 -0.00000000000E+00 -0.92093908598E+03  0.92093908598E+03  0.00000000000E+00 0. -1.
         23    2    1    2    0    0 -0.11395954626E+03  0.88611844846E+03 -0.25172678771E+02  0.89838861500E+03  0.90971187335E+02 0.  0.
         11    1    3    3    0    0 -0.42937603095E+02  0.55683748112E+03  0.17997573208E+02  0.55878039585E+03  0.00000000000E+00 0.  1.
        -11    1    3    3    0    0 -0.71021943165E+02  0.32928096733E+03 -0.43170251979E+02  0.33960821915E+03  0.00000000000E+00 0. -1.
         22    1    1    2    0    0  0.11395954626E+03 -0.88611844846E+03 -0.24562984180E+02  0.89375389402E+03  0.00000000000E+00 0.  1.
<mgrwt>
<rscale>  0 0.17914522E+04</rscale>
<asrwt>0</asrwt>
<pdfrwt beam="1">  1        1 0.14168294E+00 0.17914522E+04</pdfrwt>
<pdfrwt beam="2">  1       -1 0.13403130E+00 0.17914522E+04</pdfrwt>
<totfact> 0.77524698E+00</totfact>
</mgrwt>
</event>
<event>
 6    1  0.1014650E-006  0.2799399E+04  0.7818608E-02  0.8303455E-01
         -1   -1    0    0    0  501 -0.00000000000E+00  0.00000000000E+00  0.15547247283E+04  0.15547247283E+04  0.00000000000E+00 0.  1.
          1   -1    0    0  501    0  0.00000000000E+00 -0.00000000000E+00 -0.12601320942E+04  0.12601320942E+04  0.00000000000E+00 0. -1.
         23    2    1    2    0    0  0.10928507432E+04  0.65106067367E+03 -0.43574905579E+03  0.13480229083E+04  0.95319326660E+02 0.  0.
         11    1    3    3    0    0  0.22236557452E+02  0.89955298748E+01 -0.22848919731E+02  0.33127891238E+02  0.00000000000E+00 0.  1.
        -11    1    3    3    0    0  0.10706141857E+04  0.64206514380E+03 -0.41290013606E+03  0.13148950171E+04  0.00000000000E+00 0. -1.
         22    1    1    2    0    0 -0.10928507432E+04 -0.65106067367E+03  0.73034168996E+03  0.14668339142E+04  0.00000000000E+00 0.  1.
<mgrwt>
<rscale>  0 0.27993989E+04</rscale>
<asrwt>0</asrwt>
<pdfrwt beam="1">  1        1 0.19386648E+00 0.27993989E+04</pdfrwt>
<pdfrwt beam="2">  1       -1 0.23918842E+00 0.27993989E+04</pdfrwt>
<totfact> 0.68660514E-01</totfact>
</mgrwt>
</event>
<event>
 6    1  0.1014650E-006  0.1586972E+04  0.7818608E-02  0.8828592E-01
         -2   -1    0    0    0  501 -0.00000000000E+00  0.00000000000E+00  0.96460669312E+03  0.96460669312E+03  0.00000000000E+00 0.  1.
          2   -1    0    0  501    0  0.00000000000E+00 -0.00000000000E+00 -0.65272224418E+03  0.65272224418E+03  0.00000000000E+00 0. -1.
         23    2    1    2    0    0  0.42896364373E+03 -0.56285909937E+03 -0.20333256049E+03  0.74196116305E+03  0.91334899900E+02 0.  0.
         13    1    3    3    0    0  0.12080386497E+03 -0.13829843606E+03 -0.13736520470E+02  0.18414321384E+03  0.00000000000E+00 0.  1.
        -13    1    3    3    0    0  0.30815977876E+03 -0.42456066331E+03 -0.18959604002E+03  0.55781794921E+03  0.00000000000E+00 0. -1.
         22    1    1    2    0    0 -0.42896364373E+03  0.56285909937E+03  0.51521700943E+03  0.87536777425E+03  0.00000000000E+00 0.  1.
<mgrwt>
<rscale>  0 0.15869723E+04</rscale>
<asrwt>0</asrwt>
<pdfrwt beam="1">  1        2 0.10041881E+00 0.15869723E+04</pdfrwt>
<pdfrwt beam="2">  1       -2 0.14840103E+00 0.15869723E+04</pdfrwt>
<totfact> 0.13226631E+01</totfact>
</mgrwt>
</event>
<event>
 6    1  0.1014650E-006  0.2011374E+04  0.7818608E-02  0.8601321E-01
          1   -1    0    0  501    0  0.00000000000E+00  0.00000000000E+00  0.14995640002E+04  0.14995640002E+04  0.00000000000E+00 0. -1.
         -1   -1    0    0    0  501 -0.00000000000E+00 -0.00000000000E+00 -0.67446712717E+03  0.67446712717E+03  0.00000000000E+00 0.  1.
         23    2    1    2    0    0  0.81216461490E+03 -0.56592023833E+03  0.59284235474E+03  0.11572621078E+04  0.88974439156E+02 0.  0.
         13    1    3    3    0    0  0.62302331792E+03 -0.43619272611E+03  0.41047414324E+03  0.86424022774E+03  0.00000000000E+00 0. -1.
        -13    1    3    3    0    0  0.18914129699E+03 -0.12972751223E+03  0.18236821150E+03  0.29302188010E+03  0.00000000000E+00 0.  1.
         22    1    1    2    0    0 -0.81216461490E+03  0.56592023833E+03  0.23225451833E+03  0.10167690196E+04  0.00000000000E+00 0.  1.
<mgrwt>
<rscale>  0 0.20113743E+04</rscale>
<asrwt>0</asrwt>
<pdfrwt beam="1">  1        1 0.23070215E+00 0.20113743E+04</pdfrwt>
<pdfrwt beam="2">  1       -1 0.10376417E+00 0.20113743E+04</pdfrwt>
<totfact> 0.53091097E+00</totfact>
</mgrwt>
</event>
<event>
 6    1  0.1014650E-006  0.1790699E+04  0.7818608E-02  0.8711261E-01
         -2   -1    0    0    0  501 -0.00000000000E+00  0.00000000000E+00  0.62989792811E+03  0.62989792811E+03  0.00000000000E+00 0.  1.
          2   -1    0    0  501    0  0.00000000000E+00 -0.00000000000E+00 -0.12726679681E+04  0.12726679681E+04  0.00000000000E+00 0. -1.
         23    2    1    2    0    0 -0.41804349109E+00  0.88904034521E+03 -0.41301747320E+03  0.98431802547E+03  0.88913620547E+02 0.  0.
         11    1    3    3    0    0  0.19276865744E+02  0.24144746535E+03 -0.75062667398E+02  0.25358012563E+03  0.00000000000E+00 0. -1.
        -11    1    3    3    0    0 -0.19694909235E+02  0.64759287986E+03 -0.33795480580E+03  0.73073789984E+03  0.00000000000E+00 0.  1.
         22    1    1    2    0    0  0.41804349109E+00 -0.88904034521E+03 -0.22975256679E+03  0.91824787074E+03  0.00000000000E+00 0.  1.
<mgrwt>
<rscale>  0 0.17906992E+04</rscale>
<asrwt>0</asrwt>
<pdfrwt beam="1">  1        2 0.19579507E+00 0.17906992E+04</pdfrwt>
<pdfrwt beam="2">  1       -2 0.96907375E-01 0.17906992E+04</pdfrwt>
<totfact> 0.14417425E+01</totfact>
</mgrwt>
</event>
<event>
 6    1  0.1014650E-006  0.1267545E+04  0.7818608E-02  0.9055706E-01
         -1   -1    0    0    0  501 -0.00000000000E+00  0.00000000000E+00  0.23633838361E+03  0.23633838361E+03  0.00000000000E+00 0.  1.
          1   -1    0    0  501    0  0.00000000000E+00 -0.00000000000E+00 -0.16995431874E+04  0.16995431874E+04  0.00000000000E+00 0. -1.
         23    2    1    2    0    0  0.10859685483E+03 -0.74247410209E+02 -0.16770631015E+04  0.16848012527E+04  0.93320201112E+02 0.  0.
         13    1    3    3    0    0  0.11961417295E+03 -0.50211142656E+02 -0.11966452421E+04  0.12036563233E+04  0.00000000000E+00 0. -1.
        -13    1    3    3    0    0 -0.11017318118E+02 -0.24036267554E+02 -0.48041785938E+03  0.48114492938E+03  0.00000000000E+00 0.  1.
         22    1    1    2    0    0 -0.10859685483E+03  0.74247410209E+02  0.21385829764E+03  0.25108031837E+03  0.00000000000E+00 0.  1.
<mgrwt>
<rscale>  0 0.12675445E+04</rscale>
<asrwt>0</asrwt>
<pdfrwt beam="1">  1        1 0.26146818E+00 0.12675445E+04</pdfrwt>
<pdfrwt beam="2">  1       -1 0.36359752E-01 0.12675445E+04</pdfrwt>
<totfact> 0.34040545E+01</totfact>
</mgrwt>
</event>
<event>
 6    1  0.1014650E-006  0.1413030E+04  0.7818608E-02  0.8944441E-01
          1   -1    0    0  501    0  0.00000000000E+00  0.00000000000E+00  0.91583525796E+03  0.91583525796E+03  0.00000000000E+00 0. -1.
         -1   -1    0    0    0  501 -0.00000000000E+00 -0.00000000000E+00 -0.54503602166E+03  0.54503602166E+03  0.00000000000E+00 0.  1.
         23    2    1    2    0    0 -0.35372602506E+03  0.27042558559E+02 -0.44179088477E+03  0.57421683417E+03  0.93232966283E+02 0.  0.
         13    1    3    3    0    0 -0.15073475618E+03  0.45951461738E+01 -0.11837319767E+03  0.19171409968E+03  0.00000000000E+00 0. -1.
        -13    1    3    3    0    0 -0.20299126888E+03  0.22447412386E+02 -0.32341768711E+03  0.38250273449E+03  0.00000000000E+00 0.  1.
         22    1    1    2    0    0  0.35372602506E+03 -0.27042558559E+02  0.81259012108E+03  0.88665444546E+03  0.00000000000E+00 0. -1.
<mgrwt>
<rscale>  0 0.14130297E+04</rscale>
<asrwt>0</asrwt>
<pdfrwt beam="1">  1        1 0.14089773E+00 0.14130297E+04</pdfrwt>
<pdfrwt beam="2">  1       -1 0.83851696E-01 0.14130297E+04</pdfrwt>
<totfact> 0.24266006E+01</totfact>
</mgrwt>
</event>
<event>
 6    1  0.1014650E-006  0.2543981E+04  0.7818608E-02  0.8387483E-01
          2   -1    0    0  501    0  0.00000000000E+00  0.00000000000E+00  0.14954228251E+04  0.14954228251E+04  0.00000000000E+00 0. -1.
         -2   -1    0    0    0  501 -0.00000000000E+00 -0.00000000000E+00 -0.10819409748E+04  0.10819409748E+04  0.00000000000E+00 0.  1.
         23    2    1    2    0    0 -0.11794338450E+04 -0.14254030686E+03 -0.24824628242E+03  0.12174865793E+04  0.96257052735E+02 0.  0.
         11    1    3    3    0    0 -0.70769548878E+03 -0.92933439618E+02 -0.19654765784E+03  0.74033810576E+03  0.00000000000E+00 0.  1.
        -11    1    3    3    0    0 -0.47173835619E+03 -0.49606867245E+02 -0.51698624575E+02  0.47714847350E+03  0.00000000000E+00 0. -1.
         22    1    1    2    0    0  0.11794338450E+04  0.14254030686E+03  0.66172813273E+03  0.13598772207E+04  0.00000000000E+00 0.  1.
<mgrwt>
<rscale>  0 0.25439805E+04</rscale>
<asrwt>0</asrwt>
<pdfrwt beam="1">  1        2 0.23006505E+00 0.25439805E+04</pdfrwt>
<pdfrwt beam="2">  1       -2 0.16645246E+00 0.25439805E+04</pdfrwt>
<totfact> 0.25648255E+00</totfact>
</mgrwt>
</event>
<event>
 6    1  0.1014650E-006  0.1541880E+04  0.7818608E-02  0.8857071E-01
         -1   -1    0    0    0  501 -0.00000000000E+00  0.00000000000E+00  0.57673612227E+03  0.57673612227E+03  0.00000000000E+00 0.  1.
          1   -1    0    0  501    0  0.00000000000E+00 -0.00000000000E+00 -0.10305381298E+04  0.10305381298E+04  0.00000000000E+00 0. -1.
         23    2    1    2    0    0 -0.26944163160E+03  0.34093139823E+03 -0.88859388264E+03  0.99255725559E+03  0.82084141161E+02 0.  0.
         11    1    3    3    0    0 -0.24419572658E+03  0.32945354038E+03 -0.85974619027E+03  0.95254118013E+03  0.00000000000E+00 0. -1.
        -11    1    3    3    0    0 -0.25245905012E+02  0.11477857845E+02 -0.28847692363E+02  0.40016075461E+02  0.00000000000E+00 0.  1.
         22    1    1    2    0    0  0.26944163160E+03 -0.34093139823E+03  0.43479187509E+03  0.61471699649E+03  0.00000000000E+00 0.  1.
<mgrwt>
<rscale>  0 0.15418801E+04</rscale>
<asrwt>0</asrwt>
<pdfrwt beam="1">  1        1 0.15854433E+00 0.15418801E+04</pdfrwt>
<pdfrwt beam="2">  1       -1 0.88728636E-01 0.15418801E+04</pdfrwt>
<totfact> 0.17218236E+01</totfact>
</mgrwt>
</event>
<event>
 6    1  0.1014650E-006  0.4152763E+04  0.7818608E-02  0.7974419E-01
         -2   -1    0    0    0  501 -0.00000000000E+00  0.00000000000E+00  0.11063527427E+04  0.11063527427E+04  0.00000000000E+00 0.  1.
          2   -1    0    0  501    0  0.00000000000E+00 -0.00000000000E+00 -0.38969131056E+04  0.38969131056E+04  0.00000000000E+00 0. -1.
         23    2    1    2    0    0  0.15606782273E+03  0.94687787995E+03 -0.36130122795E+04  0.37393979597E+04  0.91128945656E+02 0.  0.
         11    1    3    3    0    0  0.12649191413E+03  0.71290704228E+03 -0.25690739656E+04  0.26691529922E+04  0.00000000000E+00 0.  1.
        -11    1    3    3    0    0  0.29575908604E+02  0.23397083768E+03 -0.10439383138E+04  0.10702449675E+04  0.00000000000E+00 0. -1.
         22    1    1    2    0    0 -0.15606782273E+03 -0.94687787995E+03  0.82245191658E+03  0.12638678886E+04  0.00000000000E+00 0.  1.
<mgrwt>
<rscale>  0 0.41527632E+04</rscale>
<asrwt>0</asrwt>
<pdfrwt beam="1">  1        2 0.59952511E+00 0.41527632E+04</pdfrwt>
<pdfrwt beam="2">  1       -2 0.17020811E+00 0.41527632E+04</pdfrwt>
<totfact> 0.68188754E-02</totfact>
</mgrwt>
</event>
<event>
 6    1  0.1014650E-006  0.2445806E+04  0.7818608E-02  0.8422551E-01
          2   -1    0    0  501    0  0.00000000000E+00  0.00000000000E+00  0.12207029510E+04  0.12207029510E+04  0.00000000000E+00 0. -1.
         -2   -1    0    0    0  501 -0.00000000000E+00 -0.00000000000E+00 -0.12251072830E+04  0.12251072830E+04  0.00000000000E+00 0.  1.
         23    2    1    2    0    0  0.80472405016E+03  0.75567110894E+03 -0.52459962551E+03  0.12254730818E+04  0.89218189473E+02 0.  0.
         13    1    3    3    0    0  0.28992270790E+03  0.26222235486E+03 -0.13970795357E+03  0.41513136744E+03  0.00000000000E+00 0. -1.
        -13    1    3    3    0    0  0.51480134226E+03  0.49344875408E+03 -0.38489167194E+03  0.81034171436E+03  0.00000000000E+00 0.  1.
         22    1    1    2    0    0 -0.80472405016E+03 -0.75567110894E+03  0.52019529353E+03  0.12203371523E+04  0.00000000000E+00 0.  1.
<mgrwt>
<rscale>  0 0.24458063E+04</rscale>
<asrwt>0</asrwt>
<pdfrwt beam="1">  1        2 0.18780045E+00 0.24458063E+04</pdfrwt>
<pdfrwt beam="2">  1       -2 0.18847804E+00 0.24458063E+04</pdfrwt>
<totfact> 0.26173353E+00</totfact>
</mgrwt>
</event>
<event>
 6    1  0.1014650E-006  0.2542871E+04  0.7818608E-02  0.8387870E-01
         -2   -1    0    0    0  501 -0.00000000000E+00  0.00000000000E+00  0.58270627250E+03  0.58270627250E+03  0.00000000000E+00 0.  1.
          2   -1    0    0  501    0  0.00000000000E+00 -0.00000000000E+00 -0.27742079203E+04  0.27742079203E+04  0.00000000000E+00 0. -1.
         23    2    1    2    0    0 -0.52041704334E+03  0.45832394350E+03  0.30714090471E+03  0.76382542815E+03  0.90548402293E+02 0.  0.
         11    1    3    3    0    0 -0.37923595219E+02  0.69648182865E+02  0.26056311500E+02  0.83474545939E+02  0.00000000000E+00 0.  1.
        -11    1    3    3    0    0 -0.48249344812E+03  0.38867576063E+03  0.28108459321E+03  0.68035088221E+03  0.00000000000E+00 0. -1.
         22    1    1    2    0    0  0.52041704334E+03 -0.45832394350E+03 -0.24986425525E+04  0.25930887647E+04  0.00000000000E+00 0. -1.
<mgrwt>
<rscale>  0 0.25428711E+04</rscale>
<asrwt>0</asrwt>
<pdfrwt beam="1">  1        2 0.42680123E+00 0.25428711E+04</pdfrwt>
<pdfrwt beam="2">  1       -2 0.89647117E-01 0.25428711E+04</pdfrwt>
<totfact> 0.22714579E+00</totfact>
</mgrwt>
</event>
<event>
 6    1  0.1014650E-006  0.1367579E+04  0.7818608E-02  0.8977627E-01
          1   -1    0    0  501    0  0.00000000000E+00  0.00000000000E+00  0.26010567098E+04  0.26010567098E+04  0.00000000000E+00 0. -1.
         -1   -1    0    0    0  501 -0.00000000000E+00 -0.00000000000E+00 -0.17976079783E+03  0.17976079783E+03  0.00000000000E+00 0.  1.
         23    2    1    2    0    0  0.45388897832E+03  0.40106624910E+03  0.58433581850E+03  0.84657560811E+03  0.91501752262E+02 0.  0.
         11    1    3    3    0    0  0.17370499969E+02  0.48004032505E+02  0.44724728665E+02  0.67870632530E+02  0.00000000000E+00 0.  1.
        -11    1    3    3    0    0  0.43651847835E+03  0.35306221659E+03  0.53961108983E+03  0.77870497558E+03  0.00000000000E+00 0. -1.
         22    1    1    2    0    0 -0.45388897832E+03 -0.40106624910E+03  0.18369600935E+04  0.19342418995E+04  0.00000000000E+00 0. -1.
<mgrwt>
<rscale>  0 0.13675789E+04</rscale>
<asrwt>0</asrwt>
<pdfrwt beam="1">  1        1 0.40016254E+00 0.13675789E+04</pdfrwt>
<pdfrwt beam="2">  1       -1 0.27655509E-01 0.13675789E+04</pdfrwt>
<totfact> 0.13308081E+01</totfact>
</mgrwt>
</event>
<event>
 6    1  0.1014650E-006  0.2995940E+04  0.7818608E-02  0.8244891E-01
         -2   -1    0    0    0  501 -0.00000000000E+00  0.00000000000E+00  0.87442687719E+03  0.87442687719E+03  0.00000000000E+00 0.  1.
          2   -1    0    0  501    0  0.00000000000E+00 -0.00000000000E+00 -0.25661536652E+04  0.25661536652E+04  0.00000000000E+00 0. -1.
         23    2    1    2    0    0  0.10099664451E+04  0.38729611692E+03 -0.20344622563E+04  0.23059008062E+04  0.90063050797E+02 0.  0.
         13    1    3    3    0    0  0.68101643228E+03  0.29279734477E+03 -0.13275395883E+04  0.15204851281E+04  0.00000000000E+00 0.  1.
        -13    1    3    3    0    0  0.32895001285E+03  0.94498772147E+02 -0.70692266805E+03  0.78541567815E+03  0.00000000000E+00 0. -1.
         22    1    1    2    0    0 -0.10099664451E+04 -0.38729611692E+03  0.34273546832E+03  0.11346797362E+04  0.00000000000E+00 0.  1.
<mgrwt>
<rscale>  0 0.29959397E+04</rscale>
<asrwt>0</asrwt>
<pdfrwt beam="1">  1        2 0.39479287E+00 0.29959397E+04</pdfrwt>
<pdfrwt beam="2">  1       -2 0.13452721E+00 0.29959397E+04</pdfrwt>
<totfact> 0.10855547E+00</totfact>
</mgrwt>
</event>
<event>
 6    1  0.1014650E-006  0.2146217E+04  0.7818608E-02  0.8541153E-01
          2   -1    0    0  501    0  0.00000000000E+00  0.00000000000E+00  0.14543739047E+04  0.14543739047E+04  0.00000000000E+00 0. -1.
         -2   -1    0    0    0  501 -0.00000000000E+00 -0.00000000000E+00 -0.79179225996E+03  0.79179225996E+03  0.00000000000E+00 0.  1.
         23    2    1    2    0    0 -0.26314363290E+03  0.61493272787E+03  0.12075192433E+04  0.13834125396E+04  0.91327435373E+02 0.  0.
         13    1    3    3    0    0 -0.18090898530E+03  0.50860336340E+03  0.99341895786E+03  0.11306134035E+04  0.00000000000E+00 0. -1.
        -13    1    3    3    0    0 -0.82234647603E+02  0.10632936447E+03  0.21410028543E+03  0.25279913615E+03  0.00000000000E+00 0.  1.
         22    1    1    2    0    0  0.26314363290E+03 -0.61493272787E+03 -0.54493759851E+03  0.86275362509E+03  0.00000000000E+00 0.  1.
<mgrwt>
<rscale>  0 0.21462171E+04</rscale>
<asrwt>0</asrwt>
<pdfrwt beam="1">  1        2 0.22374983E+00 0.21462171E+04</pdfrwt>
<pdfrwt beam="2">  1       -2 0.12181419E+00 0.21462171E+04</pdfrwt>
<totfact> 0.63279717E+00</totfact>
</mgrwt>
</event>
<event>
 6    1  0.1014650E-006  0.1633151E+04  0.7818608E-02  0.8800437E-01
         -1   -1    0    0    0  501 -0.00000000000E+00  0.00000000000E+00  0.18133674304E+03  0.18133674304E+03  0.00000000000E+00 0.  1.
          1   -1    0    0  501    0  0.00000000000E+00 -0.00000000000E+00 -0.36771126874E+04  0.36771126874E+04  0.00000000000E+00 0. -1.
         23    2    1    2    0    0 -0.10726650069E+03 -0.80558323717E+03 -0.18612410024E+04  0.20330248413E+04  0.92203481932E+02 0.  0.
         11    1    3    3    0    0 -0.48803695876E+02 -0.19800792234E+03 -0.55277079537E+03  0.58918968953E+03  0.00000000000E+00 0.  1.
        -11    1    3    3    0    0 -0.58462804815E+02 -0.60757531484E+03 -0.13084702070E+04  0.14438351518E+04  0.00000000000E+00 0. -1.
         22    1    1    2    0    0  0.10726650069E+03  0.80558323717E+03 -0.16345349420E+04  0.18254245891E+04  0.00000000000E+00 0.  1.
<mgrwt>
<rscale>  0 0.16331511E+04</rscale>
<asrwt>0</asrwt>
<pdfrwt beam="1">  1        1 0.56570968E+00 0.16331511E+04</pdfrwt>
<pdfrwt beam="2">  1       -1 0.27897959E-01 0.16331511E+04</pdfrwt>
<totfact> 0.20196626E+00</totfact>
</mgrwt>
</event>
<event>
 6    1  0.1014650E-006  0.9222412E+03  0.7818608E-02  0.9398198E-01
         -3   -1    0    0    0  501 -0.00000000000E+00  0.00000000000E+00  0.11844834875E+04  0.11844834875E+04  0.00000000000E+00 0.  1.
          3   -1    0    0  501    0  0.00000000000E+00 -0.00000000000E+00 -0.17951471740E+03  0.17951471740E+03  0.00000000000E+00 0. -1.
         23    2    1    2    0    0  0.26118951512E+03 -0.54429822428E+02  0.10556183370E+04  0.10924324725E+04  0.88859806137E+02 0.  0.
         11    1    3    3    0    0  0.16632231457E+03 -0.42667364727E+02  0.50028694747E+03  0.52893349880E+03  0.00000000000E+00 0. -1.
        -11    1    3    3    0    0  0.94867200543E+02 -0.11762457701E+02  0.55533138954E+03  0.56349897369E+03  0.00000000000E+00 0.  1.
         22    1    1    2    0    0 -0.26118951512E+03  0.54429822428E+02 -0.50649566924E+02  0.27156573239E+03  0.00000000000E+00 0. -1.
<mgrwt>
<rscale>  0 0.92224122E+03</rscale>
<asrwt>0</asrwt>
<pdfrwt beam="1">  1        3 0.27617650E-01 0.92224122E+03</pdfrwt>
<pdfrwt beam="2">  1       -3 0.18222822E+00 0.92224122E+03</pdfrwt>
<totfact> 0.63721896E+00</totfact>
</mgrwt>
</event>
<event>
 6    1  0.1014650E-006  0.2577989E+04  0.7818608E-02  0.8375716E-01
         -1   -1    0    0    0  501 -0.00000000000E+00  0.00000000000E+00  0.12521051880E+04  0.12521051880E+04  0.00000000000E+00 0.  1.
          1   -1    0    0  501    0  0.00000000000E+00 -0.00000000000E+00 -0.13269706241E+04  0.13269706241E+04  0.00000000000E+00 0. -1.
         23    2    1    2    0    0  0.10843886535E+04  0.14485267151E+03  0.64145199365E+03  0.12714092994E+04  0.90221384177E+02 0.  0.
         13    1    3    3    0    0  0.31981852302E+03  0.63260597689E+02  0.15007753528E+03  0.35889978752E+03  0.00000000000E+00 0. -1.
        -13    1    3    3    0    0  0.76457013046E+03  0.81592073817E+02  0.49137445837E+03  0.91250951187E+03  0.00000000000E+00 0.  1.
         22    1    1    2    0    0 -0.10843886535E+04 -0.14485267151E+03 -0.71631742980E+03  0.13076665127E+04  0.00000000000E+00 0. -1.
<mgrwt>
<rscale>  0 0.25779890E+04</rscale>
<asrwt>0</asrwt>
<pdfrwt beam="1">  1        1 0.20414933E+00 0.25779890E+04</pdfrwt>
<pdfrwt beam="2">  1       -1 0.19263157E+00 0.25779890E+04</pdfrwt>
<totfact> 0.12932054E+00</totfact>
</mgrwt>
</event>
<event>
 6    1  0.1014650E-006  0.1167359E+04  0.7818608E-02  0.9141917E-01
          2   -1    0    0  501    0  0.00000000000E+00  0.00000000000E+00  0.17530451741E+04  0.17530451741E+04  0.00000000000E+00 0. -1.
         -2   -1    0    0    0  501 -0.00000000000E+00 -0.00000000000E+00 -0.19433711061E+03  0.19433711061E+03  0.00000000000E+00 0.  1.
         23    2    1    2    0    0 -0.18471581486E+03 -0.44267760524E+02  0.16984902503E+04  0.17115462684E+04  0.91879984593E+02 0.  0.
         11    1    3    3    0    0 -0.16075804944E+03 -0.35115680850E+02  0.10742428641E+04  0.10867722819E+04  0.00000000000E+00 0. -1.
        -11    1    3    3    0    0 -0.23957765421E+02 -0.91520796738E+01  0.62424738614E+03  0.62477398648E+03  0.00000000000E+00 0.  1.
         22    1    1    2    0    0  0.18471581486E+03  0.44267760524E+02 -0.13978218676E+03  0.23583601637E+03  0.00000000000E+00 0.  1.
<mgrwt>
<rscale>  0 0.11673590E+04</rscale>
<asrwt>0</asrwt>
<pdfrwt beam="1">  1        2 0.26969925E+00 0.11673590E+04</pdfrwt>
<pdfrwt beam="2">  1       -2 0.29898018E-01 0.11673590E+04</pdfrwt>
<totfact> 0.93508715E+01</totfact>
</mgrwt>
</event>
<event>
 6    1  0.1014650E-006  0.3991748E+04  0.7818608E-02  0.8006213E-01
         -1   -1    0    0    0  501 -0.00000000000E+00  0.00000000000E+00  0.17532077376E+04  0.17532077376E+04  0.00000000000E+00 0.  1.
          1   -1    0    0  501    0  0.00000000000E+00 -0.00000000000E+00 -0.22721278837E+04  0.22721278837E+04  0.00000000000E+00 0. -1.
         23    2    1    2    0    0  0.12913634846E+04 -0.14479143408E+04 -0.72742931411E+03  0.20740407536E+04  0.91739048563E+02 0.  0.
         11    1    3    3    0    0  0.55050404699E+03 -0.55312867583E+03 -0.30748621860E+03  0.83878114690E+03  0.00000000000E+00 0. -1.
        -11    1    3    3    0    0  0.74085943763E+03 -0.89478566496E+03 -0.41994309551E+03  0.12352596067E+04  0.00000000000E+00 0.  1.
         22    1    1    2    0    0 -0.12913634846E+04  0.14479143408E+04  0.20850916803E+03  0.19512948677E+04  0.00000000000E+00 0.  1.
<mgrwt>
<rscale>  0 0.39917476E+04</rscale>
<asrwt>0</asrwt>
<pdfrwt beam="1">  1        1 0.34955814E+00 0.39917476E+04</pdfrwt>
<pdfrwt beam="2">  1       -1 0.26972427E+00 0.39917476E+04</pdfrwt>
<totfact> 0.79027617E-02</totfact>
</mgrwt>
</event>
<event>
 6    1  0.1014650E-006  0.8680230E+03  0.7818608E-02  0.9466461E-01
          2   -1    0    0  501    0  0.00000000000E+00  0.00000000000E+00  0.13526372962E+04  0.13526372962E+04  0.00000000000E+00 0. -1.
         -2   -1    0    0    0  501 -0.00000000000E+00 -0.00000000000E+00 -0.13925832043E+03  0.13925832043E+03  0.00000000000E+00 0.  1.
         23    2    1    2    0    0  0.26210324382E+03 -0.18318302476E+03  0.12140023739E+03  0.35405920658E+03  0.91464600470E+02 0.  0.
         13    1    3    3    0    0  0.49699112056E+02 -0.82620579950E+02  0.21997690041E+02  0.98894187582E+02  0.00000000000E+00 0.  1.
        -13    1    3    3    0    0  0.21240413177E+03 -0.10056244481E+03  0.99402547352E+02  0.25516501899E+03  0.00000000000E+00 0. -1.
         22    1    1    2    0    0 -0.26210324382E+03  0.18318302476E+03  0.10919787384E+04  0.11378364101E+04  0.00000000000E+00 0. -1.
<mgrwt>
<rscale>  0 0.86802304E+03</rscale>
<asrwt>0</asrwt>
<pdfrwt beam="1">  1        2 0.20809804E+00 0.86802304E+03</pdfrwt>
<pdfrwt beam="2">  1       -2 0.21424358E-01 0.86802304E+03</pdfrwt>
<totfact> 0.29249152E+02</totfact>
</mgrwt>
</event>
<event>
 6    1  0.1014650E-006  0.3994502E+04  0.7818608E-02  0.8005657E-01
         -2   -1    0    0    0  501 -0.00000000000E+00  0.00000000000E+00  0.15726586112E+04  0.15726586112E+04  0.00000000000E+00 0.  1.
          2   -1    0    0  501    0  0.00000000000E+00 -0.00000000000E+00 -0.25364768938E+04  0.25364768938E+04  0.00000000000E+00 0. -1.
         23    2    1    2    0    0  0.67999128076E+02 -0.19856744336E+04 -0.28705335165E+03  0.20101982477E+04  0.10474030062E+03 0.  0.
         13    1    3    3    0    0 -0.21375347414E+02 -0.12792949054E+03 -0.19145657141E+02  0.13110841397E+03  0.00000000000E+00 0.  1.
        -13    1    3    3    0    0  0.89374475490E+02 -0.18577449431E+04 -0.26790769451E+03  0.18790898337E+04  0.00000000000E+00 0. -1.
         22    1    1    2    0    0 -0.67999128076E+02  0.19856744336E+04 -0.67676493096E+03  0.20989372572E+04  0.00000000000E+00 0.  1.
<mgrwt>
<rscale>  0 0.39945023E+04</rscale>
<asrwt>0</asrwt>
<pdfrwt beam="1">  1        2 0.39022721E+00 0.39945023E+04</pdfrwt>
<pdfrwt beam="2">  1       -2 0.24194748E+00 0.39945023E+04</pdfrwt>
<totfact> 0.18850542E-01</totfact>
</mgrwt>
</event>
<event>
 6    1  0.1014650E-006  0.3486652E+04  0.7818608E-02  0.8116961E-01
          2   -1    0    0  501    0  0.00000000000E+00  0.00000000000E+00  0.35696394802E+04  0.35696394802E+04  0.00000000000E+00 0. -1.
         -2   -1    0    0    0  501 -0.00000000000E+00 -0.00000000000E+00 -0.85139843939E+03  0.85139843939E+03  0.00000000000E+00 0.  1.
         23    2    1    2    0    0 -0.60283188868E+03 -0.59997569840E+03 -0.56773920217E+03  0.10267716834E+04  0.92494126992E+02 0.  0.
         11    1    3    3    0    0 -0.12103950165E+03 -0.10601887008E+03 -0.15109103126E+03  0.22072394863E+03  0.00000000000E+00 0. -1.
        -11    1    3    3    0    0 -0.48179238703E+03 -0.49395682833E+03 -0.41664817090E+03  0.80604773480E+03  0.00000000000E+00 0.  1.
         22    1    1    2    0    0  0.60283188868E+03  0.59997569840E+03  0.32859802429E+04  0.33942662361E+04  0.00000000000E+00 0. -1.
<mgrwt>
<rscale>  0 0.34866520E+04</rscale>
<asrwt>0</asrwt>
<pdfrwt beam="1">  1        2 0.54917529E+00 0.34866520E+04</pdfrwt>
<pdfrwt beam="2">  1       -2 0.13098438E+00 0.34866520E+04</pdfrwt>
<totfact> 0.25395918E-01</totfact>
</mgrwt>
</event>
<event>
 6    1  0.1014650E-006  0.1338799E+04  0.7818608E-02  0.8999351E-01
         -2   -1    0    0    0  501 -0.00000000000E+00  0.00000000000E+00  0.70412763592E+03  0.70412763592E+03  0.00000000000E+00 0.  1.
          2   -1    0    0  501    0  0.00000000000E+00 -0.00000000000E+00 -0.63638384181E+03  0.63638384181E+03  0.00000000000E+00 0. -1.
         23    2    1    2    0    0 -0.40792667128E+03  0.26618211375E+03  0.48928352439E+03  0.69634315267E+03  0.90765258796E+02 0.  0.
         13    1    3    3    0    0 -0.80785420800E+02  0.50462546587E+02  0.15168012005E+03  0.17910782127E+03  0.00000000000E+00 0. -1.
        -13    1    3    3    0    0 -0.32714125048E+03  0.21571956716E+03  0.33760340434E+03  0.51723533139E+03  0.00000000000E+00 0.  1.
         22    1    1    2    0    0  0.40792667128E+03 -0.26618211375E+03 -0.42153973028E+03  0.64416832507E+03  0.00000000000E+00 0. -1.
<mgrwt>
<rscale>  0 0.13387986E+04</rscale>
<asrwt>0</asrwt>
<pdfrwt beam="1">  1        2 0.97905207E-01 0.13387986E+04</pdfrwt>
<pdfrwt beam="2">  1       -2 0.10832733E+00 0.13387986E+04</pdfrwt>
<totfact> 0.30765609E+01</totfact>
</mgrwt>
</event>
<event>
 6    1  0.1014650E-006  0.3581447E+04  0.7818608E-02  0.8094755E-01
          2   -1    0    0  501    0  0.00000000000E+00  0.00000000000E+00  0.27612958597E+04  0.27612958597E+04  0.00000000000E+00 0. -1.
         -2   -1    0    0    0  501 -0.00000000000E+00 -0.00000000000E+00 -0.11612992500E+04  0.11612992500E+04  0.00000000000E+00 0.  1.
         23    2    1    2    0    0 -0.91576254421E+03  0.13670049610E+04  0.15713163398E+04  0.22769505069E+04  0.90249490747E+02 0.  0.
         11    1    3    3    0    0 -0.49390704775E+03  0.77102702531E+03  0.81772523789E+03  0.12276405868E+04  0.00000000000E+00 0.  1.
        -11    1    3    3    0    0 -0.42185549646E+03  0.59597793566E+03  0.75359110190E+03  0.10493099202E+04  0.00000000000E+00 0. -1.
         22    1    1    2    0    0  0.91576254421E+03 -0.13670049610E+04  0.28680269888E+02  0.16456446028E+04  0.00000000000E+00 0.  1.
<mgrwt>
<rscale>  0 0.35814471E+04</rscale>
<asrwt>0</asrwt>
<pdfrwt beam="1">  1        2 0.42481475E+00 0.35814471E+04</pdfrwt>
<pdfrwt beam="2">  1       -2 0.17866142E+00 0.35814471E+04</pdfrwt>
<totfact> 0.36885248E-01</totfact>
</mgrwt>
</event>
<event>
 6    1  0.1040707E-006  0.2112072E+04  0.7818608E-02  0.8555944E-01
          1   -1    0    0  501    0  0.00000000000E+00  0.00000000000E+00  0.11538694994E+04  0.11538694994E+04  0.00000000000E+00 0. -1.
         -1   -1    0    0    0  501 -0.00000000000E+00 -0.00000000000E+00 -0.96649774650E+03  0.96649774650E+03  0.00000000000E+00 0.  1.
         23    2    1    2    0    0  0.24872379251E+03 -0.30621903855E+03  0.10755355023E+04  0.11485295690E+04  0.81914160277E+02 0.  0.
         11    1    3    3    0    0  0.66039496119E+02 -0.11960257840E+03  0.46069075007E+03  0.48052258948E+03  0.00000000000E+00 0. -1.
        -11    1    3    3    0    0  0.18268429639E+03 -0.18661646015E+03  0.61484475219E+03  0.66800697949E+03  0.00000000000E+00 0.  1.
         22    1    1    2    0    0 -0.24872379251E+03  0.30621903855E+03 -0.88816374938E+03  0.97183767690E+03  0.00000000000E+00 0.  1.
<mgrwt>
<rscale>  0 0.21120722E+04</rscale>
<asrwt>0</asrwt>
<pdfrwt beam="1">  1        1 0.17751839E+00 0.21120722E+04</pdfrwt>
<pdfrwt beam="2">  1       -1 0.14869196E+00 0.21120722E+04</pdfrwt>
<totfact> 0.37928442E+00</totfact>
</mgrwt>
</event>
<event>
 6    1  0.1014650E-006  0.2683052E+04  0.7818608E-02  0.8340525E-01
          1   -1    0    0  501    0  0.00000000000E+00  0.00000000000E+00  0.13745059779E+04  0.13745059779E+04  0.00000000000E+00 0. -1.
         -1   -1    0    0    0  501 -0.00000000000E+00 -0.00000000000E+00 -0.13093373530E+04  0.13093373530E+04  0.00000000000E+00 0.  1.
         23    2    1    2    0    0 -0.69572809564E+03 -0.95821168318E+03  0.65996627941E+03  0.13587050503E+04  0.91196002597E+02 0.  0.
         13    1    3    3    0    0 -0.27276336131E+03 -0.31278482890E+03  0.25719939891E+03  0.48824761266E+03  0.00000000000E+00 0.  1.
        -13    1    3    3    0    0 -0.42296473432E+03 -0.64542685428E+03  0.40276688050E+03  0.87045743764E+03  0.00000000000E+00 0. -1.
         22    1    1    2    0    0  0.69572809564E+03  0.95821168318E+03 -0.59479765453E+03  0.13251382806E+04  0.00000000000E+00 0.  1.
<mgrwt>
<rscale>  0 0.26830520E+04</rscale>
<asrwt>0</asrwt>
<pdfrwt beam="1">  1        1 0.21146246E+00 0.26830520E+04</pdfrwt>
<pdfrwt beam="2">  1       -1 0.20143652E+00 0.26830520E+04</pdfrwt>
<totfact> 0.10300728E+00</totfact>
</mgrwt>
</event>
<event>
 6    1  0.1014650E-006  0.5292757E+04  0.7818608E-02  0.7784868E-01
          1   -1    0    0  501    0  0.00000000000E+00  0.00000000000E+00  0.32075086720E+04  0.32075086720E+04  0.00000000000E+00 0. -1.
         -1   -1    0    0    0  501 -0.00000000000E+00 -0.00000000000E+00 -0.21834139025E+04  0.21834139025E+04  0.00000000000E+00 0.  1.
         23    2    1    2    0    0 -0.41612143846E+03 -0.31324237081E+03  0.31540645760E+04  0.31981961412E+04  0.95170234796E+02 0.  0.
         13    1    3    3    0    0 -0.11905124591E+03 -0.10894735164E+03  0.12416468819E+04  0.12520901341E+04  0.00000000000E+00 0.  1.
        -13    1    3    3    0    0 -0.29707019255E+03 -0.20429501917E+03  0.19124176942E+04  0.19461060072E+04  0.00000000000E+00 0. -1.
         22    1    1    2    0    0  0.41612143846E+03  0.31324237081E+03 -0.21299698066E+04  0.21927264333E+04  0.00000000000E+00 0.  1.
<mgrwt>
<rscale>  0 0.52927569E+04</rscale>
<asrwt>0</asrwt>
<pdfrwt beam="1">  1        1 0.49346287E+00 0.52927569E+04</pdfrwt>
<pdfrwt beam="2">  1       -1 0.33590983E+00 0.52927569E+04</pdfrwt>
<totfact> 0.56970856E-03</totfact>
</mgrwt>
</event>
<event>
 6    1  0.1014650E-006  0.2423353E+04  0.7818608E-02  0.8430812E-01
         -1   -1    0    0    0  501 -0.00000000000E+00  0.00000000000E+00  0.13609126957E+04  0.13609126957E+04  0.00000000000E+00 0.  1.
          1   -1    0    0  501    0  0.00000000000E+00 -0.00000000000E+00 -0.10788051188E+04  0.10788051188E+04  0.00000000000E+00 0. -1.
         23    2    1    2    0    0 -0.69617278317E+03  0.61215559480E+03 -0.64147921225E+03  0.11311294248E+04  0.92559060712E+02 0.  0.
         11    1    3    3    0    0 -0.53873659573E+03  0.50799515622E+03 -0.47750270578E+03  0.88108173988E+03  0.00000000000E+00 0.  1.
        -11    1    3    3    0    0 -0.15743618743E+03  0.10416043858E+03 -0.16397650647E+03  0.25004768496E+03  0.00000000000E+00 0. -1.
         22    1    1    2    0    0  0.69617278317E+03 -0.61215559480E+03  0.92358678923E+03  0.13085883896E+04  0.00000000000E+00 0.  1.
<mgrwt>
<rscale>  0 0.24233527E+04</rscale>
<asrwt>0</asrwt>
<pdfrwt beam="1">  1        1 0.16597002E+00 0.24233527E+04</pdfrwt>
<pdfrwt beam="2">  1       -1 0.20937118E+00 0.24233527E+04</pdfrwt>
<totfact> 0.15274848E+00</totfact>
</mgrwt>
</event>
<event>
 6    1  0.1014650E-006  0.1196589E+04  0.7818608E-02  0.9115847E-01
          1   -1    0    0  501    0  0.00000000000E+00  0.00000000000E+00  0.70615766293E+03  0.70615766293E+03  0.00000000000E+00 0. -1.
         -1   -1    0    0    0  501 -0.00000000000E+00 -0.00000000000E+00 -0.50690714249E+03  0.50690714249E+03  0.00000000000E+00 0.  1.
         23    2    1    2    0    0 -0.22391468842E+02  0.27509665899E+03  0.63442965676E+03  0.69773924778E+03  0.90330055071E+02 0.  0.
         13    1    3    3    0    0 -0.15651277712E+02  0.18600025262E+03  0.52046350962E+03  0.55292252741E+03  0.00000000000E+00 0. -1.
        -13    1    3    3    0    0 -0.67401911305E+01  0.89096406377E+02  0.11396614714E+03  0.14481672038E+03  0.00000000000E+00 0.  1.
         22    1    1    2    0    0  0.22391468842E+02 -0.27509665899E+03 -0.43517913633E+03  0.51532555764E+03  0.00000000000E+00 0.  1.
<mgrwt>
<rscale>  0 0.11965891E+04</rscale>
<asrwt>0</asrwt>
<pdfrwt beam="1">  1        1 0.10863964E+00 0.11965891E+04</pdfrwt>
<pdfrwt beam="2">  1       -1 0.77985715E-01 0.11965891E+04</pdfrwt>
<totfact> 0.43845324E+01</totfact>
</mgrwt>
</event>
<event>
 6    1  0.1014650E-006  0.1588888E+04  0.7818608E-02  0.8827404E-01
          1   -1    0    0  501    0  0.00000000000E+00  0.00000000000E+00  0.26148395302E+04  0.26148395302E+04  0.00000000000E+00 0. -1.
         -1   -1    0    0    0  501 -0.00000000000E+00 -0.00000000000E+00 -0.24136893009E+03  0.24136893009E+03  0.00000000000E+00 0.  1.
         23    2    1    2    0    0  0.23054995545E+03  0.70200184216E+03  0.17015760644E+04  0.18575082373E+04  0.94951988917E+02 0.  0.
         13    1    3    3    0    0  0.67280343415E+02  0.29467828001E+03  0.78867612528E+03  0.84461349972E+03  0.00000000000E+00 0.  1.
        -13    1    3    3    0    0  0.16326961204E+03  0.40732356215E+03  0.91289993915E+03  0.10128947376E+04  0.00000000000E+00 0. -1.
         22    1    1    2    0    0 -0.23054995545E+03 -0.70200184216E+03  0.67189453571E+03  0.99870022302E+03  0.00000000000E+00 0. -1.
<mgrwt>
<rscale>  0 0.15888877E+04</rscale>
<asrwt>0</asrwt>
<pdfrwt beam="1">  1        1 0.40228298E+00 0.15888877E+04</pdfrwt>
<pdfrwt beam="2">  1       -1 0.37133683E-01 0.15888877E+04</pdfrwt>
<totfact> 0.75660467E+00</totfact>
</mgrwt>
</event>
<event>
 6    1  0.1014650E-006  0.1169086E+04  0.7818608E-02  0.9140354E-01
         -2   -1    0    0    0  501 -0.00000000000E+00  0.00000000000E+00  0.16031329778E+03  0.16031329778E+03  0.00000000000E+00 0.  1.
          2   -1    0    0  501    0  0.00000000000E+00 -0.00000000000E+00 -0.21313925039E+04  0.21313925039E+04  0.00000000000E+00 0. -1.
         23    2    1    2    0    0 -0.38790699969E+03  0.19202580103E+03 -0.23469518740E+03  0.50218765169E+03  0.98817295300E+02 0.  0.
         11    1    3    3    0    0 -0.11360916907E+03  0.20608415598E+02 -0.29624419056E+02  0.11920300456E+03  0.00000000000E+00 0.  1.
        -11    1    3    3    0    0 -0.27429783061E+03  0.17141738544E+03 -0.20507076834E+03  0.38298464713E+03  0.00000000000E+00 0. -1.
         22    1    1    2    0    0  0.38790699969E+03 -0.19202580103E+03 -0.17363840188E+04  0.17895181500E+04  0.00000000000E+00 0. -1.
<mgrwt>
<rscale>  0 0.11690861E+04</rscale>
<asrwt>0</asrwt>
<pdfrwt beam="1">  1        2 0.32790654E+00 0.11690861E+04</pdfrwt>
<pdfrwt beam="2">  1       -2 0.24663584E-01 0.11690861E+04</pdfrwt>
<totfact> 0.82249691E+01</totfact>
</mgrwt>
</event>
<event>
 6    1  0.1014650E-006  0.2414919E+03  0.7818608E-02  0.1118803E+00
          2   -1    0    0  501    0  0.00000000000E+00  0.00000000000E+00  0.46623974831E+03  0.46623974831E+03  0.00000000000E+00 0. -1.
         -2   -1    0    0    0  501 -0.00000000000E+00 -0.00000000000E+00 -0.31270564260E+02  0.31270564260E+02  0.00000000000E+00 0.  1.
         23    2    1    2    0    0 -0.93342424929E+01  0.10248318233E+03  0.21036591872E+03  0.25045453437E+03  0.88790333292E+02 0.  0.
         13    1    3    3    0    0 -0.45503306997E+02  0.30454509351E+02  0.96450653730E+02  0.11090877644E+03  0.00000000000E+00 0.  1.
        -13    1    3    3    0    0  0.36169064504E+02  0.72028672980E+02  0.11391526499E+03  0.13954575793E+03  0.00000000000E+00 0. -1.
         22    1    1    2    0    0  0.93342424929E+01 -0.10248318233E+03  0.22460326533E+03  0.24705577820E+03  0.00000000000E+00 0. -1.
<mgrwt>
<rscale>  0 0.24149186E+03</rscale>
<asrwt>0</asrwt>
<pdfrwt beam="1">  1        2 0.71729187E-01 0.24149186E+03</pdfrwt>
<pdfrwt beam="2">  1       -2 0.48108564E-02 0.24149186E+03</pdfrwt>
<totfact> 0.13785265E+04</totfact>
</mgrwt>
</event>
<event>
 6    1  0.1014650E-006  0.8250052E+03  0.7818608E-02  0.9524512E-01
          1   -1    0    0  501    0  0.00000000000E+00  0.00000000000E+00  0.31424229845E+03  0.31424229845E+03  0.00000000000E+00 0. -1.
         -1   -1    0    0    0  501 -0.00000000000E+00 -0.00000000000E+00 -0.54148793949E+03  0.54148793949E+03  0.00000000000E+00 0.  1.
         23    2    1    2    0    0  0.23937444925E+03  0.32528693719E+03 -0.17183753185E+03  0.44807624614E+03  0.90180189309E+02 0.  0.
         13    1    3    3    0    0  0.18547719332E+03  0.18787713688E+03 -0.87780284656E+02  0.27821751594E+03  0.00000000000E+00 0. -1.
        -13    1    3    3    0    0  0.53897255929E+02  0.13740980032E+03 -0.84057247195E+02  0.16985873020E+03  0.00000000000E+00 0.  1.
         22    1    1    2    0    0 -0.23937444925E+03 -0.32528693719E+03 -0.55408109191E+02  0.40765399179E+03  0.00000000000E+00 0. -1.
<mgrwt>
<rscale>  0 0.82500525E+03</rscale>
<asrwt>0</asrwt>
<pdfrwt beam="1">  1        1 0.48344969E-01 0.82500525E+03</pdfrwt>
<pdfrwt beam="2">  1       -1 0.83305837E-01 0.82500525E+03</pdfrwt>
<totfact> 0.11938082E+02</totfact>
</mgrwt>
</event>
<event>
 6    1  0.1014650E-006  0.2035757E+04  0.7818608E-02  0.8590083E-01
         -2   -1    0    0    0  501 -0.00000000000E+00  0.00000000000E+00  0.99626420600E+03  0.99626420600E+03  0.00000000000E+00 0.  1.
          2   -1    0    0  501    0  0.00000000000E+00 -0.00000000000E+00 -0.10399618872E+04  0.10399618872E+04  0.00000000000E+00 0. -1.
         23    2    1    2    0    0  0.14101442431E+02 -0.80203622896E+03  0.60144389497E+03  0.10068240257E+04  0.92189460805E+02 0.  0.
         11    1    3    3    0    0 -0.23831806929E+02 -0.64420573055E+03  0.49401039686E+03  0.81216700899E+03  0.00000000000E+00 0. -1.
        -11    1    3    3    0    0  0.37933249360E+02 -0.15783049842E+03  0.10743349811E+03  0.19465701671E+03  0.00000000000E+00 0.  1.
         22    1    1    2    0    0 -0.14101442431E+02  0.80203622896E+03 -0.64514157615E+03  0.10294020675E+04  0.00000000000E+00 0. -1.
<mgrwt>
<rscale>  0 0.20357572E+04</rscale>
<asrwt>0</asrwt>
<pdfrwt beam="1">  1        2 0.15999414E+00 0.20357572E+04</pdfrwt>
<pdfrwt beam="2">  1       -2 0.15327142E+00 0.20357572E+04</pdfrwt>
<totfact> 0.62241402E+00</totfact>
</mgrwt>
</event>
<event>
 6    1  0.1014650E-006  0.1731829E+04  0.7818608E-02  0.8743416E-01
          2   -1    0    0  501    0  0.00000000000E+00  0.00000000000E+00  0.22794589036E+04  0.22794589036E+04  0.00000000000E+00 0. -1.
         -2   -1    0    0    0  501 -0.00000000000E+00 -0.00000000000E+00 -0.32894124154E+03  0.32894124154E+03  0.00000000000E+00 0.  1.
         23    2    1    2    0    0 -0.48764620412E+03  0.12441910024E+03  0.20348472302E+04  0.20981155098E+04  0.90589786481E+02 0.  0.
         13    1    3    3    0    0 -0.16811630798E+03  0.69381886721E+02  0.59305611467E+03  0.62031644695E+03  0.00000000000E+00 0.  1.
        -13    1    3    3    0    0 -0.31952989614E+03  0.55037213521E+02  0.14417911156E+04  0.14777990629E+04  0.00000000000E+00 0. -1.
         22    1    1    2    0    0  0.48764620412E+03 -0.12441910024E+03 -0.84329568212E+02  0.51028463525E+03  0.00000000000E+00 0.  1.
<mgrwt>
<rscale>  0 0.17318291E+04</rscale>
<asrwt>0</asrwt>
<pdfrwt beam="1">  1        2 0.35068598E+00 0.17318291E+04</pdfrwt>
<pdfrwt beam="2">  1       -2 0.50606346E-01 0.17318291E+04</pdfrwt>
<totfact> 0.16330572E+01</totfact>
</mgrwt>
</event>
<event>
 6    1  0.1014650E-006  0.2343893E+04  0.7818608E-02  0.8460813E-01
          1   -1    0    0  501    0  0.00000000000E+00  0.00000000000E+00  0.11192307801E+04  0.11192307801E+04  0.00000000000E+00 0. -1.
         -1   -1    0    0    0  501 -0.00000000000E+00 -0.00000000000E+00 -0.12271456173E+04  0.12271456173E+04  0.00000000000E+00 0.  1.
         23    2    1    2    0    0  0.84162184872E+03  0.30112265937E+03  0.70050026297E+03  0.11411638989E+04  0.11203675045E+03 0.  0.
         13    1    3    3    0    0  0.16374516086E+03  0.97239495270E+02  0.11454079259E+03  0.22223318904E+03  0.00000000000E+00 0.  1.
        -13    1    3    3    0    0  0.67787668787E+03  0.20388316410E+03  0.58595947038E+03  0.91893070984E+03  0.00000000000E+00 0. -1.
         22    1    1    2    0    0 -0.84162184872E+03 -0.30112265937E+03 -0.80841510024E+03  0.12052124985E+04  0.00000000000E+00 0. -1.
<mgrwt>
<rscale>  0 0.23438935E+04</rscale>
<asrwt>0</asrwt>
<pdfrwt beam="1">  1        1 0.17218935E+00 0.23438935E+04</pdfrwt>
<pdfrwt beam="2">  1       -1 0.18879163E+00 0.23438935E+04</pdfrwt>
<totfact> 0.19899156E+00</totfact>
</mgrwt>
</event>
<event>
 6    1  0.1014650E-006  0.2056159E+04  0.7818608E-02  0.8580805E-01
          2   -1    0    0  501    0  0.00000000000E+00  0.00000000000E+00  0.31869948206E+04  0.31869948206E+04  0.00000000000E+00 0. -1.
         -2   -1    0    0    0  501 -0.00000000000E+00 -0.00000000000E+00 -0.33164392792E+03  0.33164392792E+03  0.00000000000E+00 0.  1.
         23    2    1    2    0    0 -0.91274428567E+03 -0.33992905105E+03  0.19828182412E+04  0.22109816381E+04  0.90651724952E+02 0.  0.
         13    1    3    3    0    0 -0.62323976196E+03 -0.24413665225E+03  0.14508583237E+04  0.15978173805E+04  0.00000000000E+00 0. -1.
        -13    1    3    3    0    0 -0.28950452370E+03 -0.95792398796E+02  0.53195991755E+03  0.61316425759E+03  0.00000000000E+00 0.  1.
         22    1    1    2    0    0  0.91274428567E+03  0.33992905105E+03  0.87253265148E+03  0.13076571105E+04  0.00000000000E+00 0.  1.
<mgrwt>
<rscale>  0 0.20561590E+04</rscale>
<asrwt>0</asrwt>
<pdfrwt beam="1">  1        2 0.49030687E+00 0.20561590E+04</pdfrwt>
<pdfrwt beam="2">  1       -2 0.51022145E-01 0.20561590E+04</pdfrwt>
<totfact> 0.44534575E+00</totfact>
</mgrwt>
</event>
<event>
 6    1  0.1014650E-006  0.1099109E+04  0.7818608E-02  0.9206061E-01
          2   -1    0    0  501    0  0.00000000000E+00  0.00000000000E+00  0.11742631054E+04  0.11742631054E+04  0.00000000000E+00 0. -1.
         -2   -1    0    0    0  501 -0.00000000000E+00 -0.00000000000E+00 -0.25719100181E+03  0.25719100181E+03  0.00000000000E+00 0.  1.
         23    2    1    2    0    0 -0.48316303415E+03 -0.89722491708E+02  0.15337618455E+03  0.52330868941E+03  0.93973865222E+02 0.  0.
         11    1    3    3    0    0 -0.11344153689E+03 -0.14954262193E+02 -0.42289881007E+01  0.11450107681E+03  0.00000000000E+00 0.  1.
        -11    1    3    3    0    0 -0.36972149725E+03 -0.74768229515E+02  0.15760517265E+03  0.40880761260E+03  0.00000000000E+00 0. -1.
         22    1    1    2    0    0  0.48316303415E+03  0.89722491708E+02  0.76369591901E+03  0.90814541776E+03  0.00000000000E+00 0. -1.
<mgrwt>
<rscale>  0 0.10991086E+04</rscale>
<asrwt>0</asrwt>
<pdfrwt beam="1">  1        2 0.18065586E+00 0.10991086E+04</pdfrwt>
<pdfrwt beam="2">  1       -2 0.39567847E-01 0.10991086E+04</pdfrwt>
<totfact> 0.11764164E+02</totfact>
</mgrwt>
</event>
<event>
 6    1  0.1014650E-006  0.1474110E+04  0.7818608E-02  0.8901855E-01
          2   -1    0    0  501    0  0.00000000000E+00  0.00000000000E+00  0.66083178954E+03  0.66083178954E+03  0.00000000000E+00 0. -1.
         -2   -1    0    0    0  501 -0.00000000000E+00 -0.00000000000E+00 -0.82206967618E+03  0.82206967618E+03  0.00000000000E+00 0.  1.
         23    2    1    2    0    0 -0.23319444772E+03 -0.22884428943E+03 -0.74241384983E+03  0.81618198989E+03  0.90693753670E+02 0.  0.
         13    1    3    3    0    0 -0.18362234195E+02 -0.46984713982E+01 -0.11052191037E+03  0.11213536440E+03  0.00000000000E+00 0.  1.
        -13    1    3    3    0    0 -0.21483221352E+03 -0.22414581803E+03 -0.63189193946E+03  0.70404662549E+03  0.00000000000E+00 0. -1.
         22    1    1    2    0    0  0.23319444772E+03  0.22884428943E+03  0.58117596320E+03  0.66671947583E+03  0.00000000000E+00 0. -1.
<mgrwt>
<rscale>  0 0.14741096E+04</rscale>
<asrwt>0</asrwt>
<pdfrwt beam="1">  1        2 0.10166643E+00 0.14741096E+04</pdfrwt>
<pdfrwt beam="2">  1       -2 0.12647226E+00 0.14741096E+04</pdfrwt>
<totfact> 0.19846864E+01</totfact>
</mgrwt>
</event>
<event>
 6    1  0.1014650E-006  0.2592791E+04  0.7818608E-02  0.8370654E-01
          1   -1    0    0  501    0  0.00000000000E+00  0.00000000000E+00  0.41375314816E+04  0.41375314816E+04  0.00000000000E+00 0. -1.
         -1   -1    0    0    0  501 -0.00000000000E+00 -0.00000000000E+00 -0.40619427242E+03  0.40619427242E+03  0.00000000000E+00 0.  1.
         23    2    1    2    0    0 -0.87266095937E+03 -0.31647952867E+03  0.34499824606E+04  0.35737479519E+04  0.87172261141E+02 0.  0.
         11    1    3    3    0    0 -0.63777172946E+03 -0.21522456675E+03  0.26319151098E+04  0.27166250272E+04  0.00000000000E+00 0. -1.
        -11    1    3    3    0    0 -0.23488922991E+03 -0.10125496193E+03  0.81806735077E+03  0.85712292469E+03  0.00000000000E+00 0.  1.
         22    1    1    2    0    0  0.87266095937E+03  0.31647952867E+03  0.28135474859E+03  0.96997780213E+03  0.00000000000E+00 0.  1.
<mgrwt>
<rscale>  0 0.25927912E+04</rscale>
<asrwt>0</asrwt>
<pdfrwt beam="1">  1        1 0.63654328E+00 0.25927912E+04</pdfrwt>
<pdfrwt beam="2">  1       -1 0.62491429E-01 0.25927912E+04</pdfrwt>
<totfact> 0.16569273E-01</totfact>
</mgrwt>
</event>
<event>
 6    1  0.1014650E-006  0.3023257E+04  0.7818608E-02  0.8237121E-01
         -2   -1    0    0    0  501 -0.00000000000E+00  0.00000000000E+00  0.89600126048E+03  0.89600126048E+03  0.00000000000E+00 0.  1.
          2   -1    0    0  501    0  0.00000000000E+00 -0.00000000000E+00 -0.25502423546E+04  0.25502423546E+04  0.00000000000E+00 0. -1.
         23    2    1    2    0    0 -0.30028295452E+03  0.97348597340E+02 -0.25114033834E+04  0.25328029809E+04  0.91089976372E+02 0.  0.
         13    1    3    3    0    0 -0.17940742097E+02 -0.15551808432E+02 -0.23054930346E+03  0.23176865685E+03  0.00000000000E+00 0. -1.
        -13    1    3    3    0    0 -0.28234221242E+03  0.11290040577E+03 -0.22808540799E+04  0.23010343241E+04  0.00000000000E+00 0.  1.
         22    1    1    2    0    0  0.30028295452E+03 -0.97348597340E+02  0.85716228922E+03  0.91344063422E+03  0.00000000000E+00 0.  1.
<mgrwt>
<rscale>  0 0.30232568E+04</rscale>
<asrwt>0</asrwt>
<pdfrwt beam="1">  1        2 0.39234497E+00 0.30232568E+04</pdfrwt>
<pdfrwt beam="2">  1       -2 0.13784635E+00 0.30232568E+04</pdfrwt>
<totfact> 0.10394124E+00</totfact>
</mgrwt>
</event>
<event>
 6    1  0.1014650E-006  0.2222873E+04  0.7818608E-02  0.8508968E-01
          2   -1    0    0  501    0  0.00000000000E+00  0.00000000000E+00  0.21751687255E+04  0.21751687255E+04  0.00000000000E+00 0. -1.
         -2   -1    0    0    0  501 -0.00000000000E+00 -0.00000000000E+00 -0.56790598033E+03  0.56790598033E+03  0.00000000000E+00 0.  1.
         23    2    1    2    0    0  0.98632265665E+03  0.31511154707E+03  0.31379270875E+03  0.10862124891E+04  0.96249869120E+02 0.  0.
         13    1    3    3    0    0  0.20479596893E+03  0.27545822664E+02  0.76007932480E+02  0.22017576396E+03  0.00000000000E+00 0.  1.
        -13    1    3    3    0    0  0.78152668772E+03  0.28756572441E+03  0.23778477627E+03  0.86603672515E+03  0.00000000000E+00 0. -1.
         22    1    1    2    0    0 -0.98632265665E+03 -0.31511154707E+03  0.12934700365E+04  0.16568622168E+04  0.00000000000E+00 0. -1.
<mgrwt>
<rscale>  0 0.22228732E+04</rscale>
<asrwt>0</asrwt>
<pdfrwt beam="1">  1        2 0.33464134E+00 0.22228732E+04</pdfrwt>
<pdfrwt beam="2">  1       -2 0.87370152E-01 0.22228732E+04</pdfrwt>
<totfact> 0.55039370E+00</totfact>
</mgrwt>
</event>
<event>
 6    1  0.1014650E-006  0.3853033E+04  0.7818608E-02  0.8034869E-01
          2   -1    0    0  501    0  0.00000000000E+00  0.00000000000E+00  0.19203086002E+04  0.19203086002E+04  0.00000000000E+00 0. -1.
         -2   -1    0    0    0  501 -0.00000000000E+00 -0.00000000000E+00 -0.19327448981E+04  0.19327448981E+04  0.00000000000E+00 0.  1.
         23    2    1    2    0    0 -0.41945632838E+03 -0.10716429788E+04  0.15375270670E+04  0.19225746153E+04  0.89114443073E+02 0.  0.
         11    1    3    3    0    0 -0.93682594483E+02 -0.17543302966E+03  0.30740141102E+03  0.36612675933E+03  0.00000000000E+00 0. -1.
        -11    1    3    3    0    0 -0.32577373390E+03 -0.89620994917E+03  0.12301256560E+04  0.15564478559E+04  0.00000000000E+00 0.  1.
         22    1    1    2    0    0  0.41945632838E+03  0.10716429788E+04 -0.15499633649E+04  0.19304788831E+04  0.00000000000E+00 0. -1.
<mgrwt>
<rscale>  0 0.38530334E+04</rscale>
<asrwt>0</asrwt>
<pdfrwt beam="1">  1        2 0.29543209E+00 0.38530334E+04</pdfrwt>
<pdfrwt beam="2">  1       -2 0.29734537E+00 0.38530334E+04</pdfrwt>
<totfact> 0.19489607E-01</totfact>
</mgrwt>
</event>
<event>
 6    1  0.1014650E-006  0.2968408E+04  0.7818608E-02  0.8252810E-01
          4   -1    0    0  501    0  0.00000000000E+00  0.00000000000E+00  0.91076966525E+03  0.91076966525E+03  0.00000000000E+00 0. -1.
         -4   -1    0    0    0  501 -0.00000000000E+00 -0.00000000000E+00 -0.24186814581E+04  0.24186814581E+04  0.00000000000E+00 0.  1.
         23    2    1    2    0    0  0.72872921685E+03  0.28755117597E+03 -0.21668080831E+04  0.23057928447E+04  0.88833682469E+02 0.  0.
         11    1    3    3    0    0  0.15082269406E+03  0.83780119817E+02 -0.39581722332E+03  0.43178451546E+03  0.00000000000E+00 0.  1.
        -11    1    3    3    0    0  0.57790652279E+03  0.20377105615E+03 -0.17709908598E+04  0.18740083292E+04  0.00000000000E+00 0. -1.
         22    1    1    2    0    0 -0.72872921685E+03 -0.28755117597E+03  0.65889629023E+03  0.10236582787E+04  0.00000000000E+00 0. -1.
<mgrwt>
<rscale>  0 0.29684081E+04</rscale>
<asrwt>0</asrwt>
<pdfrwt beam="1">  1        4 0.14011841E+00 0.29684081E+04</pdfrwt>
<pdfrwt beam="2">  1       -4 0.37210484E+00 0.29684081E+04</pdfrwt>
<totfact> 0.64287302E-03</totfact>
</mgrwt>
</event>
<event>
 6    1  0.1014650E-006  0.2797090E+04  0.7818608E-02  0.8304173E-01
          2   -1    0    0  501    0  0.00000000000E+00  0.00000000000E+00  0.12346186875E+04  0.12346186875E+04  0.00000000000E+00 0. -1.
         -2   -1    0    0    0  501 -0.00000000000E+00 -0.00000000000E+00 -0.15842360480E+04  0.15842360480E+04  0.00000000000E+00 0.  1.
         23    2    1    2    0    0  0.90472632700E+03 -0.56792310282E+03  0.73247022143E+03  0.12983351162E+04  0.89972613846E+02 0.  0.
         11    1    3    3    0    0  0.51805828492E+03 -0.27242870547E+03  0.40354360485E+03  0.71094952504E+03  0.00000000000E+00 0.  1.
        -11    1    3    3    0    0  0.38666804209E+03 -0.29549439735E+03  0.32892661658E+03  0.58738559118E+03  0.00000000000E+00 0. -1.
         22    1    1    2    0    0 -0.90472632700E+03  0.56792310282E+03 -0.10820875820E+04  0.15205196192E+04  0.00000000000E+00 0. -1.
<mgrwt>
<rscale>  0 0.27970895E+04</rscale>
<asrwt>0</asrwt>
<pdfrwt beam="1">  1        2 0.18994134E+00 0.27970895E+04</pdfrwt>
<pdfrwt beam="2">  1       -2 0.24372862E+00 0.27970895E+04</pdfrwt>
<totfact> 0.11042912E+00</totfact>
</mgrwt>
</event>
<event>
 6    1  0.1014650E-006  0.3281107E+04  0.7818608E-02  0.8167719E-01
          1   -1    0    0  501    0  0.00000000000E+00  0.00000000000E+00  0.16312295592E+04  0.16312295592E+04  0.00000000000E+00 0. -1.
         -1   -1    0    0    0  501 -0.00000000000E+00 -0.00000000000E+00 -0.16499310994E+04  0.16499310994E+04  0.00000000000E+00 0.  1.
         23    2    1    2    0    0 -0.81231156239E+03 -0.14206829825E+04  0.86139085089E+02  0.16412881734E+04  0.90646098602E+02 0.  0.
         11    1    3    3    0    0 -0.73744923825E+03 -0.12949069489E+04  0.10418538952E+03  0.14938105572E+04  0.00000000000E+00 0.  1.
        -11    1    3    3    0    0 -0.74862324134E+02 -0.12577603354E+03 -0.18046304428E+02  0.14747761624E+03  0.00000000000E+00 0. -1.
         22    1    1    2    0    0  0.81231156239E+03  0.14206829825E+04 -0.10484062525E+03  0.16398724852E+04  0.00000000000E+00 0. -1.
<mgrwt>
<rscale>  0 0.32811074E+04</rscale>
<asrwt>0</asrwt>
<pdfrwt beam="1">  1        1 0.25095839E+00 0.32811074E+04</pdfrwt>
<pdfrwt beam="2">  1       -1 0.25383555E+00 0.32811074E+04</pdfrwt>
<totfact> 0.29045727E-01</totfact>
</mgrwt>
</event>
<event>
 6    1  0.1014650E-006  0.3148305E+04  0.7818608E-02  0.8202605E-01
         -1   -1    0    0    0  501 -0.00000000000E+00  0.00000000000E+00  0.21952680121E+04  0.21952680121E+04  0.00000000000E+00 0.  1.
          1   -1    0    0  501    0  0.00000000000E+00 -0.00000000000E+00 -0.11287715785E+04  0.11287715785E+04  0.00000000000E+00 0. -1.
         23    2    1    2    0    0 -0.82748966754E+03  0.84760635262E+03 -0.55880597439E+03  0.13128748543E+04  0.90557093808E+02 0.  0.
         11    1    3    3    0    0 -0.23210877166E+03  0.18748999070E+03 -0.15999508904E+03  0.33856374143E+03  0.00000000000E+00 0. -1.
        -11    1    3    3    0    0 -0.59538089588E+03  0.66011636192E+03 -0.39881088535E+03  0.97431111290E+03  0.00000000000E+00 0.  1.
         22    1    1    2    0    0  0.82748966754E+03 -0.84760635262E+03  0.16253024080E+04  0.20111647363E+04  0.00000000000E+00 0.  1.
<mgrwt>
<rscale>  0 0.31483050E+04</rscale>
<asrwt>0</asrwt>
<pdfrwt beam="1">  1        1 0.17365717E+00 0.31483050E+04</pdfrwt>
<pdfrwt beam="2">  1       -1 0.33773354E+00 0.31483050E+04</pdfrwt>
<totfact> 0.18979052E-01</totfact>
</mgrwt>
</event>
<event>
 6    1  0.1014650E-006  0.1770573E+04  0.7818608E-02  0.8722107E-01
          1   -1    0    0  501    0  0.00000000000E+00  0.00000000000E+00  0.11174700203E+04  0.11174700203E+04  0.00000000000E+00 0. -1.
         -1   -1    0    0    0  501 -0.00000000000E+00 -0.00000000000E+00 -0.70134514045E+03  0.70134514045E+03  0.00000000000E+00 0.  1.
         23    2    1    2    0    0 -0.31073994181E+03  0.56658935805E+03 -0.40967301070E+03  0.77023279961E+03  0.88565104871E+02 0.  0.
         13    1    3    3    0    0 -0.85506961412E+02  0.12113238107E+03 -0.13482575288E+03  0.20040578293E+03  0.00000000000E+00 0. -1.
        -13    1    3    3    0    0 -0.22523298040E+03  0.44545697698E+03 -0.27484725783E+03  0.56982701667E+03  0.00000000000E+00 0.  1.
         22    1    1    2    0    0  0.31073994181E+03 -0.56658935805E+03  0.82579789058E+03  0.10485823612E+04  0.00000000000E+00 0. -1.
<mgrwt>
<rscale>  0 0.17705730E+04</rscale>
<asrwt>0</asrwt>
<pdfrwt beam="1">  1        1 0.17191846E+00 0.17705730E+04</pdfrwt>
<pdfrwt beam="2">  1       -1 0.10789925E+00 0.17705730E+04</pdfrwt>
<totfact> 0.92956015E+00</totfact>
</mgrwt>
</event>
<event>
 6    1  0.1014650E-006  0.1783586E+04  0.7818608E-02  0.8715077E-01
         -1   -1    0    0    0  501 -0.00000000000E+00  0.00000000000E+00  0.86981546515E+03  0.86981546515E+03  0.00000000000E+00 0.  1.
          1   -1    0    0  501    0  0.00000000000E+00 -0.00000000000E+00 -0.91432537874E+03  0.91432537874E+03  0.00000000000E+00 0. -1.
         23    2    1    2    0    0 -0.76865502154E+03 -0.40506620139E+03 -0.21285312398E+03  0.89912750720E+03  0.90634718416E+02 0.  0.
         13    1    3    3    0    0 -0.26102751551E+03 -0.14591338438E+03 -0.29909482205E+02  0.30053395269E+03  0.00000000000E+00 0.  1.
        -13    1    3    3    0    0 -0.50762750603E+03 -0.25915281700E+03 -0.18294364177E+03  0.59859355451E+03  0.00000000000E+00 0. -1.
         22    1    1    2    0    0  0.76865502154E+03  0.40506620139E+03  0.16834321039E+03  0.88501333669E+03  0.00000000000E+00 0.  1.
<mgrwt>
<rscale>  0 0.17835856E+04</rscale>
<asrwt>0</asrwt>
<pdfrwt beam="1">  1        1 0.14066544E+00 0.17835856E+04</pdfrwt>
<pdfrwt beam="2">  1       -1 0.13381776E+00 0.17835856E+04</pdfrwt>
<totfact> 0.78865311E+00</totfact>
</mgrwt>
</event>
<event>
 6    1  0.1014650E-006  0.2634377E+04  0.7818608E-02  0.8356617E-01
         -3   -1    0    0    0  501 -0.00000000000E+00  0.00000000000E+00  0.33999005748E+04  0.33999005748E+04  0.00000000000E+00 0.  1.
          3   -1    0    0  501    0  0.00000000000E+00 -0.00000000000E+00 -0.51030479195E+03  0.51030479195E+03  0.00000000000E+00 0. -1.
         23    2    1    2    0    0  0.23735031151E+03 -0.10322600913E+04  0.26043199610E+04  0.28132649122E+04  0.10040388573E+03 0.  0.
         13    1    3    3    0    0  0.22324597550E+02 -0.33084734707E+02  0.69366268214E+02  0.80029160263E+02  0.00000000000E+00 0.  1.
        -13    1    3    3    0    0  0.21502571396E+03 -0.99917535657E+03  0.25349536928E+04  0.27332357519E+04  0.00000000000E+00 0. -1.
         22    1    1    2    0    0 -0.23735031151E+03  0.10322600913E+04  0.28527582187E+03  0.10969404546E+04  0.00000000000E+00 0. -1.
<mgrwt>
<rscale>  0 0.26343770E+04</rscale>
<asrwt>0</asrwt>
<pdfrwt beam="1">  1        3 0.78508431E-01 0.26343770E+04</pdfrwt>
<pdfrwt beam="2">  1       -3 0.52306161E+00 0.26343770E+04</pdfrwt>
<totfact> 0.79991480E-03</totfact>
</mgrwt>
</event>
<event>
 6    1  0.1014650E-006  0.1781316E+04  0.7818608E-02  0.8716299E-01
         -1   -1    0    0    0  501 -0.00000000000E+00  0.00000000000E+00  0.87813923139E+03  0.87813923139E+03  0.00000000000E+00 0.  1.
          1   -1    0    0  501    0  0.00000000000E+00 -0.00000000000E+00 -0.90335497249E+03  0.90335497249E+03  0.00000000000E+00 0. -1.
         23    2    1    2    0    0 -0.26985961548E+03  0.72938288577E+03 -0.44193353609E+03  0.89918058232E+03  0.91634399547E+02 0.  0.
         11    1    3    3    0    0 -0.15234197605E+03  0.31046662890E+03 -0.16264024589E+03  0.38216417272E+03  0.00000000000E+00 0. -1.
        -11    1    3    3    0    0 -0.11751763943E+03  0.41891625687E+03 -0.27929329020E+03  0.51701640960E+03  0.00000000000E+00 0.  1.
         22    1    1    2    0    0  0.26985961548E+03 -0.72938288577E+03  0.41671779499E+03  0.88231362155E+03  0.00000000000E+00 0.  1.
<mgrwt>
<rscale>  0 0.17813157E+04</rscale>
<asrwt>0</asrwt>
<pdfrwt beam="1">  1        1 0.13897769E+00 0.17813157E+04</pdfrwt>
<pdfrwt beam="2">  1       -1 0.13509834E+00 0.17813157E+04</pdfrwt>
<totfact> 0.78584111E+00</totfact>
</mgrwt>
</event>
<event>
 6    1  0.1014650E-006  0.4088718E+04  0.7818608E-02  0.7986885E-01
          1   -1    0    0  501    0  0.00000000000E+00  0.00000000000E+00  0.18712172279E+04  0.18712172279E+04  0.00000000000E+00 0. -1.
         -1   -1    0    0    0  501 -0.00000000000E+00 -0.00000000000E+00 -0.22335210755E+04  0.22335210755E+04  0.00000000000E+00 0.  1.
         23    2    1    2    0    0 -0.23339714955E+03 -0.15298228845E+04  0.11582960443E+04  0.19351631562E+04  0.91511897822E+02 0.  0.
         11    1    3    3    0    0 -0.16886565505E+03 -0.96553520706E+03  0.68473969208E+03  0.11956764995E+04  0.00000000000E+00 0.  1.
        -11    1    3    3    0    0 -0.64531494502E+02 -0.56428767749E+03  0.47355635226E+03  0.73948665675E+03  0.00000000000E+00 0. -1.
         22    1    1    2    0    0  0.23339714955E+03  0.15298228845E+04 -0.15205998919E+04  0.21695751471E+04  0.00000000000E+00 0.  1.
<mgrwt>
<rscale>  0 0.40887177E+04</rscale>
<asrwt>0</asrwt>
<pdfrwt beam="1">  1        1 0.28787957E+00 0.40887177E+04</pdfrwt>
<pdfrwt beam="2">  1       -1 0.34361863E+00 0.40887177E+04</pdfrwt>
<totfact> 0.48481392E-02</totfact>
</mgrwt>
</event>
<event>
 6    1  0.1014650E-006  0.2601876E+04  0.7818608E-02  0.8367564E-01
          1   -1    0    0  501    0  0.00000000000E+00  0.00000000000E+00  0.25415497403E+04  0.25415497403E+04  0.00000000000E+00 0. -1.
         -1   -1    0    0    0  501 -0.00000000000E+00 -0.00000000000E+00 -0.66590853716E+03  0.66590853716E+03  0.00000000000E+00 0.  1.
         23    2    1    2    0    0 -0.15456495524E+03  0.70485796274E+03  0.22709682535E+04  0.23846590615E+04  0.92665842144E+02 0.  0.
         13    1    3    3    0    0 -0.98141508797E+02  0.46595559926E+03  0.16360907496E+04  0.17039774990E+04  0.00000000000E+00 0. -1.
        -13    1    3    3    0    0 -0.56423446447E+02  0.23890236348E+03  0.63487750389E+03  0.68068156250E+03  0.00000000000E+00 0.  1.
         22    1    1    2    0    0  0.15456495524E+03 -0.70485796274E+03 -0.39532705035E+03  0.82279921595E+03  0.00000000000E+00 0.  1.
<mgrwt>
<rscale>  0 0.26018760E+04</rscale>
<asrwt>0</asrwt>
<pdfrwt beam="1">  1        1 0.39100765E+00 0.26018760E+04</pdfrwt>
<pdfrwt beam="2">  1       -1 0.10244747E+00 0.26018760E+04</pdfrwt>
<totfact> 0.10058022E+00</totfact>
</mgrwt>
</event>
<event>
 6    1  0.1014650E-006  0.1989755E+04  0.7818608E-02  0.8611426E-01
         -2   -1    0    0    0  501 -0.00000000000E+00  0.00000000000E+00  0.31484993055E+03  0.31484993055E+03  0.00000000000E+00 0.  1.
          2   -1    0    0  501    0  0.00000000000E+00 -0.00000000000E+00 -0.31436593882E+04  0.31436593882E+04  0.00000000000E+00 0. -1.
         23    2    1    2    0    0 -0.60614995320E+03 -0.28393444753E+03 -0.14325780494E+03  0.69079831223E+03  0.92967592430E+02 0.  0.
         11    1    3    3    0    0 -0.14058826239E+03 -0.68116599595E+02 -0.74448340233E+02  0.17305341957E+03  0.00000000000E+00 0.  1.
        -11    1    3    3    0    0 -0.46556169081E+03 -0.21581784794E+03 -0.68809464705E+02  0.51774489266E+03  0.00000000000E+00 0. -1.
         22    1    1    2    0    0  0.60614995320E+03  0.28393444753E+03 -0.26855516527E+04  0.27677110065E+04  0.00000000000E+00 0. -1.
<mgrwt>
<rscale>  0 0.19897547E+04</rscale>
<asrwt>0</asrwt>
<pdfrwt beam="1">  1        2 0.48363993E+00 0.19897547E+04</pdfrwt>
<pdfrwt beam="2">  1       -2 0.48438449E-01 0.19897547E+04</pdfrwt>
<totfact> 0.53125951E+00</totfact>
</mgrwt>
</event>
<event>
 6    1  0.1014650E-006  0.2747612E+04  0.7818608E-02  0.8319720E-01
         -2   -1    0    0    0  501 -0.00000000000E+00  0.00000000000E+00  0.98496175862E+03  0.98496175862E+03  0.00000000000E+00 0.  1.
          2   -1    0    0  501    0  0.00000000000E+00 -0.00000000000E+00 -0.19161589411E+04  0.19161589411E+04  0.00000000000E+00 0. -1.
         23    2    1    2    0    0  0.60360127645E+03 -0.32190466467E+03 -0.17222784444E+04  0.18552876934E+04  0.88838455451E+02 0.  0.
         13    1    3    3    0    0  0.32497919409E+03 -0.21315689837E+03 -0.90126403705E+03  0.98149080708E+03  0.00000000000E+00 0.  1.
        -13    1    3    3    0    0  0.27862208236E+03 -0.10874776630E+03 -0.82101440740E+03  0.87379688636E+03  0.00000000000E+00 0. -1.
         22    1    1    2    0    0 -0.60360127645E+03  0.32190466467E+03  0.79108126195E+03  0.10458330063E+04  0.00000000000E+00 0.  1.
<mgrwt>
<rscale>  0 0.27476123E+04</rscale>
<asrwt>0</asrwt>
<pdfrwt beam="1">  1        2 0.29479368E+00 0.27476123E+04</pdfrwt>
<pdfrwt beam="2">  1       -2 0.15153258E+00 0.27476123E+04</pdfrwt>
<totfact> 0.18958444E+00</totfact>
</mgrwt>
</event>
<event>
 6    1  0.1014650E-006  0.1147869E+04  0.7818608E-02  0.9159752E-01
         -1   -1    0    0    0  501 -0.00000000000E+00  0.00000000000E+00  0.63696441242E+03  0.63696441242E+03  0.00000000000E+00 0.  1.
          1   -1    0    0  501    0  0.00000000000E+00 -0.00000000000E+00 -0.51714135639E+03  0.51714135639E+03  0.00000000000E+00 0. -1.
         23    2    1    2    0    0  0.58485335583E+02  0.45492864982E+03 -0.28043348609E+03  0.54534809090E+03  0.91547742889E+02 0.  0.
         13    1    3    3    0    0  0.26991654156E+01  0.21390487203E+03 -0.17516489340E+03  0.27648746744E+03  0.00000000000E+00 0. -1.
        -13    1    3    3    0    0  0.55786170167E+02  0.24102377779E+03 -0.10526859269E+03  0.26886062346E+03  0.00000000000E+00 0.  1.
         22    1    1    2    0    0 -0.58485335583E+02 -0.45492864982E+03  0.40025654211E+03  0.60875767791E+03  0.00000000000E+00 0.  1.
<mgrwt>
<rscale>  0 0.11478687E+04</rscale>
<asrwt>0</asrwt>
<pdfrwt beam="1">  1        1 0.79560209E-01 0.11478687E+04</pdfrwt>
<pdfrwt beam="2">  1       -1 0.97994524E-01 0.11478687E+04</pdfrwt>
<totfact> 0.41961063E+01</totfact>
</mgrwt>
</event>
<event>
 6    1  0.1014650E-006  0.4200533E+04  0.7818608E-02  0.7965271E-01
         -2   -1    0    0    0  501 -0.00000000000E+00  0.00000000000E+00  0.14135762669E+04  0.14135762669E+04  0.00000000000E+00 0.  1.
          2   -1    0    0  501    0  0.00000000000E+00 -0.00000000000E+00 -0.31205392807E+04  0.31205392807E+04  0.00000000000E+00 0. -1.
         23    2    1    2    0    0 -0.75369066121E+03 -0.13746456621E+04 -0.23609015855E+04  0.28354878766E+04  0.91841671901E+02 0.  0.
         11    1    3    3    0    0 -0.22667092409E+03 -0.35111202077E+03 -0.58017616368E+03  0.71502709030E+03  0.00000000000E+00 0. -1.
        -11    1    3    3    0    0 -0.52701973712E+03 -0.10235336413E+04 -0.17807254218E+04  0.21204607863E+04  0.00000000000E+00 0.  1.
         22    1    1    2    0    0  0.75369066121E+03  0.13746456621E+04  0.65393857179E+03  0.16986276710E+04  0.00000000000E+00 0.  1.
<mgrwt>
<rscale>  0 0.42005334E+04</rscale>
<asrwt>0</asrwt>
<pdfrwt beam="1">  1        2 0.48008296E+00 0.42005334E+04</pdfrwt>
<pdfrwt beam="2">  1       -2 0.21747328E+00 0.42005334E+04</pdfrwt>
<totfact> 0.11612619E-01</totfact>
</mgrwt>
</event>
<event>
 6    1  0.1014650E-006  0.1042955E+04  0.7818608E-02  0.9262648E-01
         -2   -1    0    0    0  501 -0.00000000000E+00  0.00000000000E+00  0.15746428649E+03  0.15746428649E+03  0.00000000000E+00 0.  1.
          2   -1    0    0  501    0  0.00000000000E+00 -0.00000000000E+00 -0.17269854428E+04  0.17269854428E+04  0.00000000000E+00 0. -1.
         23    2    1    2    0    0 -0.99156085397E+00  0.41423492297E+03 -0.23012264911E+03  0.48245831858E+03  0.90653411028E+02 0.  0.
         11    1    3    3    0    0  0.17833175577E+02  0.31951336862E+03 -0.21289945939E+03  0.38436050095E+03  0.00000000000E+00 0.  1.
        -11    1    3    3    0    0 -0.18824736431E+02  0.94721554345E+02 -0.17223189717E+02  0.98097817628E+02  0.00000000000E+00 0. -1.
         22    1    1    2    0    0  0.99156085397E+00 -0.41423492297E+03 -0.13393985072E+04  0.14019914107E+04  0.00000000000E+00 0. -1.
<mgrwt>
<rscale>  0 0.10429545E+04</rscale>
<asrwt>0</asrwt>
<pdfrwt beam="1">  1        2 0.26569009E+00 0.10429545E+04</pdfrwt>
<pdfrwt beam="2">  1       -2 0.24225273E-01 0.10429545E+04</pdfrwt>
<totfact> 0.14337410E+02</totfact>
</mgrwt>
</event>
<event>
 6    1  0.1014650E-006  0.5560068E+04  0.7818608E-02  0.7747477E-01
          1   -1    0    0  501    0  0.00000000000E+00  0.00000000000E+00  0.17958296429E+04  0.17958296429E+04  0.00000000000E+00 0. -1.
         -1   -1    0    0    0  501 -0.00000000000E+00 -0.00000000000E+00 -0.43036316925E+04  0.43036316925E+04  0.00000000000E+00 0.  1.
         23    2    1    2    0    0 -0.18722142084E+04  0.19413266953E+04 -0.51819791456E+03  0.27479750988E+04  0.94354041240E+02 0.  0.
         11    1    3    3    0    0 -0.83685715482E+03  0.87422710045E+03 -0.18499055417E+03  0.12242648512E+04  0.00000000000E+00 0.  1.
        -11    1    3    3    0    0 -0.10353570536E+04  0.10670995948E+04 -0.33320736038E+03  0.15237102476E+04  0.00000000000E+00 0. -1.
         22    1    1    2    0    0  0.18722142084E+04 -0.19413266953E+04 -0.19896041350E+04  0.33514862366E+04  0.00000000000E+00 0.  1.
<mgrwt>
<rscale>  0 0.55600681E+04</rscale>
<asrwt>0</asrwt>
<pdfrwt beam="1">  1        1 0.27628149E+00 0.55600681E+04</pdfrwt>
<pdfrwt beam="2">  1       -1 0.66209717E+00 0.55600681E+04</pdfrwt>
<totfact> 0.77001338E-04</totfact>
</mgrwt>
</event>
<event>
 6    1  0.1014650E-006  0.2881896E+04  0.7818608E-02  0.8278284E-01
          2   -1    0    0  501    0  0.00000000000E+00  0.00000000000E+00  0.22405961803E+04  0.22405961803E+04  0.00000000000E+00 0. -1.
         -2   -1    0    0    0  501 -0.00000000000E+00 -0.00000000000E+00 -0.92668679367E+03  0.92668679367E+03  0.00000000000E+00 0.  1.
         23    2    1    2    0    0 -0.48457141029E+03  0.10410052764E+04  0.16118052523E+04  0.19810100779E+04  0.89349426456E+02 0.  0.
         13    1    3    3    0    0 -0.19344257616E+03  0.31682978044E+03  0.51534718391E+03  0.63512507431E+03  0.00000000000E+00 0. -1.
        -13    1    3    3    0    0 -0.29112883412E+03  0.72417549601E+03  0.10964580684E+04  0.13458850036E+04  0.00000000000E+00 0.  1.
         22    1    1    2    0    0  0.48457141029E+03 -0.10410052764E+04 -0.29789586567E+03  0.11862728961E+04  0.00000000000E+00 0.  1.
<mgrwt>
<rscale>  0 0.28818958E+04</rscale>
<asrwt>0</asrwt>
<pdfrwt beam="1">  1        2 0.34470710E+00 0.28818958E+04</pdfrwt>
<pdfrwt beam="2">  1       -2 0.14256720E+00 0.28818958E+04</pdfrwt>
<totfact> 0.14502705E+00</totfact>
</mgrwt>
</event>
<event>
 6    1  0.1014650E-006  0.2162348E+04  0.7818608E-02  0.8534265E-01
          2   -1    0    0  501    0  0.00000000000E+00  0.00000000000E+00  0.20485010034E+04  0.20485010034E+04  0.00000000000E+00 0. -1.
         -2   -1    0    0    0  501 -0.00000000000E+00 -0.00000000000E+00 -0.57063078243E+03  0.57063078243E+03  0.00000000000E+00 0.  1.
         23    2    1    2    0    0  0.15726668418E+03 -0.59036125694E+03  0.18178928266E+04  0.19199361079E+04  0.90338839644E+02 0.  0.
         11    1    3    3    0    0  0.10334696808E+03 -0.23871859525E+03  0.83914116189E+03  0.87853574379E+03  0.00000000000E+00 0. -1.
        -11    1    3    3    0    0  0.53919716101E+02 -0.35164266170E+03  0.97875166469E+03  0.10414003641E+04  0.00000000000E+00 0.  1.
         22    1    1    2    0    0 -0.15726668418E+03  0.59036125694E+03 -0.34002260561E+03  0.69919567789E+03  0.00000000000E+00 0.  1.
<mgrwt>
<rscale>  0 0.21623485E+04</rscale>
<asrwt>0</asrwt>
<pdfrwt beam="1">  1        2 0.31515400E+00 0.21623485E+04</pdfrwt>
<pdfrwt beam="2">  1       -2 0.87789352E-01 0.21623485E+04</pdfrwt>
<totfact> 0.64411808E+00</totfact>
</mgrwt>
</event>
<event>
 6    1  0.1014650E-006  0.3648568E+04  0.7818608E-02  0.8079456E-01
          1   -1    0    0  501    0  0.00000000000E+00  0.00000000000E+00  0.16303676347E+04  0.16303676347E+04  0.00000000000E+00 0. -1.
         -1   -1    0    0    0  501 -0.00000000000E+00 -0.00000000000E+00 -0.20412648752E+04  0.20412648752E+04  0.00000000000E+00 0.  1.
         23    2    1    2    0    0  0.11605655243E+04 -0.13781638836E+04 -0.48592673330E+03  0.18683362361E+04  0.91145349978E+02 0.  0.
         13    1    3    3    0    0  0.36246095801E+03 -0.37210799842E+03 -0.12229655978E+03  0.53366539808E+03  0.00000000000E+00 0. -1.
        -13    1    3    3    0    0  0.79810456627E+03 -0.10060558852E+04 -0.36363017352E+03  0.13346708380E+04  0.00000000000E+00 0.  1.
         22    1    1    2    0    0 -0.11605655243E+04  0.13781638836E+04  0.75029492790E+02  0.18032962738E+04  0.00000000000E+00 0. -1.
<mgrwt>
<rscale>  0 0.36485680E+04</rscale>
<asrwt>0</asrwt>
<pdfrwt beam="1">  1        1 0.25082579E+00 0.36485680E+04</pdfrwt>
<pdfrwt beam="2">  1       -1 0.31404075E+00 0.36485680E+04</pdfrwt>
<totfact> 0.11468546E-01</totfact>
</mgrwt>
</event>
<event>
 6    1  0.1014650E-006  0.3311087E+04  0.7818608E-02  0.8160080E-01
         -1   -1    0    0    0  501 -0.00000000000E+00  0.00000000000E+00  0.64773594687E+03  0.64773594687E+03  0.00000000000E+00 0.  1.
          1   -1    0    0  501    0  0.00000000000E+00 -0.00000000000E+00 -0.42313917100E+04  0.42313917100E+04  0.00000000000E+00 0. -1.
         23    2    1    2    0    0 -0.88406732863E+03 -0.38018729170E+03 -0.37759944983E+04  0.38977451589E+04  0.90362903400E+02 0.  0.
         11    1    3    3    0    0 -0.20797796400E+03 -0.97383285049E+02 -0.75651159774E+03  0.79059985785E+03  0.00000000000E+00 0.  1.
        -11    1    3    3    0    0 -0.67608936463E+03 -0.28280400665E+03 -0.30194829005E+04  0.31071453010E+04  0.00000000000E+00 0. -1.
         22    1    1    2    0    0  0.88406732863E+03  0.38018729170E+03  0.19233873514E+03  0.98138249799E+03  0.00000000000E+00 0.  1.
<mgrwt>
<rscale>  0 0.33110871E+04</rscale>
<asrwt>0</asrwt>
<pdfrwt beam="1">  1        1 0.65098333E+00 0.33110871E+04</pdfrwt>
<pdfrwt beam="2">  1       -1 0.99651686E-01 0.33110871E+04</pdfrwt>
<totfact> 0.46963735E-02</totfact>
</mgrwt>
</event>
<event>
 6    1  0.1014650E-006  0.8274596E+03  0.7818608E-02  0.9521099E-01
          2   -1    0    0  501    0  0.00000000000E+00  0.00000000000E+00  0.57739886698E+03  0.57739886698E+03  0.00000000000E+00 0. -1.
         -2   -1    0    0    0  501 -0.00000000000E+00 -0.00000000000E+00 -0.29645423268E+03  0.29645423268E+03  0.00000000000E+00 0.  1.
         23    2    1    2    0    0 -0.24286000116E+03 -0.13460230799E+03 -0.17382956386E+03  0.34101322429E+03  0.94734050862E+02 0.  0.
         13    1    3    3    0    0 -0.15931991601E+03 -0.11935197094E+03 -0.80217280514E+02  0.21462185512E+03  0.00000000000E+00 0. -1.
        -13    1    3    3    0    0 -0.83540085156E+02 -0.15250337044E+02 -0.93612283342E+02  0.12639136917E+03  0.00000000000E+00 0.  1.
         22    1    1    2    0    0  0.24286000116E+03  0.13460230799E+03  0.45477419816E+03  0.53283987537E+03  0.00000000000E+00 0. -1.
<mgrwt>
<rscale>  0 0.82745958E+03</rscale>
<asrwt>0</asrwt>
<pdfrwt beam="1">  1        2 0.88830594E-01 0.82745958E+03</pdfrwt>
<pdfrwt beam="2">  1       -2 0.45608344E-01 0.82745958E+03</pdfrwt>
<totfact> 0.23818107E+02</totfact>
</mgrwt>
</event>
<event>
 6    1  0.1014650E-006  0.1265046E+04  0.7818608E-02  0.9057753E-01
         -4   -1    0    0    0  501 -0.00000000000E+00  0.00000000000E+00  0.12725482581E+03  0.12725482581E+03  0.00000000000E+00 0.  1.
          4   -1    0    0  501    0  0.00000000000E+00 -0.00000000000E+00 -0.31439679310E+04  0.31439679310E+04  0.00000000000E+00 0. -1.
         23    2    1    2    0    0 -0.38015596136E+03  0.42477648228E+03 -0.22033206960E+04  0.22779650731E+04  0.97719855508E+02 0.  0.
         13    1    3    3    0    0 -0.27032633748E+03  0.33582016222E+03 -0.15072680378E+04  0.15677080238E+04  0.00000000000E+00 0. -1.
        -13    1    3    3    0    0 -0.10982962388E+03  0.88956320064E+02 -0.69605265815E+03  0.71025704930E+03  0.00000000000E+00 0.  1.
         22    1    1    2    0    0  0.38015596136E+03 -0.42477648228E+03 -0.81339240920E+03  0.99325768369E+03  0.00000000000E+00 0.  1.
<mgrwt>
<rscale>  0 0.12650456E+04</rscale>
<asrwt>0</asrwt>
<pdfrwt beam="1">  1        4 0.48368742E+00 0.12650456E+04</pdfrwt>
<pdfrwt beam="2">  1       -4 0.19577664E-01 0.12650456E+04</pdfrwt>
<totfact> 0.79702352E-02</totfact>
</mgrwt>
</event>
<event>
 6    1  0.1014650E-006  0.2721759E+04  0.7818608E-02  0.8327979E-01
         -1   -1    0    0    0  501 -0.00000000000E+00  0.00000000000E+00  0.13849440382E+04  0.13849440382E+04  0.00000000000E+00 0.  1.
          1   -1    0    0  501    0  0.00000000000E+00 -0.00000000000E+00 -0.13372331309E+04  0.13372331309E+04  0.00000000000E+00 0. -1.
         23    2    1    2    0    0 -0.11619119176E+04  0.36642947237E+03  0.62705671556E+03  0.13731214148E+04  0.89176413957E+02 0.  0.
         11    1    3    3    0    0 -0.70881253826E+03  0.18396153108E+03  0.40079926879E+03  0.83480363750E+03  0.00000000000E+00 0.  1.
        -11    1    3    3    0    0 -0.45309937936E+03  0.18246794130E+03  0.22625744676E+03  0.53831777733E+03  0.00000000000E+00 0. -1.
         22    1    1    2    0    0  0.11619119176E+04 -0.36642947237E+03 -0.57934580834E+03  0.13490557543E+04  0.00000000000E+00 0. -1.
<mgrwt>
<rscale>  0 0.27217590E+04</rscale>
<asrwt>0</asrwt>
<pdfrwt beam="1">  1        1 0.20572817E+00 0.27217590E+04</pdfrwt>
<pdfrwt beam="2">  1       -1 0.21306831E+00 0.27217590E+04</pdfrwt>
<totfact> 0.90880864E-01</totfact>
</mgrwt>
</event>
<event>
 6    1  0.1014650E-006  0.3772230E+04  0.7818608E-02  0.8052141E-01
          1   -1    0    0  501    0  0.00000000000E+00  0.00000000000E+00  0.19843771632E+04  0.19843771632E+04  0.00000000000E+00 0. -1.
         -1   -1    0    0    0  501 -0.00000000000E+00 -0.00000000000E+00 -0.17927181523E+04  0.17927181523E+04  0.00000000000E+00 0.  1.
         23    2    1    2    0    0 -0.75507669536E+03 -0.94544662548E+02 -0.16309239295E+04  0.18020287131E+04  0.91187224692E+02 0.  0.
         11    1    3    3    0    0 -0.41725249289E+03 -0.72993179885E+02 -0.10003797188E+04  0.10863642248E+04  0.00000000000E+00 0.  1.
        -11    1    3    3    0    0 -0.33782420247E+03 -0.21551482663E+02 -0.63054421073E+03  0.71566448833E+03  0.00000000000E+00 0. -1.
         22    1    1    2    0    0  0.75507669536E+03  0.94544662548E+02  0.18225829404E+04  0.19750666024E+04  0.00000000000E+00 0. -1.
<mgrwt>
<rscale>  0 0.37722296E+04</rscale>
<asrwt>0</asrwt>
<pdfrwt beam="1">  1        1 0.30528879E+00 0.37722296E+04</pdfrwt>
<pdfrwt beam="2">  1       -1 0.27580279E+00 0.37722296E+04</pdfrwt>
<totfact> 0.11539441E-01</totfact>
</mgrwt>
</event>
<event>
 6    1  0.1014650E-006  0.2131613E+04  0.7818608E-02  0.8547444E-01
          2   -1    0    0  501    0  0.00000000000E+00  0.00000000000E+00  0.22109295931E+04  0.22109295931E+04  0.00000000000E+00 0. -1.
         -2   -1    0    0    0  501 -0.00000000000E+00 -0.00000000000E+00 -0.51378533008E+03  0.51378533008E+03  0.00000000000E+00 0.  1.
         23    2    1    2    0    0 -0.11675487413E+03 -0.52985572575E+02  0.22000857974E+04  0.22056876036E+04  0.90780598593E+02 0.  0.
         11    1    3    3    0    0 -0.61370426239E+02 -0.61386145220E+02  0.84550221452E+03  0.84994622347E+03  0.00000000000E+00 0. -1.
        -11    1    3    3    0    0 -0.55384447887E+02  0.84005726450E+01  0.13545835829E+04  0.13557413801E+04  0.00000000000E+00 0.  1.
         22    1    1    2    0    0  0.11675487413E+03  0.52985572575E+02 -0.50294153436E+03  0.51902731963E+03  0.00000000000E+00 0.  1.
<mgrwt>
<rscale>  0 0.21316127E+04</rscale>
<asrwt>0</asrwt>
<pdfrwt beam="1">  1        2 0.34014301E+00 0.21316127E+04</pdfrwt>
<pdfrwt beam="2">  1       -2 0.79043898E-01 0.21316127E+04</pdfrwt>
<totfact> 0.66454167E+00</totfact>
</mgrwt>
</event>
<event>
 6    1  0.1014650E-006  0.1102344E+04  0.7818608E-02  0.9202910E-01
          2   -1    0    0  501    0  0.00000000000E+00  0.00000000000E+00  0.62679875808E+03  0.62679875808E+03  0.00000000000E+00 0. -1.
         -2   -1    0    0    0  501 -0.00000000000E+00 -0.00000000000E+00 -0.48467011052E+03  0.48467011052E+03  0.00000000000E+00 0.  1.
         23    2    1    2    0    0  0.12377837311E+03 -0.40351134791E+03 -0.27988091079E+03  0.51461498289E+03  0.91393450814E+02 0.  0.
         11    1    3    3    0    0  0.55150383042E+01 -0.13759002060E+03 -0.11946123393E+03  0.18229760236E+03  0.00000000000E+00 0. -1.
        -11    1    3    3    0    0  0.11826333480E+03 -0.26592132731E+03 -0.16041967687E+03  0.33231738053E+03  0.00000000000E+00 0.  1.
         22    1    1    2    0    0 -0.12377837311E+03  0.40351134791E+03  0.42200955835E+03  0.59685388570E+03  0.00000000000E+00 0. -1.
<mgrwt>
<rscale>  0 0.11023441E+04</rscale>
<asrwt>0</asrwt>
<pdfrwt beam="1">  1        2 0.96430578E-01 0.11023441E+04</pdfrwt>
<pdfrwt beam="2">  1       -2 0.74564632E-01 0.11023441E+04</pdfrwt>
<totfact> 0.75558229E+01</totfact>
</mgrwt>
</event>
<event>
 6    1  0.1014650E-006  0.1934211E+04  0.7818608E-02  0.8638012E-01
          1   -1    0    0  501    0  0.00000000000E+00  0.00000000000E+00  0.41107487532E+04  0.41107487532E+04  0.00000000000E+00 0. -1.
         -1   -1    0    0    0  501 -0.00000000000E+00 -0.00000000000E+00 -0.22752373174E+03  0.22752373174E+03  0.00000000000E+00 0.  1.
         23    2    1    2    0    0  0.60802474777E+03 -0.15779835941E+02  0.26570561339E+03  0.66997727260E+03  0.91252263997E+02 0.  0.
         13    1    3    3    0    0  0.20626027275E+03 -0.18031070862E+02  0.46143216633E+02  0.21212641531E+03  0.00000000000E+00 0. -1.
        -13    1    3    3    0    0  0.40176447502E+03  0.22512349215E+01  0.21956239676E+03  0.45785085729E+03  0.00000000000E+00 0.  1.
         22    1    1    2    0    0 -0.60802474777E+03  0.15779835941E+02  0.36175194081E+04  0.36682952124E+04  0.00000000000E+00 0. -1.
<mgrwt>
<rscale>  0 0.19342108E+04</rscale>
<asrwt>0</asrwt>
<pdfrwt beam="1">  1        1 0.63242283E+00 0.19342108E+04</pdfrwt>
<pdfrwt beam="2">  1       -1 0.35003654E-01 0.19342108E+04</pdfrwt>
<totfact> 0.55871947E-01</totfact>
</mgrwt>
</event>
<event>
 6    1  0.1014650E-006  0.9828562E+03  0.7818608E-02  0.9327550E-01
         -1   -1    0    0    0  501 -0.00000000000E+00  0.00000000000E+00  0.23369455882E+03  0.23369455882E+03  0.00000000000E+00 0.  1.
          1   -1    0    0  501    0  0.00000000000E+00 -0.00000000000E+00 -0.10334068485E+04  0.10334068485E+04  0.00000000000E+00 0. -1.
         23    2    1    2    0    0 -0.43382484212E+03  0.13727759065E+03 -0.17847688357E+03  0.49704779858E+03  0.90296099451E+02 0.  0.
         13    1    3    3    0    0 -0.29152198298E+03  0.92599432567E+02 -0.73281622757E+02  0.31453126666E+03  0.00000000000E+00 0.  1.
        -13    1    3    3    0    0 -0.14230285913E+03  0.44678158080E+02 -0.10519526081E+03  0.18251653192E+03  0.00000000000E+00 0. -1.
         22    1    1    2    0    0  0.43382484212E+03 -0.13727759065E+03 -0.62123540612E+03  0.77005360875E+03  0.00000000000E+00 0. -1.
<mgrwt>
<rscale>  0 0.98285616E+03</rscale>
<asrwt>0</asrwt>
<pdfrwt beam="1">  1        1 0.15898567E+00 0.98285616E+03</pdfrwt>
<pdfrwt beam="2">  1       -1 0.35953008E-01 0.98285616E+03</pdfrwt>
<totfact> 0.10563351E+02</totfact>
</mgrwt>
</event>
<event>
 6    1  0.1014650E-006  0.2083858E+04  0.7818608E-02  0.8568388E-01
         -2   -1    0    0    0  501 -0.00000000000E+00  0.00000000000E+00  0.36145670204E+03  0.36145670204E+03  0.00000000000E+00 0.  1.
          2   -1    0    0  501    0  0.00000000000E+00 -0.00000000000E+00 -0.30034455463E+04  0.30034455463E+04  0.00000000000E+00 0. -1.
         23    2    1    2    0    0 -0.80626146348E+03 -0.54312311875E+03 -0.19196795308E+04  0.21537990265E+04  0.92954160754E+02 0.  0.
         13    1    3    3    0    0 -0.60090416770E+03 -0.38970055089E+03 -0.13238681476E+04  0.15051841118E+04  0.00000000000E+00 0.  1.
        -13    1    3    3    0    0 -0.20535729578E+03 -0.15342256786E+03 -0.59581138318E+03  0.64861491471E+03  0.00000000000E+00 0. -1.
         22    1    1    2    0    0  0.80626146348E+03  0.54312311875E+03 -0.72230931349E+03  0.12111032218E+04  0.00000000000E+00 0.  1.
<mgrwt>
<rscale>  0 0.20838575E+04</rscale>
<asrwt>0</asrwt>
<pdfrwt beam="1">  1        2 0.46206854E+00 0.20838575E+04</pdfrwt>
<pdfrwt beam="2">  1       -2 0.55608724E-01 0.20838575E+04</pdfrwt>
<totfact> 0.48668012E+00</totfact>
</mgrwt>
</event>
<event>
 6    1  0.1014650E-006  0.4008904E+04  0.7818608E-02  0.8002753E-01
          2   -1    0    0  501    0  0.00000000000E+00  0.00000000000E+00  0.13887526992E+04  0.13887526992E+04  0.00000000000E+00 0. -1.
         -2   -1    0    0    0  501 -0.00000000000E+00 -0.00000000000E+00 -0.28931202760E+04  0.28931202760E+04  0.00000000000E+00 0.  1.
         23    2    1    2    0    0 -0.86336628575E+03  0.29221661841E+03 -0.26580956398E+04  0.28115395644E+04  0.92143345742E+02 0.  0.
         13    1    3    3    0    0 -0.42695646148E+03  0.10640622406E+03 -0.13671023396E+04  0.14361695274E+04  0.00000000000E+00 0. -1.
        -13    1    3    3    0    0 -0.43640982427E+03  0.18581039436E+03 -0.12909933003E+04  0.13753700370E+04  0.00000000000E+00 0.  1.
         22    1    1    2    0    0  0.86336628575E+03 -0.29221661841E+03  0.11537280631E+04  0.14703334108E+04  0.00000000000E+00 0. -1.
<mgrwt>
<rscale>  0 0.40089044E+04</rscale>
<asrwt>0</asrwt>
<pdfrwt beam="1">  1        2 0.21365426E+00 0.40089044E+04</pdfrwt>
<pdfrwt beam="2">  1       -2 0.44509542E+00 0.40089044E+04</pdfrwt>
<totfact> 0.43299673E-02</totfact>
</mgrwt>
</event>
<event>
 6    1  0.1159671E-006  0.3860076E+04  0.7818608E-02  0.8033384E-01
          1   -1    0    0  501    0  0.00000000000E+00  0.00000000000E+00  0.21796020745E+04  0.21796020745E+04  0.00000000000E+00 0. -1.
         -1   -1    0    0    0  501 -0.00000000000E+00 -0.00000000000E+00 -0.17090486792E+04  0.17090486792E+04  0.00000000000E+00 0.  1.
         23    2    1    2    0    0  0.30847951163E+03  0.12318986989E+04 -0.12272524126E+04  0.17684435528E+04  0.92250212390E+02 0.  0.
         13    1    3    3    0    0  0.24131772453E+03  0.83324533287E+03 -0.87687424685E+03  0.12334668515E+04  0.00000000000E+00 0. -1.
        -13    1    3    3    0    0  0.67161787098E+02  0.39865336604E+03 -0.35037816576E+03  0.53497670131E+03  0.00000000000E+00 0.  1.
         22    1    1    2    0    0 -0.30847951163E+03 -0.12318986989E+04  0.16978058079E+04  0.21202072009E+04  0.00000000000E+00 0. -1.
<mgrwt>
<rscale>  0 0.38600757E+04</rscale>
<asrwt>0</asrwt>
<pdfrwt beam="1">  1        1 0.33532340E+00 0.38600757E+04</pdfrwt>
<pdfrwt beam="2">  1       -1 0.26293057E+00 0.38600757E+04</pdfrwt>
<totfact> 0.10227976E-01</totfact>
</mgrwt>
</event>
<event>
 6    1  0.1014650E-006  0.2258125E+04  0.7818608E-02  0.8494617E-01
         -2   -1    0    0    0  501 -0.00000000000E+00  0.00000000000E+00  0.52254882458E+03  0.52254882458E+03  0.00000000000E+00 0.  1.
          2   -1    0    0  501    0  0.00000000000E+00 -0.00000000000E+00 -0.24395463575E+04  0.24395463575E+04  0.00000000000E+00 0. -1.
         23    2    1    2    0    0  0.37221545513E+03  0.82549657813E+03 -0.78607413558E+02  0.91278623112E+03  0.83729521168E+02 0.  0.
         11    1    3    3    0    0  0.10450203249E+03  0.30405799399E+03 -0.54830225758E+02  0.32615685208E+03  0.00000000000E+00 0. -1.
        -11    1    3    3    0    0  0.26771342264E+03  0.52143858415E+03 -0.23777187800E+02  0.58662937904E+03  0.00000000000E+00 0.  1.
         22    1    1    2    0    0 -0.37221545513E+03 -0.82549657813E+03 -0.18383901194E+04  0.20493089510E+04  0.00000000000E+00 0. -1.
<mgrwt>
<rscale>  0 0.22581250E+04</rscale>
<asrwt>0</asrwt>
<pdfrwt beam="1">  1        2 0.37531482E+00 0.22581250E+04</pdfrwt>
<pdfrwt beam="2">  1       -2 0.80392128E-01 0.22581250E+04</pdfrwt>
<totfact> 0.46921296E+00</totfact>
</mgrwt>
</event>
<event>
 6    1  0.1014650E-006  0.6320346E+03  0.7818608E-02  0.9841086E-01
         -1   -1    0    0    0  501 -0.00000000000E+00  0.00000000000E+00  0.15214589129E+03  0.15214589129E+03  0.00000000000E+00 0.  1.
          1   -1    0    0  501    0  0.00000000000E+00 -0.00000000000E+00 -0.65638935352E+03  0.65638935352E+03  0.00000000000E+00 0. -1.
         23    2    1    2    0    0 -0.19864397457E+03  0.10667041315E+03  0.14084981693E+02  0.24328982779E+03  0.90296998423E+02 0.  0.
         11    1    3    3    0    0 -0.12127240323E+03  0.94984374477E+02 -0.24610266015E+02  0.15599580883E+03  0.00000000000E+00 0.  1.
        -11    1    3    3    0    0 -0.77371571334E+02  0.11686038675E+02  0.38695247708E+02  0.87294018958E+02  0.00000000000E+00 0. -1.
         22    1    1    2    0    0  0.19864397457E+03 -0.10667041315E+03 -0.51832844392E+03  0.56524541701E+03  0.00000000000E+00 0. -1.
<mgrwt>
<rscale>  0 0.63203463E+03</rscale>
<asrwt>0</asrwt>
<pdfrwt beam="1">  1        1 0.10098298E+00 0.63203463E+03</pdfrwt>
<pdfrwt beam="2">  1       -1 0.23407060E-01 0.63203463E+03</pdfrwt>
<totfact> 0.47553573E+02</totfact>
</mgrwt>
</event>
<event>
 6    1  0.1014650E-006  0.3993505E+04  0.7818608E-02  0.8005858E-01
          1   -1    0    0  501    0  0.00000000000E+00  0.00000000000E+00  0.20552957933E+04  0.20552957933E+04  0.00000000000E+00 0. -1.
         -1   -1    0    0    0  501 -0.00000000000E+00 -0.00000000000E+00 -0.19398762815E+04  0.19398762815E+04  0.00000000000E+00 0.  1.
         23    2    1    2    0    0  0.12881034792E+04  0.81214972285E+03  0.13482318192E+04  0.20359314232E+04  0.92141065548E+02 0.  0.
         11    1    3    3    0    0  0.37903791883E+03  0.28606932118E+03  0.39952031612E+03  0.62058189098E+03  0.00000000000E+00 0. -1.
        -11    1    3    3    0    0  0.90906556039E+03  0.52608040167E+03  0.94871150313E+03  0.14153495322E+04  0.00000000000E+00 0.  1.
         22    1    1    2    0    0 -0.12881034792E+04 -0.81214972285E+03 -0.12328123074E+04  0.19592406516E+04  0.00000000000E+00 0.  1.
<mgrwt>
<rscale>  0 0.39935045E+04</rscale>
<asrwt>0</asrwt>
<pdfrwt beam="1">  1        1 0.31619935E+00 0.39935045E+04</pdfrwt>
<pdfrwt beam="2">  1       -1 0.29844251E+00 0.39935045E+04</pdfrwt>
<totfact> 0.72343325E-02</totfact>
</mgrwt>
</event>
<event>
 6    1  0.1014650E-006  0.2496030E+04  0.7818608E-02  0.8404401E-01
         -1   -1    0    0    0  501 -0.00000000000E+00  0.00000000000E+00  0.20080537097E+04  0.20080537097E+04  0.00000000000E+00 0.  1.
          1   -1    0    0  501    0  0.00000000000E+00 -0.00000000000E+00 -0.77564755806E+03  0.77564755806E+03  0.00000000000E+00 0. -1.
         23    2    1    2    0    0  0.64299903110E+03  0.79927437448E+03  0.14070867683E+04  0.17431242174E+04  0.79382517720E+02 0.  0.
         13    1    3    3    0    0  0.27659751157E+03  0.40185698106E+03  0.64084856769E+03  0.80540803532E+03  0.00000000000E+00 0. -1.
        -13    1    3    3    0    0  0.36640151953E+03  0.39741739342E+03  0.76623820064E+03  0.93771618213E+03  0.00000000000E+00 0.  1.
         22    1    1    2    0    0 -0.64299903110E+03 -0.79927437448E+03 -0.17468061673E+03  0.10405770503E+04  0.00000000000E+00 0. -1.
<mgrwt>
<rscale>  0 0.24960304E+04</rscale>
<asrwt>0</asrwt>
<pdfrwt beam="1">  1        1 0.11933039E+00 0.24960304E+04</pdfrwt>
<pdfrwt beam="2">  1       -1 0.30893134E+00 0.24960304E+04</pdfrwt>
<totfact> 0.59660277E-01</totfact>
</mgrwt>
</event>
<event>
 6    1  0.1014650E-006  0.3990210E+03  0.7818608E-02  0.1044119E+00
          3   -1    0    0  501    0  0.00000000000E+00  0.00000000000E+00  0.25634642696E+03  0.25634642696E+03  0.00000000000E+00 0. -1.
         -3   -1    0    0    0  501 -0.00000000000E+00 -0.00000000000E+00 -0.15527597969E+03  0.15527597969E+03  0.00000000000E+00 0.  1.
         23    2    1    2    0    0  0.11579540842E+03  0.44981673109E+02  0.19924235853E+03  0.25328841886E+03  0.95003042943E+02 0.  0.
         11    1    3    3    0    0  0.52026181802E+02  0.50621876583E+02  0.16594819753E+03  0.18113006996E+03  0.00000000000E+00 0. -1.
        -11    1    3    3    0    0  0.63769226622E+02 -0.56402034746E+01  0.33294161008E+02  0.72158348903E+02  0.00000000000E+00 0.  1.
         22    1    1    2    0    0 -0.11579540842E+03 -0.44981673109E+02 -0.98171911260E+02  0.15833398779E+03  0.00000000000E+00 0.  1.
<mgrwt>
<rscale>  0 0.39902101E+03</rscale>
<asrwt>0</asrwt>
<pdfrwt beam="1">  1        3 0.39437912E-01 0.39902101E+03</pdfrwt>
<pdfrwt beam="2">  1       -3 0.23888612E-01 0.39902101E+03</pdfrwt>
<totfact> 0.27151376E+02</totfact>
</mgrwt>
</event>
<event>
 6    1  0.1014650E-006  0.3364492E+04  0.7818608E-02  0.8146676E-01
         -1   -1    0    0    0  501 -0.00000000000E+00  0.00000000000E+00  0.13170487104E+04  0.13170487104E+04  0.00000000000E+00 0.  1.
          1   -1    0    0  501    0  0.00000000000E+00 -0.00000000000E+00 -0.21487071511E+04  0.21487071511E+04  0.00000000000E+00 0. -1.
         23    2    1    2    0    0  0.39898811657E+02  0.15986660261E+04 -0.94965487007E+03  0.18622446718E+04  0.93732957809E+02 0.  0.
         13    1    3    3    0    0 -0.21741427438E+02  0.87135351877E+03 -0.49705241731E+03  0.10033896301E+04  0.00000000000E+00 0. -1.
        -13    1    3    3    0    0  0.61640239095E+02  0.72731250730E+03 -0.45260245277E+03  0.85885504167E+03  0.00000000000E+00 0.  1.
         22    1    1    2    0    0 -0.39898811657E+02 -0.15986660261E+04  0.11799642942E+03  0.16035111897E+04  0.00000000000E+00 0.  1.
<mgrwt>
<rscale>  0 0.33644922E+04</rscale>
<asrwt>0</asrwt>
<pdfrwt beam="1">  1        1 0.33057033E+00 0.33644922E+04</pdfrwt>
<pdfrwt beam="2">  1       -1 0.20262288E+00 0.33644922E+04</pdfrwt>
<totfact> 0.28128853E-01</totfact>
</mgrwt>
</event>
<event>
 6    1  0.1014650E-006  0.3242337E+04  0.7818608E-02  0.8177725E-01
         -2   -1    0    0    0  501 -0.00000000000E+00  0.00000000000E+00  0.81472356764E+03  0.81472356764E+03  0.00000000000E+00 0.  1.
          2   -1    0    0  501    0  0.00000000000E+00 -0.00000000000E+00 -0.32258646778E+04  0.32258646778E+04  0.00000000000E+00 0. -1.
         23    2    1    2    0    0  0.83246964131E+03 -0.18633255409E+03  0.50962593249E+03  0.99779255038E+03  0.90254407695E+02 0.  0.
         13    1    3    3    0    0  0.27700071832E+03 -0.19012526957E+02  0.17025221717E+03  0.32569416878E+03  0.00000000000E+00 0. -1.
        -13    1    3    3    0    0  0.55546892300E+03 -0.16732002713E+03  0.33937371532E+03  0.67209838160E+03  0.00000000000E+00 0.  1.
         22    1    1    2    0    0 -0.83246964131E+03  0.18633255409E+03 -0.29207670426E+04  0.30427956950E+04  0.00000000000E+00 0. -1.
<mgrwt>
<rscale>  0 0.32423374E+04</rscale>
<asrwt>0</asrwt>
<pdfrwt beam="1">  1        2 0.49628687E+00 0.32423374E+04</pdfrwt>
<pdfrwt beam="2">  1       -2 0.12534209E+00 0.32423374E+04</pdfrwt>
<totfact> 0.49785257E-01</totfact>
</mgrwt>
</event>
<event>
 6    1  0.1014650E-006  0.4401926E+04  0.7818608E-02  0.7928035E-01
          2   -1    0    0  501    0  0.00000000000E+00  0.00000000000E+00  0.20310362184E+04  0.20310362184E+04  0.00000000000E+00 0. -1.
         -2   -1    0    0    0  501 -0.00000000000E+00 -0.00000000000E+00 -0.23851062397E+04  0.23851062397E+04  0.00000000000E+00 0.  1.
         23    2    1    2    0    0  0.14733573396E+04  0.58216446010E+03 -0.17085732302E+04  0.23318257231E+04  0.92148854521E+02 0.  0.
         11    1    3    3    0    0  0.30564072470E+03  0.84541946607E+02 -0.31995337717E+03  0.45048169429E+03  0.00000000000E+00 0. -1.
        -11    1    3    3    0    0  0.11677166149E+04  0.49762251349E+03 -0.13886198530E+04  0.18813440288E+04  0.00000000000E+00 0.  1.
         22    1    1    2    0    0 -0.14733573396E+04 -0.58216446010E+03  0.13545032089E+04  0.20843167349E+04  0.00000000000E+00 0. -1.
<mgrwt>
<rscale>  0 0.44019256E+04</rscale>
<asrwt>0</asrwt>
<pdfrwt beam="1">  1        2 0.31246711E+00 0.44019256E+04</pdfrwt>
<pdfrwt beam="2">  1       -2 0.36693942E+00 0.44019256E+04</pdfrwt>
<totfact> 0.59549660E-02</totfact>
</mgrwt>
</event>
<event>
 6    1  0.1014650E-006  0.2748501E+04  0.7818608E-02  0.8319437E-01
          1   -1    0    0  501    0  0.00000000000E+00  0.00000000000E+00  0.25070770655E+04  0.25070770655E+04  0.00000000000E+00 0. -1.
         -1   -1    0    0    0  501 -0.00000000000E+00 -0.00000000000E+00 -0.75329347618E+03  0.75329347618E+03  0.00000000000E+00 0.  1.
         23    2    1    2    0    0  0.70809324618E+02  0.13422553141E+04  0.54756201339E+03  0.14543711566E+04  0.93316739469E+02 0.  0.
         11    1    3    3    0    0  0.78127692772E+02  0.82023146442E+03  0.36663629412E+03  0.90183466543E+03  0.00000000000E+00 0. -1.
        -11    1    3    3    0    0 -0.73183681540E+01  0.52202384968E+03  0.18092571927E+03  0.55253649114E+03  0.00000000000E+00 0.  1.
         22    1    1    2    0    0 -0.70809324618E+02 -0.13422553141E+04  0.12062215759E+04  0.18059993851E+04  0.00000000000E+00 0.  1.
<mgrwt>
<rscale>  0 0.27485013E+04</rscale>
<asrwt>0</asrwt>
<pdfrwt beam="1">  1        1 0.38570416E+00 0.27485013E+04</pdfrwt>
<pdfrwt beam="2">  1       -1 0.11589131E+00 0.27485013E+04</pdfrwt>
<totfact> 0.78442885E-01</totfact>
</mgrwt>
</event>
<event>
 6    1  0.1014650E-006  0.2085401E+04  0.7818608E-02  0.8567702E-01
          2   -1    0    0  501    0  0.00000000000E+00  0.00000000000E+00  0.10049224583E+04  0.10049224583E+04  0.00000000000E+00 0. -1.
         -2   -1    0    0    0  501 -0.00000000000E+00 -0.00000000000E+00 -0.10818986988E+04  0.10818986988E+04  0.00000000000E+00 0.  1.
         23    2    1    2    0    0  0.26163136648E+03  0.65673843038E+03  0.72572810224E+03  0.10171994485E+04  0.90868595932E+02 0.  0.
         11    1    3    3    0    0  0.85434549949E+02  0.22166484905E+03  0.30699023569E+03  0.38817183364E+03  0.00000000000E+00 0.  1.
        -11    1    3    3    0    0  0.17619681653E+03  0.43507358134E+03  0.41873786655E+03  0.62902761483E+03  0.00000000000E+00 0. -1.
         22    1    1    2    0    0 -0.26163136648E+03 -0.65673843038E+03 -0.80270434270E+03  0.10696217087E+04  0.00000000000E+00 0.  1.
<mgrwt>
<rscale>  0 0.20854010E+04</rscale>
<asrwt>0</asrwt>
<pdfrwt beam="1">  1        2 0.15460346E+00 0.20854010E+04</pdfrwt>
<pdfrwt beam="2">  1       -2 0.16644595E+00 0.20854010E+04</pdfrwt>
<totfact> 0.52134231E+00</totfact>
</mgrwt>
</event>
<event>
 6    1  0.1014650E-006  0.1735648E+04  0.7818608E-02  0.8741290E-01
          1   -1    0    0  501    0  0.00000000000E+00  0.00000000000E+00  0.21169416435E+04  0.21169416435E+04  0.00000000000E+00 0. -1.
         -1   -1    0    0    0  501 -0.00000000000E+00 -0.00000000000E+00 -0.35575759975E+03  0.35575759975E+03  0.00000000000E+00 0.  1.
         23    2    1    2    0    0  0.26669359711E+03 -0.23731982836E+02  0.20555492047E+04  0.20747802443E+04  0.87987770078E+02 0.  0.
         13    1    3    3    0    0  0.25055754612E+03 -0.44277562454E+02  0.17989558083E+04  0.18168603652E+04  0.00000000000E+00 0. -1.
        -13    1    3    3    0    0  0.16136050992E+02  0.20545579618E+02  0.25659339637E+03  0.25791987912E+03  0.00000000000E+00 0.  1.
         22    1    1    2    0    0 -0.26669359711E+03  0.23731982836E+02 -0.29436516091E+03  0.39791899893E+03  0.00000000000E+00 0.  1.
<mgrwt>
<rscale>  0 0.17356475E+04</rscale>
<asrwt>0</asrwt>
<pdfrwt beam="1">  1        1 0.32568332E+00 0.17356475E+04</pdfrwt>
<pdfrwt beam="2">  1       -1 0.54731940E-01 0.17356475E+04</pdfrwt>
<totfact> 0.79449679E+00</totfact>
</mgrwt>
</event>
<event>
 6    1  0.1014650E-006  0.2433226E+04  0.7818608E-02  0.8427168E-01
          1   -1    0    0  501    0  0.00000000000E+00  0.00000000000E+00  0.15702791988E+04  0.15702791988E+04  0.00000000000E+00 0. -1.
         -1   -1    0    0    0  501 -0.00000000000E+00 -0.00000000000E+00 -0.94260095613E+03  0.94260095613E+03  0.00000000000E+00 0.  1.
         23    2    1    2    0    0  0.48192233503E+03 -0.10303327347E+04 -0.12644836238E+03  0.11481305011E+04  0.91541126815E+02 0.  0.
         11    1    3    3    0    0  0.73526383792E+02 -0.15822891091E+03 -0.52963816384E+02  0.18233947243E+03  0.00000000000E+00 0. -1.
        -11    1    3    3    0    0  0.40839595124E+03 -0.87210382382E+03 -0.73484545995E+02  0.96579102864E+03  0.00000000000E+00 0.  1.
         22    1    1    2    0    0 -0.48192233503E+03  0.10303327347E+04  0.75412660503E+03  0.13647496538E+04  0.00000000000E+00 0. -1.
<mgrwt>
<rscale>  0 0.24332256E+04</rscale>
<asrwt>0</asrwt>
<pdfrwt beam="1">  1        1 0.24158142E+00 0.24332256E+04</pdfrwt>
<pdfrwt beam="2">  1       -1 0.14501553E+00 0.24332256E+04</pdfrwt>
<totfact> 0.19964319E+00</totfact>
</mgrwt>
</event>
<event>
 6    1  0.1014650E-006  0.3167574E+04  0.7818608E-02  0.8197434E-01
          2   -1    0    0  501    0  0.00000000000E+00  0.00000000000E+00  0.18775479838E+04  0.18775479838E+04  0.00000000000E+00 0. -1.
         -2   -1    0    0    0  501 -0.00000000000E+00 -0.00000000000E+00 -0.13359879550E+04  0.13359879550E+04  0.00000000000E+00 0.  1.
         23    2    1    2    0    0 -0.70164089618E+03 -0.87502173470E+03  0.14035095918E+04  0.17989971332E+04  0.92674309510E+02 0.  0.
         11    1    3    3    0    0 -0.43056898669E+03 -0.52602157630E+03  0.92114938537E+03  0.11448163788E+04  0.00000000000E+00 0. -1.
        -11    1    3    3    0    0 -0.27107190950E+03 -0.34900015839E+03  0.48236020641E+03  0.65418075438E+03  0.00000000000E+00 0.  1.
         22    1    1    2    0    0  0.70164089618E+03  0.87502173470E+03 -0.86194956302E+03  0.14145388056E+04  0.00000000000E+00 0.  1.
<mgrwt>
<rscale>  0 0.31675741E+04</rscale>
<asrwt>0</asrwt>
<pdfrwt beam="1">  1        2 0.28885354E+00 0.31675741E+04</pdfrwt>
<pdfrwt beam="2">  1       -2 0.20553661E+00 0.31675741E+04</pdfrwt>
<totfact> 0.80748761E-01</totfact>
</mgrwt>
</event>
<event>
 6    1  0.1014650E-006  0.3839667E+04  0.7818608E-02  0.8037696E-01
         -2   -1    0    0    0  501 -0.00000000000E+00  0.00000000000E+00  0.12721283694E+04  0.12721283694E+04  0.00000000000E+00 0.  1.
          2   -1    0    0  501    0  0.00000000000E+00 -0.00000000000E+00 -0.28973177045E+04  0.28973177045E+04  0.00000000000E+00 0. -1.
         23    2    1    2    0    0 -0.86415823610E+03 -0.14041520875E+02 -0.26732584180E+04  0.28109853921E+04  0.91442241880E+02 0.  0.
         13    1    3    3    0    0 -0.16004470719E+03 -0.12651010757E+02 -0.39423225761E+03  0.42566821506E+03  0.00000000000E+00 0.  1.
        -13    1    3    3    0    0 -0.70411352891E+03 -0.13905101180E+01 -0.22790261604E+04  0.23853171770E+04  0.00000000000E+00 0. -1.
         22    1    1    2    0    0  0.86415823610E+03  0.14041520875E+02  0.10480690830E+04  0.13584606818E+04  0.00000000000E+00 0.  1.
<mgrwt>
<rscale>  0 0.38396667E+04</rscale>
<asrwt>0</asrwt>
<pdfrwt beam="1">  1        2 0.44574118E+00 0.38396667E+04</pdfrwt>
<pdfrwt beam="2">  1       -2 0.19571206E+00 0.38396667E+04</pdfrwt>
<totfact> 0.22870868E-01</totfact>
</mgrwt>
</event>
<event>
 6    1  0.1014650E-006  0.1530658E+04  0.7818608E-02  0.8864318E-01
         -1   -1    0    0    0  501 -0.00000000000E+00  0.00000000000E+00  0.37790673131E+03  0.37790673131E+03  0.00000000000E+00 0.  1.
          1   -1    0    0  501    0  0.00000000000E+00 -0.00000000000E+00 -0.15499289642E+04  0.15499289642E+04  0.00000000000E+00 0. -1.
         23    2    1    2    0    0 -0.67689668624E+03 -0.42202516717E+02 -0.10274127498E+04  0.12343790791E+04  0.90247305774E+02 0.  0.
         13    1    3    3    0    0 -0.55748399939E+03 -0.66185111046E+02 -0.81782181221E+03  0.99196844457E+03  0.00000000000E+00 0.  1.
        -13    1    3    3    0    0 -0.11941268685E+03  0.23982594329E+02 -0.20959093755E+03  0.24241063449E+03  0.00000000000E+00 0. -1.
         22    1    1    2    0    0  0.67689668624E+03  0.42202516717E+02 -0.14460948310E+03  0.69345661642E+03  0.00000000000E+00 0.  1.
<mgrwt>
<rscale>  0 0.15306581E+04</rscale>
<asrwt>0</asrwt>
<pdfrwt beam="1">  1        1 0.23845061E+00 0.15306581E+04</pdfrwt>
<pdfrwt beam="2">  1       -1 0.58139497E-01 0.15306581E+04</pdfrwt>
<totfact> 0.17472574E+01</totfact>
</mgrwt>
</event>
<event>
 6    1  0.1014650E-006  0.1372825E+04  0.7818608E-02  0.8973728E-01
         -1   -1    0    0    0  501 -0.00000000000E+00  0.00000000000E+00  0.31632123426E+03  0.31632123426E+03  0.00000000000E+00 0.  1.
          1   -1    0    0  501    0  0.00000000000E+00 -0.00000000000E+00 -0.14895045792E+04  0.14895045792E+04  0.00000000000E+00 0. -1.
         23    2    1    2    0    0 -0.42808818252E+03  0.22085671429E+03  0.49057651459E+02  0.49208678552E+03  0.87781382199E+02 0.  0.
         11    1    3    3    0    0 -0.28012352172E+03  0.18102215841E+03  0.58275740069E+02  0.33857683196E+03  0.00000000000E+00 0. -1.
        -11    1    3    3    0    0 -0.14796466079E+03  0.39834555886E+02 -0.92180886098E+01  0.15350995357E+03  0.00000000000E+00 0.  1.
         22    1    1    2    0    0  0.42808818252E+03 -0.22085671429E+03 -0.12222409964E+04  0.13137390280E+04  0.00000000000E+00 0. -1.
<mgrwt>
<rscale>  0 0.13728247E+04</rscale>
<asrwt>0</asrwt>
<pdfrwt beam="1">  1        1 0.22915456E+00 0.13728247E+04</pdfrwt>
<pdfrwt beam="2">  1       -1 0.48664804E-01 0.13728247E+04</pdfrwt>
<totfact> 0.27466376E+01</totfact>
</mgrwt>
</event>
<event>
 6    1  0.1406617E-006  0.3822573E+04  0.7818608E-02  0.8041328E-01
          2   -1    0    0  501    0  0.00000000000E+00  0.00000000000E+00  0.18524234632E+04  0.18524234632E+04  0.00000000000E+00 0. -1.
         -2   -1    0    0    0  501 -0.00000000000E+00 -0.00000000000E+00 -0.19720196617E+04  0.19720196617E+04  0.00000000000E+00 0.  1.
         23    2    1    2    0    0 -0.13425415840E+03  0.11446428329E+04 -0.15839326973E+04  0.19609751815E+04  0.91375482207E+02 0.  0.
         13    1    3    3    0    0 -0.35688926217E+02  0.48960359026E+03 -0.74208206276E+03  0.88975904768E+03  0.00000000000E+00 0.  1.
        -13    1    3    3    0    0 -0.98565232179E+02  0.65503924268E+03 -0.84185063459E+03  0.10712161338E+04  0.00000000000E+00 0. -1.
         22    1    1    2    0    0  0.13425415840E+03 -0.11446428329E+04  0.14643364989E+04  0.18634679434E+04  0.00000000000E+00 0. -1.
<mgrwt>
<rscale>  0 0.38225727E+04</rscale>
<asrwt>0</asrwt>
<pdfrwt beam="1">  1        2 0.28498823E+00 0.38225727E+04</pdfrwt>
<pdfrwt beam="2">  1       -2 0.30338764E+00 0.38225727E+04</pdfrwt>
<totfact> 0.19568299E-01</totfact>
</mgrwt>
</event>
<event>
 6    1  0.1014650E-006  0.1523272E+04  0.7818608E-02  0.8869123E-01
          2   -1    0    0  501    0  0.00000000000E+00  0.00000000000E+00  0.10928129492E+04  0.10928129492E+04  0.00000000000E+00 0. -1.
         -2   -1    0    0    0  501 -0.00000000000E+00 -0.00000000000E+00 -0.53082212621E+03  0.53082212621E+03  0.00000000000E+00 0.  1.
         23    2    1    2    0    0 -0.48741399235E+03 -0.12211340796E+03  0.88818342439E+03  0.10245643805E+04  0.91532999469E+02 0.  0.
         13    1    3    3    0    0 -0.25518803999E+03 -0.10917989155E+03  0.45846479761E+03  0.53593950696E+03  0.00000000000E+00 0. -1.
        -13    1    3    3    0    0 -0.23222595237E+03 -0.12933516415E+02  0.42971862678E+03  0.48862487350E+03  0.00000000000E+00 0.  1.
         22    1    1    2    0    0  0.48741399235E+03  0.12211340796E+03 -0.32619260140E+03  0.59907069495E+03  0.00000000000E+00 0.  1.
<mgrwt>
<rscale>  0 0.15232719E+04</rscale>
<asrwt>0</asrwt>
<pdfrwt beam="1">  1        2 0.16812507E+00 0.15232719E+04</pdfrwt>
<pdfrwt beam="2">  1       -2 0.81664943E-01 0.15232719E+04</pdfrwt>
<totfact> 0.28018011E+01</totfact>
</mgrwt>
</event>
<event>
 6    1  0.1014650E-006  0.2546706E+04  0.7818608E-02  0.8386533E-01
         -1   -1    0    0    0  501 -0.00000000000E+00  0.00000000000E+00  0.32309596563E+04  0.32309596563E+04  0.00000000000E+00 0.  1.
          1   -1    0    0  501    0  0.00000000000E+00 -0.00000000000E+00 -0.50184084813E+03  0.50184084813E+03  0.00000000000E+00 0. -1.
         23    2    1    2    0    0 -0.16480894747E+01 -0.10630873664E+04  0.34290175072E+03  0.11204855712E+04  0.88027494746E+02 0.  0.
         11    1    3    3    0    0  0.22401695418E+02 -0.58814312809E+03  0.15066541428E+03  0.60754772828E+03  0.00000000000E+00 0. -1.
        -11    1    3    3    0    0 -0.24049784893E+02 -0.47494423835E+03  0.19223633644E+03  0.51293784297E+03  0.00000000000E+00 0.  1.
         22    1    1    2    0    0  0.16480894747E+01  0.10630873664E+04  0.23862170575E+04  0.26123149332E+04  0.00000000000E+00 0.  1.
<mgrwt>
<rscale>  0 0.25467057E+04</rscale>
<asrwt>0</asrwt>
<pdfrwt beam="1">  1        1 0.77206286E-01 0.25467057E+04</pdfrwt>
<pdfrwt beam="2">  1       -1 0.49707070E+00 0.25467057E+04</pdfrwt>
<totfact> 0.60519672E-02</totfact>
</mgrwt>
</event>
<event>
 6    1  0.1014650E-006  0.3118289E+04  0.7818608E-02  0.8210737E-01
          1   -1    0    0  501    0  0.00000000000E+00  0.00000000000E+00  0.11179362306E+04  0.11179362306E+04  0.00000000000E+00 0. -1.
         -1   -1    0    0    0  501 -0.00000000000E+00 -0.00000000000E+00 -0.21744810704E+04  0.21744810704E+04  0.00000000000E+00 0.  1.
         23    2    1    2    0    0  0.89687292635E+03 -0.23469627438E+03 -0.18506229753E+04  0.20717521248E+04  0.88814879535E+02 0.  0.
         13    1    3    3    0    0  0.30174588058E+03 -0.12098068841E+03 -0.62021411315E+03  0.70025170444E+03  0.00000000000E+00 0. -1.
        -13    1    3    3    0    0  0.59512704577E+03 -0.11371558596E+03 -0.12304088621E+04  0.13715004204E+04  0.00000000000E+00 0.  1.
         22    1    1    2    0    0 -0.89687292635E+03  0.23469627438E+03  0.79407813549E+03  0.12206651762E+04  0.00000000000E+00 0. -1.
<mgrwt>
<rscale>  0 0.31182887E+04</rscale>
<asrwt>0</asrwt>
<pdfrwt beam="1">  1        1 0.17199019E+00 0.31182887E+04</pdfrwt>
<pdfrwt beam="2">  1       -1 0.33453555E+00 0.31182887E+04</pdfrwt>
<totfact> 0.20349071E-01</totfact>
</mgrwt>
</event>
<event>
 6    1  0.1014650E-006  0.5447238E+04  0.7818608E-02  0.7762991E-01
         -2   -1    0    0    0  501 -0.00000000000E+00  0.00000000000E+00  0.19547403726E+04  0.19547403726E+04  0.00000000000E+00 0.  1.
          2   -1    0    0  501    0  0.00000000000E+00 -0.00000000000E+00 -0.37949290226E+04  0.37949290226E+04  0.00000000000E+00 0. -1.
         23    2    1    2    0    0  0.10855332609E+04 -0.14631784773E+03 -0.35515142848E+04  0.37178163489E+04  0.95463689591E+02 0.  0.
         11    1    3    3    0    0  0.59871126241E+03 -0.10138981679E+03 -0.21110108662E+04  0.21966114695E+04  0.00000000000E+00 0.  1.
        -11    1    3    3    0    0  0.48682199853E+03 -0.44928030946E+02 -0.14405034186E+04  0.15212048794E+04  0.00000000000E+00 0. -1.
         22    1    1    2    0    0 -0.10855332609E+04  0.14631784773E+03  0.17113256348E+04  0.20318530463E+04  0.00000000000E+00 0.  1.
<mgrwt>
<rscale>  0 0.54472382E+04</rscale>
<asrwt>0</asrwt>
<pdfrwt beam="1">  1        2 0.58383523E+00 0.54472382E+04</pdfrwt>
<pdfrwt beam="2">  1       -2 0.30072929E+00 0.54472382E+04</pdfrwt>
<totfact> 0.10914305E-02</totfact>
</mgrwt>
</event>
<event>
 6    1  0.1014650E-006  0.1712836E+04  0.7818608E-02  0.8754077E-01
         -1   -1    0    0    0  501 -0.00000000000E+00  0.00000000000E+00  0.46720976946E+03  0.46720976946E+03  0.00000000000E+00 0.  1.
          1   -1    0    0  501    0  0.00000000000E+00 -0.00000000000E+00 -0.15698555249E+04  0.15698555249E+04  0.00000000000E+00 0. -1.
         23    2    1    2    0    0 -0.43789624543E+03 -0.30215004216E+03 -0.13473027785E+04  0.14514845324E+04  0.92383987612E+02 0.  0.
         11    1    3    3    0    0 -0.30320115684E+03 -0.25168962847E+03 -0.10411671299E+04  0.11132419337E+04  0.00000000000E+00 0. -1.
        -11    1    3    3    0    0 -0.13469508859E+03 -0.50460413691E+02 -0.30613564866E+03  0.33824259876E+03  0.00000000000E+00 0.  1.
         22    1    1    2    0    0  0.43789624543E+03  0.30215004216E+03  0.24465702312E+03  0.58558076189E+03  0.00000000000E+00 0.  1.
<mgrwt>
<rscale>  0 0.17128361E+04</rscale>
<asrwt>0</asrwt>
<pdfrwt beam="1">  1        1 0.24151623E+00 0.17128361E+04</pdfrwt>
<pdfrwt beam="2">  1       -1 0.71878427E-01 0.17128361E+04</pdfrwt>
<totfact> 0.10868393E+01</totfact>
</mgrwt>
</event>
<event>
 6    1  0.1014650E-006  0.1976198E+04  0.7818608E-02  0.8617830E-01
          2   -1    0    0  501    0  0.00000000000E+00  0.00000000000E+00  0.87422871555E+03  0.87422871555E+03  0.00000000000E+00 0. -1.
         -2   -1    0    0    0  501 -0.00000000000E+00 -0.00000000000E+00 -0.11168012225E+04  0.11168012225E+04  0.00000000000E+00 0.  1.
         23    2    1    2    0    0 -0.28116072732E+03 -0.43090769099E+03 -0.96896708166E+03  0.11008715976E+04  0.91039971288E+02 0.  0.
         11    1    3    3    0    0 -0.26850531344E+03 -0.37788091890E+03 -0.90507437781E+03  0.10168818622E+04  0.00000000000E+00 0.  1.
        -11    1    3    3    0    0 -0.12655413885E+02 -0.53026772090E+02 -0.63892703853E+02  0.83989735471E+02  0.00000000000E+00 0. -1.
         22    1    1    2    0    0  0.28116072732E+03  0.43090769099E+03  0.72639457475E+03  0.89015834039E+03  0.00000000000E+00 0. -1.
<mgrwt>
<rscale>  0 0.19761981E+04</rscale>
<asrwt>0</asrwt>
<pdfrwt beam="1">  1        2 0.13449672E+00 0.19761981E+04</pdfrwt>
<pdfrwt beam="2">  1       -2 0.17181557E+00 0.19761981E+04</pdfrwt>
<totfact> 0.58784981E+00</totfact>
</mgrwt>
</event>
<event>
 6    1  0.1014650E-006  0.2443967E+04  0.7818608E-02  0.8423224E-01
          2   -1    0    0  501    0  0.00000000000E+00  0.00000000000E+00  0.21232237985E+04  0.21232237985E+04  0.00000000000E+00 0. -1.
         -2   -1    0    0    0  501 -0.00000000000E+00 -0.00000000000E+00 -0.70329096229E+03  0.70329096229E+03  0.00000000000E+00 0.  1.
         23    2    1    2    0    0  0.10559124783E+04  0.60579280623E+03  0.81145388521E+03  0.14655655627E+04  0.86538574935E+02 0.  0.
         11    1    3    3    0    0  0.37509149482E+03  0.17019879842E+03  0.25925814074E+03  0.48669913089E+03  0.00000000000E+00 0.  1.
        -11    1    3    3    0    0  0.68082098346E+03  0.43559400780E+03  0.55219574446E+03  0.97886643183E+03  0.00000000000E+00 0. -1.
         22    1    1    2    0    0 -0.10559124783E+04 -0.60579280623E+03  0.60847895097E+03  0.13609491980E+04  0.00000000000E+00 0.  1.
<mgrwt>
<rscale>  0 0.24439674E+04</rscale>
<asrwt>0</asrwt>
<pdfrwt beam="1">  1        2 0.32664981E+00 0.24439674E+04</pdfrwt>
<pdfrwt beam="2">  1       -2 0.10819861E+00 0.24439674E+04</pdfrwt>
<totfact> 0.34936109E+00</totfact>
</mgrwt>
</event>
<event>
 6    1  0.1014650E-006  0.1421776E+04  0.7818608E-02  0.8938205E-01
          1   -1    0    0  501    0  0.00000000000E+00  0.00000000000E+00  0.10025451704E+04  0.10025451704E+04  0.00000000000E+00 0. -1.
         -1   -1    0    0    0  501 -0.00000000000E+00 -0.00000000000E+00 -0.50407911210E+03  0.50407911210E+03  0.00000000000E+00 0.  1.
         23    2    1    2    0    0  0.22618725906E+03  0.31585592394E+03  0.87767346989E+03  0.96373948632E+03  0.86933520042E+02 0.  0.
         13    1    3    3    0    0  0.82048798696E+00  0.46158035040E+02  0.11771239536E+03  0.12644147033E+03  0.00000000000E+00 0. -1.
        -13    1    3    3    0    0  0.22536677107E+03  0.26969788890E+03  0.75996107453E+03  0.83729801599E+03  0.00000000000E+00 0.  1.
         22    1    1    2    0    0 -0.22618725906E+03 -0.31585592394E+03 -0.37920741162E+03  0.54288479614E+03  0.00000000000E+00 0.  1.
<mgrwt>
<rscale>  0 0.14217765E+04</rscale>
<asrwt>0</asrwt>
<pdfrwt beam="1">  1        1 0.15423772E+00 0.14217765E+04</pdfrwt>
<pdfrwt beam="2">  1       -1 0.77550633E-01 0.14217765E+04</pdfrwt>
<totfact> 0.24436533E+01</totfact>
</mgrwt>
</event>
<event>
 6    1  0.1014650E-006  0.7785650E+03  0.7818608E-02  0.9591572E-01
         -3   -1    0    0    0  501 -0.00000000000E+00  0.00000000000E+00  0.25654712790E+03  0.25654712790E+03  0.00000000000E+00 0.  1.
          3   -1    0    0  501    0  0.00000000000E+00 -0.00000000000E+00 -0.59069407982E+03  0.59069407982E+03  0.00000000000E+00 0. -1.
         23    2    1    2    0    0 -0.26590127835E+03  0.18936644829E+01 -0.47074556046E+03  0.54829931429E+03  0.91234201728E+02 0.  0.
         11    1    3    3    0    0 -0.58822247316E+02 -0.22176181633E+02 -0.56364727482E+02  0.84432353486E+02  0.00000000000E+00 0.  1.
        -11    1    3    3    0    0 -0.20707903104E+03  0.24069846116E+02 -0.41438083297E+03  0.46386696080E+03  0.00000000000E+00 0. -1.
         22    1    1    2    0    0  0.26590127835E+03 -0.18936644829E+01  0.13659860854E+03  0.29894189343E+03  0.00000000000E+00 0.  1.
<mgrwt>
<rscale>  0 0.77856501E+03</rscale>
<asrwt>0</asrwt>
<pdfrwt beam="1">  1        3 0.90876011E-01 0.77856501E+03</pdfrwt>
<pdfrwt beam="2">  1       -3 0.39468790E-01 0.77856501E+03</pdfrwt>
<totfact> 0.18354911E+01</totfact>
</mgrwt>
</event>
<event>
 6    1  0.1014650E-006  0.2074400E+04  0.7818608E-02  0.8572605E-01
         -1   -1    0    0    0  501 -0.00000000000E+00  0.00000000000E+00  0.50382754053E+03  0.50382754053E+03  0.00000000000E+00 0.  1.
          1   -1    0    0  501    0  0.00000000000E+00 -0.00000000000E+00 -0.21352220431E+04  0.21352220431E+04  0.00000000000E+00 0. -1.
         23    2    1    2    0    0 -0.95866152443E+03  0.46285212004E+02 -0.32341373390E+03  0.10167093202E+04  0.89034595159E+02 0.  0.
         13    1    3    3    0    0 -0.38836808227E+03  0.61312623730E+02 -0.12106211586E+03  0.41139402165E+03  0.00000000000E+00 0.  1.
        -13    1    3    3    0    0 -0.57029344216E+03 -0.15027411726E+02 -0.20235161804E+03  0.60531529850E+03  0.00000000000E+00 0. -1.
         22    1    1    2    0    0  0.95866152443E+03 -0.46285212004E+02 -0.13079807687E+04  0.16223402635E+04  0.00000000000E+00 0. -1.
<mgrwt>
<rscale>  0 0.20743998E+04</rscale>
<asrwt>0</asrwt>
<pdfrwt beam="1">  1        1 0.32849570E+00 0.20743998E+04</pdfrwt>
<pdfrwt beam="2">  1       -1 0.77511929E-01 0.20743998E+04</pdfrwt>
<totfact> 0.37077936E+00</totfact>
</mgrwt>
</event>
<event>
 6    1  0.1014650E-006  0.1626127E+04  0.7818608E-02  0.8804656E-01
         -1   -1    0    0    0  501 -0.00000000000E+00  0.00000000000E+00  0.50179395442E+03  0.50179395442E+03  0.00000000000E+00 0.  1.
          1   -1    0    0  501    0  0.00000000000E+00 -0.00000000000E+00 -0.13174183473E+04  0.13174183473E+04  0.00000000000E+00 0. -1.
         23    2    1    2    0    0  0.40328675274E+02  0.38017413344E+03  0.39097606759E+03  0.55349375283E+03  0.85640383053E+02 0.  0.
         13    1    3    3    0    0 -0.21097622880E+01  0.19643457234E+03  0.25052086166E+03  0.31835780882E+03  0.00000000000E+00 0. -1.
        -13    1    3    3    0    0  0.42438437562E+02  0.18373956110E+03  0.14045520593E+03  0.23513594402E+03  0.00000000000E+00 0.  1.
         22    1    1    2    0    0 -0.40328675274E+02 -0.38017413344E+03 -0.12066004605E+04  0.12657185489E+04  0.00000000000E+00 0. -1.
<mgrwt>
<rscale>  0 0.16261274E+04</rscale>
<asrwt>0</asrwt>
<pdfrwt beam="1">  1        1 0.20267975E+00 0.16261274E+04</pdfrwt>
<pdfrwt beam="2">  1       -1 0.77199070E-01 0.16261274E+04</pdfrwt>
<totfact> 0.14160397E+01</totfact>
</mgrwt>
</event>
<event>
 6    1  0.1014650E-006  0.1683791E+04  0.7818608E-02  0.8770663E-01
          2   -1    0    0  501    0  0.00000000000E+00  0.00000000000E+00  0.13417195192E+04  0.13417195192E+04  0.00000000000E+00 0. -1.
         -2   -1    0    0    0  501 -0.00000000000E+00 -0.00000000000E+00 -0.52826829486E+03  0.52826829486E+03  0.00000000000E+00 0.  1.
         23    2    1    2    0    0  0.13519982502E+03  0.19967809285E+03  0.13008252948E+04  0.13262196484E+04  0.92529858518E+02 0.  0.
         11    1    3    3    0    0  0.76495664044E+02  0.59915804524E+02  0.34397203122E+03  0.35743285875E+03  0.00000000000E+00 0. -1.
        -11    1    3    3    0    0  0.58704160974E+02  0.13976228833E+03  0.95685326355E+03  0.96878678961E+03  0.00000000000E+00 0.  1.
         22    1    1    2    0    0 -0.13519982502E+03 -0.19967809285E+03 -0.48737407046E+03  0.54376816568E+03  0.00000000000E+00 0.  1.
<mgrwt>
<rscale>  0 0.16837908E+04</rscale>
<asrwt>0</asrwt>
<pdfrwt beam="1">  1        2 0.20641839E+00 0.16837908E+04</pdfrwt>
<pdfrwt beam="2">  1       -2 0.81272046E-01 0.16837908E+04</pdfrwt>
<totfact> 0.19870752E+01</totfact>
</mgrwt>
</event>
<event>
 6    1  0.1014650E-006  0.2364376E+04  0.7818608E-02  0.8452962E-01
         -2   -1    0    0    0  501 -0.00000000000E+00  0.00000000000E+00  0.15350588364E+04  0.15350588364E+04  0.00000000000E+00 0.  1.
          2   -1    0    0  501    0  0.00000000000E+00 -0.00000000000E+00 -0.91043346873E+03  0.91043346873E+03  0.00000000000E+00 0. -1.
         23    2    1    2    0    0  0.18897655815E+03  0.53618873484E+02  0.15167421669E+04  0.15320047538E+04  0.89132720116E+02 0.  0.
         11    1    3    3    0    0  0.10598171383E+03  0.68982785236E+02  0.74441250656E+03  0.75507663734E+03  0.00000000000E+00 0. -1.
        -11    1    3    3    0    0  0.82994844327E+02 -0.15363911752E+02  0.77232966032E+03  0.77692811648E+03  0.00000000000E+00 0.  1.
         22    1    1    2    0    0 -0.18897655815E+03 -0.53618873484E+02 -0.89211679917E+03  0.91348755136E+03  0.00000000000E+00 0. -1.
<mgrwt>
<rscale>  0 0.23643764E+04</rscale>
<asrwt>0</asrwt>
<pdfrwt beam="1">  1        2 0.14006669E+00 0.23643764E+04</pdfrwt>
<pdfrwt beam="2">  1       -2 0.23616290E+00 0.23643764E+04</pdfrwt>
<totfact> 0.20355180E+00</totfact>
</mgrwt>
</event>
<event>
 6    1  0.1015956E-006  0.4648551E+04  0.7818608E-02  0.7885134E-01
         -2   -1    0    0    0  501 -0.00000000000E+00  0.00000000000E+00  0.23163288811E+04  0.23163288811E+04  0.00000000000E+00 0.  1.
          2   -1    0    0  501    0  0.00000000000E+00 -0.00000000000E+00 -0.23322491630E+04  0.23322491630E+04  0.00000000000E+00 0. -1.
         23    2    1    2    0    0  0.79511158749E+03  0.86343675312E+03 -0.20130688294E+04  0.23320444734E+04  0.90883720268E+02 0.  0.
         13    1    3    3    0    0  0.23359894589E+03  0.26166470673E+03 -0.52217178620E+03  0.62904710520E+03  0.00000000000E+00 0.  1.
        -13    1    3    3    0    0  0.56151264160E+03  0.60177204639E+03 -0.14908970432E+04  0.17029973681E+04  0.00000000000E+00 0. -1.
         22    1    1    2    0    0 -0.79511158749E+03 -0.86343675312E+03  0.19971485475E+04  0.23165335707E+04  0.00000000000E+00 0.  1.
<mgrwt>
<rscale>  0 0.46485508E+04</rscale>
<asrwt>0</asrwt>
<pdfrwt beam="1">  1        2 0.35880756E+00 0.46485508E+04</pdfrwt>
<pdfrwt beam="2">  1       -2 0.35635829E+00 0.46485508E+04</pdfrwt>
<totfact> 0.46151172E-02</totfact>
</mgrwt>
</event>
<event>
 6    1  0.1014650E-006  0.3570379E+04  0.7818608E-02  0.8097311E-01
         -1   -1    0    0    0  501 -0.00000000000E+00  0.00000000000E+00  0.21507915009E+04  0.21507915009E+04  0.00000000000E+00 0.  1.
          1   -1    0    0  501    0  0.00000000000E+00 -0.00000000000E+00 -0.14817341687E+04  0.14817341687E+04  0.00000000000E+00 0. -1.
         23    2    1    2    0    0 -0.67760987652E+03 -0.18061052358E+03  0.20037060742E+04  0.21248577452E+04  0.91690237854E+02 0.  0.
         11    1    3    3    0    0 -0.27066601050E+03 -0.31718527270E+02  0.70965229356E+03  0.76017927620E+03  0.00000000000E+00 0. -1.
        -11    1    3    3    0    0 -0.40694386602E+03 -0.14889199631E+03  0.12940537806E+04  0.13646784690E+04  0.00000000000E+00 0.  1.
         22    1    1    2    0    0  0.67760987652E+03  0.18061052358E+03 -0.13346487419E+04  0.15076679244E+04  0.00000000000E+00 0. -1.
<mgrwt>
<rscale>  0 0.35703788E+04</rscale>
<asrwt>0</asrwt>
<pdfrwt beam="1">  1        1 0.22795910E+00 0.35703788E+04</pdfrwt>
<pdfrwt beam="2">  1       -1 0.33089100E+00 0.35703788E+04</pdfrwt>
<totfact> 0.11343026E-01</totfact>
</mgrwt>
</event>
<event>
 6    1  0.1051960E-006  0.4321448E+04  0.7818608E-02  0.7942664E-01
         -2   -1    0    0    0  501 -0.00000000000E+00  0.00000000000E+00  0.17884619613E+04  0.17884619613E+04  0.00000000000E+00 0.  1.
          2   -1    0    0  501    0  0.00000000000E+00 -0.00000000000E+00 -0.26104713042E+04  0.26104713042E+04  0.00000000000E+00 0. -1.
         23    2    1    2    0    0 -0.11045451020E+03 -0.74740001897E+03  0.16482298447E+04  0.18157397708E+04  0.97171535041E+02 0.  0.
         11    1    3    3    0    0 -0.92961080750E+02 -0.37312343714E+03  0.76085650648E+03  0.85250541660E+03  0.00000000000E+00 0.  1.
        -11    1    3    3    0    0 -0.17493429451E+02 -0.37427658183E+03  0.88737333824E+03  0.96323435424E+03  0.00000000000E+00 0. -1.
         22    1    1    2    0    0  0.11045451020E+03  0.74740001897E+03 -0.24702391876E+04  0.25831934947E+04  0.00000000000E+00 0. -1.
<mgrwt>
<rscale>  0 0.43214482E+04</rscale>
<asrwt>0</asrwt>
<pdfrwt beam="1">  1        2 0.40161097E+00 0.43214482E+04</pdfrwt>
<pdfrwt beam="2">  1       -2 0.27514800E+00 0.43214482E+04</pdfrwt>
<totfact> 0.10397458E-01</totfact>
</mgrwt>
</event>
<event>
 6    1  0.1014650E-006  0.1849501E+04  0.7818608E-02  0.8680410E-01
          2   -1    0    0  501    0  0.00000000000E+00  0.00000000000E+00  0.50966054519E+03  0.50966054519E+03  0.00000000000E+00 0. -1.
         -2   -1    0    0    0  501 -0.00000000000E+00 -0.00000000000E+00 -0.16779072402E+04  0.16779072402E+04  0.00000000000E+00 0.  1.
         23    2    1    2    0    0 -0.60271999640E+03  0.31343444928E+03  0.15295083722E+03  0.70194486309E+03  0.88431239705E+02 0.  0.
         11    1    3    3    0    0 -0.11284727838E+03  0.50880259948E+02  0.63066542672E+02  0.13892695165E+03  0.00000000000E+00 0. -1.
        -11    1    3    3    0    0 -0.48987271801E+03  0.26255418933E+03  0.89884294551E+02  0.56301791143E+03  0.00000000000E+00 0.  1.
         22    1    1    2    0    0  0.60271999640E+03 -0.31343444928E+03 -0.13211975322E+04  0.14856229223E+04  0.00000000000E+00 0.  1.
<mgrwt>
<rscale>  0 0.18495006E+04</rscale>
<asrwt>0</asrwt>
<pdfrwt beam="1">  1        2 0.78409314E-01 0.18495006E+04</pdfrwt>
<pdfrwt beam="2">  1       -2 0.25813958E+00 0.18495006E+04</pdfrwt>
<totfact> 0.32436738E+00</totfact>
</mgrwt>
</event>
<event>
 6    1  0.1014650E-006  0.3000804E+04  0.7818608E-02  0.8243501E-01
          2   -1    0    0  501    0  0.00000000000E+00  0.00000000000E+00  0.14273261039E+04  0.14273261039E+04  0.00000000000E+00 0. -1.
         -2   -1    0    0    0  501 -0.00000000000E+00 -0.00000000000E+00 -0.15772195679E+04  0.15772195679E+04  0.00000000000E+00 0.  1.
         23    2    1    2    0    0 -0.65903008916E+03  0.10726806747E+04  0.73968395769E+03  0.14630164059E+04  0.91214901700E+02 0.  0.
         11    1    3    3    0    0 -0.36635173957E+03  0.63718701412E+03  0.47717219800E+03  0.87630713485E+03  0.00000000000E+00 0.  1.
        -11    1    3    3    0    0 -0.29267834959E+03  0.43549366059E+03  0.26251175969E+03  0.58670927103E+03  0.00000000000E+00 0. -1.
         22    1    1    2    0    0  0.65903008916E+03 -0.10726806747E+04 -0.88957742178E+03  0.15415292659E+04  0.00000000000E+00 0.  1.
<mgrwt>
<rscale>  0 0.30008043E+04</rscale>
<asrwt>0</asrwt>
<pdfrwt beam="1">  1        2 0.21958863E+00 0.30008043E+04</pdfrwt>
<pdfrwt beam="2">  1       -2 0.24264916E+00 0.30008043E+04</pdfrwt>
<totfact> 0.85233138E-01</totfact>
</mgrwt>
</event>
<event>
 6    1  0.1014650E-006  0.2392151E+04  0.7818608E-02  0.8442448E-01
         -2   -1    0    0    0  501 -0.00000000000E+00  0.00000000000E+00  0.99825956359E+03  0.99825956359E+03  0.00000000000E+00 0.  1.
          2   -1    0    0  501    0  0.00000000000E+00 -0.00000000000E+00 -0.14330906999E+04  0.14330906999E+04  0.00000000000E+00 0. -1.
         23    2    1    2    0    0  0.36468910313E+03 -0.42610256187E+02 -0.13728861720E+04  0.14239967874E+04  0.90203289780E+02 0.  0.
         13    1    3    3    0    0  0.26760112449E+03 -0.59524460987E+02 -0.11068420324E+04  0.11402862833E+04  0.00000000000E+00 0.  1.
        -13    1    3    3    0    0  0.97087978642E+02  0.16914204800E+02 -0.26604413964E+03  0.28371050414E+03  0.00000000000E+00 0. -1.
         22    1    1    2    0    0 -0.36468910313E+03  0.42610256187E+02  0.93805503565E+03  0.10073534761E+04  0.00000000000E+00 0.  1.
<mgrwt>
<rscale>  0 0.23921509E+04</rscale>
<asrwt>0</asrwt>
<pdfrwt beam="1">  1        2 0.22047549E+00 0.23921509E+04</pdfrwt>
<pdfrwt beam="2">  1       -2 0.15357839E+00 0.23921509E+04</pdfrwt>
<totfact> 0.35082309E+00</totfact>
</mgrwt>
</event>
<event>
 6    1  0.1014650E-006  0.2473597E+04  0.7818608E-02  0.8412453E-01
          2   -1    0    0  501    0  0.00000000000E+00  0.00000000000E+00  0.27133554090E+04  0.27133554090E+04  0.00000000000E+00 0. -1.
         -2   -1    0    0    0  501 -0.00000000000E+00 -0.00000000000E+00 -0.56375585536E+03  0.56375585536E+03  0.00000000000E+00 0.  1.
         23    2    1    2    0    0 -0.21073972667E+03 -0.79722094529E+03  0.22945024995E+04  0.24398721517E+04  0.90895151288E+02 0.  0.
         13    1    3    3    0    0 -0.11039130579E+03 -0.53377229319E+03  0.16018567683E+04  0.16920532520E+04  0.00000000000E+00 0.  1.
        -13    1    3    3    0    0 -0.10034842088E+03 -0.26344865210E+03  0.69264573113E+03  0.74781889968E+03  0.00000000000E+00 0. -1.
         22    1    1    2    0    0  0.21073972667E+03  0.79722094529E+03 -0.14490294587E+03  0.83723911263E+03  0.00000000000E+00 0.  1.
<mgrwt>
<rscale>  0 0.24735966E+04</rscale>
<asrwt>0</asrwt>
<pdfrwt beam="1">  1        2 0.41743929E+00 0.24735966E+04</pdfrwt>
<pdfrwt beam="2">  1       -2 0.86731672E-01 0.24735966E+04</pdfrwt>
<totfact> 0.26812529E+00</totfact>
</mgrwt>
</event>
<event>
 6    1  0.1014650E-006  0.3856368E+04  0.7818608E-02  0.8034165E-01
         -2   -1    0    0    0  501 -0.00000000000E+00  0.00000000000E+00  0.12329091452E+04  0.12329091452E+04  0.00000000000E+00 0.  1.
          2   -1    0    0  501    0  0.00000000000E+00 -0.00000000000E+00 -0.30155461276E+04  0.30155461276E+04  0.00000000000E+00 0. -1.
         23    2    1    2    0    0  0.14166914008E+04  0.22499336110E+03 -0.23095559120E+04  0.27202929464E+04  0.91151885471E+02 0.  0.
         11    1    3    3    0    0  0.39846711823E+03  0.91105813935E+02 -0.71656582733E+03  0.82495024004E+03  0.00000000000E+00 0.  1.
        -11    1    3    3    0    0  0.10182242825E+04  0.13388754716E+03 -0.15929900847E+04  0.18953427064E+04  0.00000000000E+00 0. -1.
         22    1    1    2    0    0 -0.14166914008E+04 -0.22499336110E+03  0.52691892960E+03  0.15281623264E+04  0.00000000000E+00 0.  1.
<mgrwt>
<rscale>  0 0.38563684E+04</rscale>
<asrwt>0</asrwt>
<pdfrwt beam="1">  1        2 0.46393017E+00 0.38563684E+04</pdfrwt>
<pdfrwt beam="2">  1       -2 0.18967833E+00 0.38563684E+04</pdfrwt>
<totfact> 0.21151797E-01</totfact>
</mgrwt>
</event>
<event>
 6    1  0.1014650E-006  0.2516138E+04  0.7818608E-02  0.8397259E-01
          1   -1    0    0  501    0  0.00000000000E+00  0.00000000000E+00  0.21623048928E+04  0.21623048928E+04  0.00000000000E+00 0. -1.
         -1   -1    0    0    0  501 -0.00000000000E+00 -0.00000000000E+00 -0.73196774707E+03  0.73196774707E+03  0.00000000000E+00 0.  1.
         23    2    1    2    0    0 -0.10407473045E+04  0.68143007027E+03  0.51350625150E+03  0.13489310009E+04  0.91783889063E+02 0.  0.
         11    1    3    3    0    0 -0.62259163436E+03  0.38566682825E+03  0.34659167819E+03  0.81023764229E+03  0.00000000000E+00 0. -1.
        -11    1    3    3    0    0 -0.41815567015E+03  0.29576324201E+03  0.16691457331E+03  0.53869335859E+03  0.00000000000E+00 0.  1.
         22    1    1    2    0    0  0.10407473045E+04 -0.68143007027E+03  0.91683089418E+03  0.15453416389E+04  0.00000000000E+00 0. -1.
<mgrwt>
<rscale>  0 0.25161379E+04</rscale>
<asrwt>0</asrwt>
<pdfrwt beam="1">  1        1 0.33266229E+00 0.25161379E+04</pdfrwt>
<pdfrwt beam="2">  1       -1 0.11261042E+00 0.25161379E+04</pdfrwt>
<totfact> 0.14797011E+00</totfact>
</mgrwt>
</event>
<event>
 6    1  0.1014650E-006  0.4143091E+04  0.7818608E-02  0.7976287E-01
          2   -1    0    0  501    0  0.00000000000E+00  0.00000000000E+00  0.24266324798E+04  0.24266324798E+04  0.00000000000E+00 0. -1.
         -2   -1    0    0    0  501 -0.00000000000E+00 -0.00000000000E+00 -0.17684178560E+04  0.17684178560E+04  0.00000000000E+00 0.  1.
         23    2    1    2    0    0  0.10545974720E+04  0.68253755493E+03  0.19963444840E+04  0.23596689410E+04  0.67918117284E+02 0.  0.
         13    1    3    3    0    0  0.56134151770E+03  0.35734248390E+03  0.11201849177E+04  0.13029244798E+04  0.00000000000E+00 0.  1.
        -13    1    3    3    0    0  0.49325595428E+03  0.32519507103E+03  0.87615956628E+03  0.10567444612E+04  0.00000000000E+00 0. -1.
         22    1    1    2    0    0 -0.10545974720E+04 -0.68253755493E+03 -0.13381298602E+04  0.18353813949E+04  0.00000000000E+00 0.  1.
<mgrwt>
<rscale>  0 0.41430907E+04</rscale>
<asrwt>0</asrwt>
<pdfrwt beam="1">  1        2 0.37332807E+00 0.41430907E+04</pdfrwt>
<pdfrwt beam="2">  1       -2 0.27206429E+00 0.41430907E+04</pdfrwt>
<totfact> 0.14091364E-01</totfact>
</mgrwt>
</event>
<event>
 6    1  0.1014650E-006  0.3036357E+04  0.7818608E-02  0.8233424E-01
         -2   -1    0    0    0  501 -0.00000000000E+00  0.00000000000E+00  0.71783398072E+03  0.71783398072E+03  0.00000000000E+00 0.  1.
          2   -1    0    0  501    0  0.00000000000E+00 -0.00000000000E+00 -0.32108629784E+04  0.32108629784E+04  0.00000000000E+00 0. -1.
         23    2    1    2    0    0  0.25597358715E+03 -0.55230673130E+03 -0.30452204926E+04  0.31068206608E+04  0.91660059848E+02 0.  0.
         11    1    3    3    0    0  0.16368306345E+03 -0.24823602328E+03 -0.15341316753E+04  0.15626814345E+04  0.00000000000E+00 0.  1.
        -11    1    3    3    0    0  0.92290523704E+02 -0.30407070803E+03 -0.15110888173E+04  0.15441392263E+04  0.00000000000E+00 0. -1.
         22    1    1    2    0    0 -0.25597358715E+03  0.55230673130E+03  0.55219149494E+03  0.82187629838E+03  0.00000000000E+00 0.  1.
<mgrwt>
<rscale>  0 0.30363574E+04</rscale>
<asrwt>0</asrwt>
<pdfrwt beam="1">  1        2 0.49397891E+00 0.30363574E+04</pdfrwt>
<pdfrwt beam="2">  1       -2 0.11043600E+00 0.30363574E+04</pdfrwt>
<totfact> 0.70797555E-01</totfact>
</mgrwt>
</event>
<event>
 6    1  0.1014650E-006  0.9058524E+03  0.7818608E-02  0.9418295E-01
         -1   -1    0    0    0  501 -0.00000000000E+00  0.00000000000E+00  0.16622063792E+03  0.16622063792E+03  0.00000000000E+00 0.  1.
          1   -1    0    0  501    0  0.00000000000E+00 -0.00000000000E+00 -0.12341556797E+04  0.12341556797E+04  0.00000000000E+00 0. -1.
         23    2    1    2    0    0 -0.62876623696E+01 -0.31625145368E+03 -0.10305794133E+04  0.10818642148E+04  0.91004041553E+02 0.  0.
         11    1    3    3    0    0  0.38919967846E+02 -0.20016244480E+03 -0.60619292752E+03  0.63956988170E+03  0.00000000000E+00 0. -1.
        -11    1    3    3    0    0 -0.45207630216E+02 -0.11608900888E+03 -0.42438648575E+03  0.44229433311E+03  0.00000000000E+00 0.  1.
         22    1    1    2    0    0  0.62876623696E+01  0.31625145368E+03 -0.37355628500E+02  0.31851210280E+03  0.00000000000E+00 0.  1.
<mgrwt>
<rscale>  0 0.90585240E+03</rscale>
<asrwt>0</asrwt>
<pdfrwt beam="1">  1        1 0.18987011E+00 0.90585240E+03</pdfrwt>
<pdfrwt beam="2">  1       -1 0.25572405E-01 0.90585240E+03</pdfrwt>
<totfact> 0.13681547E+02</totfact>
</mgrwt>
</event>
<event>
 6    1  0.1014650E-006  0.1384550E+04  0.7818608E-02  0.8965078E-01
         -1   -1    0    0    0  501 -0.00000000000E+00  0.00000000000E+00  0.10587415535E+04  0.10587415535E+04  0.00000000000E+00 0.  1.
          1   -1    0    0  501    0  0.00000000000E+00 -0.00000000000E+00 -0.45265533353E+03  0.45265533353E+03  0.00000000000E+00 0. -1.
         23    2    1    2    0    0  0.31213546670E+03  0.23137441710E+03  0.92577089367E+03  0.10082458550E+04  0.92440716921E+02 0.  0.
         11    1    3    3    0    0  0.15667785396E+03  0.16603337257E+03  0.47629249214E+03  0.52817569879E+03  0.00000000000E+00 0. -1.
        -11    1    3    3    0    0  0.15545761273E+03  0.65341044527E+02  0.44947840153E+03  0.48007015623E+03  0.00000000000E+00 0.  1.
         22    1    1    2    0    0 -0.31213546670E+03 -0.23137441710E+03 -0.31968467367E+03  0.50315103204E+03  0.00000000000E+00 0. -1.
<mgrwt>
<rscale>  0 0.13845505E+04</rscale>
<asrwt>0</asrwt>
<pdfrwt beam="1">  1        1 0.69639282E-01 0.13845505E+04</pdfrwt>
<pdfrwt beam="2">  1       -1 0.16288332E+00 0.13845505E+04</pdfrwt>
<totfact> 0.13782920E+01</totfact>
</mgrwt>
</event>
<event>
 6    1  0.1014650E-006  0.3025900E+04  0.7818608E-02  0.8236373E-01
          1   -1    0    0  501    0  0.00000000000E+00  0.00000000000E+00  0.24320911792E+04  0.24320911792E+04  0.00000000000E+00 0. -1.
         -1   -1    0    0    0  501 -0.00000000000E+00 -0.00000000000E+00 -0.94117269483E+03  0.94117269483E+03  0.00000000000E+00 0.  1.
         23    2    1    2    0    0  0.14549945895E+04  0.25361824869E+03  0.11018545843E+04  0.18459452466E+04  0.10999480357E+03 0.  0.
         13    1    3    3    0    0  0.10210804103E+04  0.18303882255E+03  0.83508229457E+03  0.13317172573E+04  0.00000000000E+00 0. -1.
        -13    1    3    3    0    0  0.43391417921E+03  0.70579426143E+02  0.26677228976E+03  0.51422798922E+03  0.00000000000E+00 0.  1.
         22    1    1    2    0    0 -0.14549945895E+04 -0.25361824869E+03  0.38906390000E+03  0.15273186274E+04  0.00000000000E+00 0. -1.
<mgrwt>
<rscale>  0 0.30259001E+04</rscale>
<asrwt>0</asrwt>
<pdfrwt beam="1">  1        1 0.37416787E+00 0.30259001E+04</pdfrwt>
<pdfrwt beam="2">  1       -1 0.14479580E+00 0.30259001E+04</pdfrwt>
<totfact> 0.49150564E-01</totfact>
</mgrwt>
</event>
<event>
 6    1  0.1014650E-006  0.1624716E+04  0.7818608E-02  0.8805506E-01
         -1   -1    0    0    0  501 -0.00000000000E+00  0.00000000000E+00  0.12621997999E+04  0.12621997999E+04  0.00000000000E+00 0.  1.
          1   -1    0    0  501    0  0.00000000000E+00 -0.00000000000E+00 -0.52283741502E+03  0.52283741502E+03  0.00000000000E+00 0. -1.
         23    2    1    2    0    0  0.66305585121E+03  0.44952753788E+03  0.24132907278E+03  0.84176882836E+03  0.92827635391E+02 0.  0.
         13    1    3    3    0    0  0.34182083937E+03  0.20130073781E+03  0.15996648767E+03  0.42772976335E+03  0.00000000000E+00 0. -1.
        -13    1    3    3    0    0  0.32123501184E+03  0.24822680007E+03  0.81362585108E+02  0.41403906501E+03  0.00000000000E+00 0.  1.
         22    1    1    2    0    0 -0.66305585121E+03 -0.44952753788E+03  0.49803331210E+03  0.94326838657E+03  0.00000000000E+00 0.  1.
<mgrwt>
<rscale>  0 0.16247157E+04</rscale>
<asrwt>0</asrwt>
<pdfrwt beam="1">  1        1 0.80436526E-01 0.16247157E+04</pdfrwt>
<pdfrwt beam="2">  1       -1 0.19418458E+00 0.16247157E+04</pdfrwt>
<totfact> 0.65868151E+00</totfact>
</mgrwt>
</event>
<event>
 6    1  0.1014650E-006  0.2560904E+04  0.7818608E-02  0.8381604E-01
         -1   -1    0    0    0  501 -0.00000000000E+00  0.00000000000E+00  0.64855576063E+03  0.64855576063E+03  0.00000000000E+00 0.  1.
          1   -1    0    0  501    0  0.00000000000E+00 -0.00000000000E+00 -0.25280120342E+04  0.25280120342E+04  0.00000000000E+00 0. -1.
         23    2    1    2    0    0 -0.36453486902E+03  0.84852712080E+03 -0.20382019732E+04  0.22395063547E+04  0.90760582953E+02 0.  0.
         11    1    3    3    0    0 -0.19660560397E+03  0.42128527725E+03 -0.11293875961E+04  0.12213318102E+04  0.00000000000E+00 0. -1.
        -11    1    3    3    0    0 -0.16792926504E+03  0.42724184355E+03 -0.90881437710E+03  0.10181745444E+04  0.00000000000E+00 0.  1.
         22    1    1    2    0    0  0.36453486902E+03 -0.84852712080E+03  0.15874569968E+03  0.93706144016E+03  0.00000000000E+00 0.  1.
<mgrwt>
<rscale>  0 0.25609036E+04</rscale>
<asrwt>0</asrwt>
<pdfrwt beam="1">  1        1 0.38892494E+00 0.25609036E+04</pdfrwt>
<pdfrwt beam="2">  1       -1 0.99777808E-01 0.25609036E+04</pdfrwt>
<totfact> 0.10962502E+00</totfact>
</mgrwt>
</event>
<event>
 6    1  0.1014650E-006  0.4466934E+04  0.7818608E-02  0.7916451E-01
          2   -1    0    0  501    0  0.00000000000E+00  0.00000000000E+00  0.24572480119E+04  0.24572480119E+04  0.00000000000E+00 0. -1.
         -2   -1    0    0    0  501 -0.00000000000E+00 -0.00000000000E+00 -0.20300658342E+04  0.20300658342E+04  0.00000000000E+00 0.  1.
         23    2    1    2    0    0 -0.14309354665E+04 -0.19793089224E+03 -0.14963128065E+04  0.20817814931E+04  0.90051221307E+02 0.  0.
         11    1    3    3    0    0 -0.64165594104E+03 -0.59168058366E+02 -0.61843043344E+03  0.89312899785E+03  0.00000000000E+00 0. -1.
        -11    1    3    3    0    0 -0.78927952551E+03 -0.13876283388E+03 -0.87788237305E+03  0.11886524952E+04  0.00000000000E+00 0.  1.
         22    1    1    2    0    0  0.14309354665E+04  0.19793089224E+03  0.19234949842E+04  0.24055323531E+04  0.00000000000E+00 0. -1.
<mgrwt>
<rscale>  0 0.44669342E+04</rscale>
<asrwt>0</asrwt>
<pdfrwt beam="1">  1        2 0.37803816E+00 0.44669342E+04</pdfrwt>
<pdfrwt beam="2">  1       -2 0.31231782E+00 0.44669342E+04</pdfrwt>
<totfact> 0.74764339E-02</totfact>
</mgrwt>
</event>
<event>
 6    1  0.1014650E-006  0.1725864E+04  0.7818608E-02  0.8746749E-01
          1   -1    0    0  501    0  0.00000000000E+00  0.00000000000E+00  0.82563606887E+03  0.82563606887E+03  0.00000000000E+00 0. -1.
         -1   -1    0    0    0  501 -0.00000000000E+00 -0.00000000000E+00 -0.90191317991E+03  0.90191317991E+03  0.00000000000E+00 0.  1.
         23    2    1    2    0    0 -0.55759332336E+03  0.17867690323E+03 -0.66928098148E+03  0.89418897833E+03  0.93814427330E+02 0.  0.
         11    1    3    3    0    0 -0.36350241945E+03  0.70914308639E+02 -0.39824987499E+03  0.54384355384E+03  0.00000000000E+00 0. -1.
        -11    1    3    3    0    0 -0.19409090391E+03  0.10776259460E+03 -0.27103110649E+03  0.35034542449E+03  0.00000000000E+00 0.  1.
         22    1    1    2    0    0  0.55759332336E+03 -0.17867690323E+03  0.59300387044E+03  0.83336027045E+03  0.00000000000E+00 0. -1.
<mgrwt>
<rscale>  0 0.17258645E+04</rscale>
<asrwt>0</asrwt>
<pdfrwt beam="1">  1        1 0.12702093E+00 0.17258645E+04</pdfrwt>
<pdfrwt beam="2">  1       -1 0.13875587E+00 0.17258645E+04</pdfrwt>
<totfact> 0.85600676E+00</totfact>
</mgrwt>
</event>
<event>
 6    1  0.1014650E-006  0.1915182E+04  0.7818608E-02  0.8647336E-01
          1   -1    0    0  501    0  0.00000000000E+00  0.00000000000E+00  0.36024835214E+04  0.36024835214E+04  0.00000000000E+00 0. -1.
         -1   -1    0    0    0  501 -0.00000000000E+00 -0.00000000000E+00 -0.25454123729E+03  0.25454123729E+03  0.00000000000E+00 0.  1.
         23    2    1    2    0    0 -0.85497014021E+03  0.42588213717E+03  0.17589720435E+04  0.20030625258E+04  0.76988941315E+02 0.  0.
         13    1    3    3    0    0 -0.15829074746E+03  0.64129256090E+02  0.26197511215E+03  0.31272908660E+03  0.00000000000E+00 0. -1.
        -13    1    3    3    0    0 -0.69667939274E+03  0.36175288108E+03  0.14969969314E+04  0.16903334392E+04  0.00000000000E+00 0.  1.
         22    1    1    2    0    0  0.85497014021E+03 -0.42588213717E+03  0.15889702405E+04  0.18539622328E+04  0.00000000000E+00 0. -1.
<mgrwt>
<rscale>  0 0.19151821E+04</rscale>
<asrwt>0</asrwt>
<pdfrwt beam="1">  1        1 0.55422820E+00 0.19151821E+04</pdfrwt>
<pdfrwt beam="2">  1       -1 0.39160193E-01 0.19151821E+04</pdfrwt>
<totfact> 0.12325382E+00</totfact>
</mgrwt>
</event>
<event>
 6    1  0.1014650E-006  0.1337606E+04  0.7818608E-02  0.9000263E-01
          2   -1    0    0  501    0  0.00000000000E+00  0.00000000000E+00  0.56646951591E+03  0.56646951591E+03  0.00000000000E+00 0. -1.
         -2   -1    0    0    0  501 -0.00000000000E+00 -0.00000000000E+00 -0.78962339642E+03  0.78962339642E+03  0.00000000000E+00 0.  1.
         23    2    1    2    0    0  0.39297035371E+03  0.23386809159E+03 -0.60257676892E+03  0.76188612054E+03  0.90838951301E+02 0.  0.
         13    1    3    3    0    0  0.14275088307E+03  0.43656291190E+02 -0.15735027201E+03  0.21689350954E+03  0.00000000000E+00 0. -1.
        -13    1    3    3    0    0  0.25021947064E+03  0.19021180040E+03 -0.44522649691E+03  0.54499261100E+03  0.00000000000E+00 0.  1.
         22    1    1    2    0    0 -0.39297035371E+03 -0.23386809159E+03  0.37942288840E+03  0.59420679179E+03  0.00000000000E+00 0. -1.
<mgrwt>
<rscale>  0 0.13376062E+04</rscale>
<asrwt>0</asrwt>
<pdfrwt beam="1">  1        2 0.87149157E-01 0.13376062E+04</pdfrwt>
<pdfrwt beam="2">  1       -2 0.12148052E+00 0.13376062E+04</pdfrwt>
<totfact> 0.26754006E+01</totfact>
</mgrwt>
</event>
<event>
 6    1  0.1014650E-006  0.1398613E+04  0.7818608E-02  0.8954823E-01
          2   -1    0    0  501    0  0.00000000000E+00  0.00000000000E+00  0.75385239616E+03  0.75385239616E+03  0.00000000000E+00 0. -1.
         -2   -1    0    0    0  501 -0.00000000000E+00 -0.00000000000E+00 -0.64870690904E+03  0.64870690904E+03  0.00000000000E+00 0.  1.
         23    2    1    2    0    0 -0.58261615770E+03  0.43455524731E+02 -0.32718349004E+03  0.67575925406E+03  0.90948136012E+02 0.  0.
         11    1    3    3    0    0 -0.19088875389E+03 -0.14735594725E+02 -0.14318352657E+03  0.23907567086E+03  0.00000000000E+00 0. -1.
        -11    1    3    3    0    0 -0.39172740381E+03  0.58191119457E+02 -0.18399996347E+03  0.43668358320E+03  0.00000000000E+00 0.  1.
         22    1    1    2    0    0  0.58261615770E+03 -0.43455524731E+02  0.43232897717E+03  0.72680005114E+03  0.00000000000E+00 0. -1.
<mgrwt>
<rscale>  0 0.13986125E+04</rscale>
<asrwt>0</asrwt>
<pdfrwt beam="1">  1        2 0.11597729E+00 0.13986125E+04</pdfrwt>
<pdfrwt beam="2">  1       -2 0.99801063E-01 0.13986125E+04</pdfrwt>
<totfact> 0.30100024E+01</totfact>
</mgrwt>
</event>
<event>
 6    1  0.1014650E-006  0.7799109E+03  0.7818608E-02  0.9589559E-01
          1   -1    0    0  501    0  0.00000000000E+00  0.00000000000E+00  0.15913081716E+04  0.15913081716E+04  0.00000000000E+00 0. -1.
         -1   -1    0    0    0  501 -0.00000000000E+00 -0.00000000000E+00 -0.95559896080E+02  0.95559896080E+02  0.00000000000E+00 0.  1.
         23    2    1    2    0    0  0.28278698711E+03  0.20618949955E+03  0.41831014780E+03  0.55401524896E+03  0.97298132211E+02 0.  0.
         13    1    3    3    0    0  0.58416146873E+02  0.60978471339E+01  0.41222802106E+02  0.71756180003E+02  0.00000000000E+00 0. -1.
        -13    1    3    3    0    0  0.22437084023E+03  0.20009165242E+03  0.37708734569E+03  0.48225906896E+03  0.00000000000E+00 0.  1.
         22    1    1    2    0    0 -0.28278698711E+03 -0.20618949955E+03  0.10774381277E+04  0.11328528187E+04  0.00000000000E+00 0. -1.
<mgrwt>
<rscale>  0 0.77991088E+03</rscale>
<asrwt>0</asrwt>
<pdfrwt beam="1">  1        1 0.24481662E+00 0.77991088E+03</pdfrwt>
<pdfrwt beam="2">  1       -1 0.14701524E-01 0.77991088E+03</pdfrwt>
<totfact> 0.19579524E+02</totfact>
</mgrwt>
</event>
<event>
 6    1  0.1014650E-006  0.3170249E+04  0.7818608E-02  0.8196719E-01
         -1   -1    0    0    0  501 -0.00000000000E+00  0.00000000000E+00  0.12472201307E+04  0.12472201307E+04  0.00000000000E+00 0.  1.
          1   -1    0    0  501    0  0.00000000000E+00 -0.00000000000E+00 -0.20145758833E+04  0.20145758833E+04  0.00000000000E+00 0. -1.
         23    2    1    2    0    0 -0.11794024545E+04  0.10570411153E+04 -0.39555299419E+03  0.16349698524E+04  0.91313622829E+02 0.  0.
         13    1    3    3    0    0 -0.62123042011E+03  0.51316503468E+03 -0.16800769473E+03  0.82309912719E+03  0.00000000000E+00 0.  1.
        -13    1    3    3    0    0 -0.55817203441E+03  0.54387608063E+03 -0.22754529945E+03  0.81187072517E+03  0.00000000000E+00 0. -1.
         22    1    1    2    0    0  0.11794024545E+04 -0.10570411153E+04 -0.37180275844E+03  0.16268261617E+04  0.00000000000E+00 0.  1.
<mgrwt>
<rscale>  0 0.31702489E+04</rscale>
<asrwt>0</asrwt>
<pdfrwt beam="1">  1        1 0.30993475E+00 0.31702489E+04</pdfrwt>
<pdfrwt beam="2">  1       -1 0.19188002E+00 0.31702489E+04</pdfrwt>
<totfact> 0.41882158E-01</totfact>
</mgrwt>
</event>
<event>
 6    1  0.1014650E-006  0.1839628E+04  0.7818608E-02  0.8685505E-01
          1   -1    0    0  501    0  0.00000000000E+00  0.00000000000E+00  0.11060941823E+04  0.11060941823E+04  0.00000000000E+00 0. -1.
         -1   -1    0    0    0  501 -0.00000000000E+00 -0.00000000000E+00 -0.76490545488E+03  0.76490545488E+03  0.00000000000E+00 0.  1.
         23    2    1    2    0    0 -0.18552604760E+03 -0.18250821641E+03  0.10659201097E+04  0.11009575995E+04  0.90514044476E+02 0.  0.
         11    1    3    3    0    0 -0.15275482274E+02 -0.25864881981E+02  0.28248329749E+03  0.28407595083E+03  0.00000000000E+00 0.  1.
        -11    1    3    3    0    0 -0.17025056533E+03 -0.15664333443E+03  0.78343681217E+03  0.81688164863E+03  0.00000000000E+00 0. -1.
         22    1    1    2    0    0  0.18552604760E+03  0.18250821641E+03 -0.72473138225E+03  0.77004203770E+03  0.00000000000E+00 0.  1.
<mgrwt>
<rscale>  0 0.18396277E+04</rscale>
<asrwt>0</asrwt>
<pdfrwt beam="1">  1        1 0.17016834E+00 0.18396277E+04</pdfrwt>
<pdfrwt beam="2">  1       -1 0.11767776E+00 0.18396277E+04</pdfrwt>
<totfact> 0.76618136E+00</totfact>
</mgrwt>
</event>
<event>
 6    1  0.1014650E-006  0.1717126E+04  0.7818608E-02  0.8751656E-01
          2   -1    0    0  501    0  0.00000000000E+00  0.00000000000E+00  0.18525127372E+04  0.18525127372E+04  0.00000000000E+00 0. -1.
         -2   -1    0    0    0  501 -0.00000000000E+00 -0.00000000000E+00 -0.39790857306E+03  0.39790857306E+03  0.00000000000E+00 0.  1.
         23    2    1    2    0    0  0.59276346257E+03  0.44378612566E+03  0.16636037853E+03  0.76452538556E+03  0.92242299063E+02 0.  0.
         13    1    3    3    0    0  0.42687105446E+03  0.32600517562E+03  0.16202948903E+03  0.56102747436E+03  0.00000000000E+00 0.  1.
        -13    1    3    3    0    0  0.16589240811E+03  0.11778095004E+03  0.43308894994E+01  0.20349791121E+03  0.00000000000E+00 0. -1.
         22    1    1    2    0    0 -0.59276346257E+03 -0.44378612566E+03  0.12882437856E+04  0.14858959247E+04  0.00000000000E+00 0. -1.
<mgrwt>
<rscale>  0 0.17171263E+04</rscale>
<asrwt>0</asrwt>
<pdfrwt beam="1">  1        2 0.28500195E+00 0.17171263E+04</pdfrwt>
<pdfrwt beam="2">  1       -2 0.61216705E-01 0.17171263E+04</pdfrwt>
<totfact> 0.19028941E+01</totfact>
</mgrwt>
</event>
<event>
 6    1  0.1014650E-006  0.2351002E+04  0.7818608E-02  0.8458079E-01
         -1   -1    0    0    0  501 -0.00000000000E+00  0.00000000000E+00  0.12661616988E+04  0.12661616988E+04  0.00000000000E+00 0.  1.
          1   -1    0    0  501    0  0.00000000000E+00 -0.00000000000E+00 -0.10913321238E+04  0.10913321238E+04  0.00000000000E+00 0. -1.
         23    2    1    2    0    0  0.79139663301E+03 -0.62369259881E+03 -0.51598086893E+03  0.11358064002E+04  0.92297525249E+02 0.  0.
         11    1    3    3    0    0  0.55348905135E+03 -0.40896959525E+03 -0.30959550984E+03  0.75462284588E+03  0.00000000000E+00 0. -1.
        -11    1    3    3    0    0  0.23790758166E+03 -0.21472300356E+03 -0.20638535909E+03  0.38118355436E+03  0.00000000000E+00 0.  1.
         22    1    1    2    0    0 -0.79139663301E+03  0.62369259881E+03  0.69081044387E+03  0.12216874223E+04  0.00000000000E+00 0.  1.
<mgrwt>
<rscale>  0 0.23510023E+04</rscale>
<asrwt>0</asrwt>
<pdfrwt beam="1">  1        1 0.16789725E+00 0.23510023E+04</pdfrwt>
<pdfrwt beam="2">  1       -1 0.19479411E+00 0.23510023E+04</pdfrwt>
<totfact> 0.18945238E+00</totfact>
</mgrwt>
</event>
<event>
 6    1  0.1014650E-006  0.2874396E+04  0.7818608E-02  0.8280536E-01
          1   -1    0    0  501    0  0.00000000000E+00  0.00000000000E+00  0.12192349110E+04  0.12192349110E+04  0.00000000000E+00 0. -1.
         -1   -1    0    0    0  501 -0.00000000000E+00 -0.00000000000E+00 -0.16941265346E+04  0.16941265346E+04  0.00000000000E+00 0.  1.
         23    2    1    2    0    0 -0.36379590083E+03  0.11744840624E+04 -0.98910900612E+03  0.15806274937E+04  0.91029541715E+02 0.  0.
         13    1    3    3    0    0 -0.25734494477E+03  0.83127844623E+03 -0.64581276862E+03  0.10836624972E+04  0.00000000000E+00 0. -1.
        -13    1    3    3    0    0 -0.10645095606E+03  0.34320561618E+03 -0.34329623750E+03  0.49696499646E+03  0.00000000000E+00 0.  1.
         22    1    1    2    0    0  0.36379590083E+03 -0.11744840624E+04  0.51421738249E+03  0.13327339520E+04  0.00000000000E+00 0. -1.
<mgrwt>
<rscale>  0 0.28743961E+04</rscale>
<asrwt>0</asrwt>
<pdfrwt beam="1">  1        1 0.18757460E+00 0.28743961E+04</pdfrwt>
<pdfrwt beam="2">  1       -1 0.26063485E+00 0.28743961E+04</pdfrwt>
<totfact> 0.52891293E-01</totfact>
</mgrwt>
</event>
<event>
 6    1  0.1014650E-006  0.9385633E+03  0.7818608E-02  0.9378619E-01
         -1   -1    0    0    0  501 -0.00000000000E+00  0.00000000000E+00  0.24865191274E+03  0.24865191274E+03  0.00000000000E+00 0.  1.
          1   -1    0    0  501    0  0.00000000000E+00 -0.00000000000E+00 -0.88567689071E+03  0.88567689071E+03  0.00000000000E+00 0. -1.
         23    2    1    2    0    0 -0.13441871287E+02  0.43765666514E+03 -0.13551007867E+03  0.46856515569E+03  0.97294826475E+02 0.  0.
         11    1    3    3    0    0 -0.54338081365E+01  0.16753596099E+03 -0.31530828226E+01  0.16765370985E+03  0.00000000000E+00 0.  1.
        -11    1    3    3    0    0 -0.80080631503E+01  0.27012070416E+03 -0.13235699585E+03  0.30091144584E+03  0.00000000000E+00 0. -1.
         22    1    1    2    0    0  0.13441871287E+02 -0.43765666514E+03 -0.50151489930E+03  0.66576364775E+03  0.00000000000E+00 0.  1.
<mgrwt>
<rscale>  0 0.93856327E+03</rscale>
<asrwt>0</asrwt>
<pdfrwt beam="1">  1        1 0.13625799E+00 0.93856327E+03</pdfrwt>
<pdfrwt beam="2">  1       -1 0.38254140E-01 0.93856327E+03</pdfrwt>
<totfact> 0.12415120E+02</totfact>
</mgrwt>
</event>
<event>
 6    1  0.1014650E-006  0.2669190E+04  0.7818608E-02  0.8345072E-01
         -2   -1    0    0    0  501 -0.00000000000E+00  0.00000000000E+00  0.61185075946E+03  0.61185075946E+03  0.00000000000E+00 0.  1.
          2   -1    0    0  501    0  0.00000000000E+00 -0.00000000000E+00 -0.29110752003E+04  0.29110752003E+04  0.00000000000E+00 0. -1.
         23    2    1    2    0    0  0.93956183577E+03 -0.24432539328E+03  0.54656279687E+02  0.97670802181E+03  0.92194955993E+02 0.  0.
         11    1    3    3    0    0  0.37355322918E+03 -0.13779591797E+03 -0.16985820654E+00  0.39815795721E+03  0.00000000000E+00 0.  1.
        -11    1    3    3    0    0  0.56600860659E+03 -0.10652947532E+03  0.54826137894E+02  0.57855006459E+03  0.00000000000E+00 0. -1.
         22    1    1    2    0    0 -0.93956183577E+03  0.24432539328E+03 -0.23538807205E+04  0.25462179380E+04  0.00000000000E+00 0. -1.
<mgrwt>
<rscale>  0 0.26691898E+04</rscale>
<asrwt>0</asrwt>
<pdfrwt beam="1">  1        2 0.44785773E+00 0.26691898E+04</pdfrwt>
<pdfrwt beam="2">  1       -2 0.94130885E-01 0.26691898E+04</pdfrwt>
<totfact> 0.16559230E+00</totfact>
</mgrwt>
</event>
<event>
 6    1  0.1014650E-006  0.2115670E+04  0.7818608E-02  0.8554372E-01
         -1   -1    0    0    0  501 -0.00000000000E+00  0.00000000000E+00  0.25328596257E+03  0.25328596257E+03  0.00000000000E+00 0.  1.
          1   -1    0    0  501    0  0.00000000000E+00 -0.00000000000E+00 -0.44179894149E+04  0.44179894149E+04  0.00000000000E+00 0. -1.
         23    2    1    2    0    0  0.40086098551E+03 -0.96631712816E+03 -0.24014597383E+04  0.26210347289E+04  0.91410359037E+02 0.  0.
         13    1    3    3    0    0  0.19846581034E+03 -0.47448116379E+03 -0.12947515556E+04  0.13931628201E+04  0.00000000000E+00 0.  1.
        -13    1    3    3    0    0  0.20239517517E+03 -0.49183596437E+03 -0.11067081827E+04  0.12278719088E+04  0.00000000000E+00 0. -1.
         22    1    1    2    0    0 -0.40086098551E+03  0.96631712816E+03 -0.17632437141E+04  0.20502406486E+04  0.00000000000E+00 0.  1.
<mgrwt>
<rscale>  0 0.21156698E+04</rscale>
<asrwt>0</asrwt>
<pdfrwt beam="1">  1        1 0.67969063E+00 0.21156698E+04</pdfrwt>
<pdfrwt beam="2">  1       -1 0.38967074E-01 0.21156698E+04</pdfrwt>
<totfact> 0.23127281E-01</totfact>
</mgrwt>
</event>
<event>
 6    1  0.1014650E-006  0.3537046E+04  0.7818608E-02  0.8105066E-01
          2   -1    0    0  501    0  0.00000000000E+00  0.00000000000E+00  0.18879185137E+04  0.18879185137E+04  0.00000000000E+00 0. -1.
         -2   -1    0    0    0  501 -0.00000000000E+00 -0.00000000000E+00 -0.16566779856E+04  0.16566779856E+04  0.00000000000E+00 0.  1.
         23    2    1    2    0    0  0.91018096211E+03 -0.96165626609E+03  0.12888061987E+04  0.18499999970E+04  0.90919816061E+02 0.  0.
         11    1    3    3    0    0  0.34390036467E+03 -0.33659257648E+03  0.52417711606E+03  0.71156424331E+03  0.00000000000E+00 0.  1.
        -11    1    3    3    0    0  0.56628059743E+03 -0.62506368961E+03  0.76462908269E+03  0.11384357537E+04  0.00000000000E+00 0. -1.
         22    1    1    2    0    0 -0.91018096211E+03  0.96165626609E+03 -0.10575656706E+04  0.16945965023E+04  0.00000000000E+00 0.  1.
<mgrwt>
<rscale>  0 0.35370457E+04</rscale>
<asrwt>0</asrwt>
<pdfrwt beam="1">  1        2 0.29044900E+00 0.35370457E+04</pdfrwt>
<pdfrwt beam="2">  1       -2 0.25487354E+00 0.35370457E+04</pdfrwt>
<totfact> 0.37894452E-01</totfact>
</mgrwt>
</event>
<event>
 6    1  0.1014650E-006  0.1819436E+04  0.7818608E-02  0.8696032E-01
         -1   -1    0    0    0  501 -0.00000000000E+00  0.00000000000E+00  0.33007617341E+03  0.33007617341E+03  0.00000000000E+00 0.  1.
          1   -1    0    0  501    0  0.00000000000E+00 -0.00000000000E+00 -0.25072592867E+04  0.25072592867E+04  0.00000000000E+00 0. -1.
         23    2    1    2    0    0  0.76397846795E+03 -0.11523898209E+03 -0.18334664243E+04  0.19917088967E+04  0.91444395529E+02 0.  0.
         11    1    3    3    0    0  0.62738039818E+03 -0.91113803947E+02 -0.14064551594E+04  0.15427326420E+04  0.00000000000E+00 0. -1.
        -11    1    3    3    0    0  0.13659806976E+03 -0.24125178147E+02 -0.42701126495E+03  0.44897625470E+03  0.00000000000E+00 0.  1.
         22    1    1    2    0    0 -0.76397846795E+03  0.11523898209E+03 -0.34371668894E+03  0.84562656340E+03  0.00000000000E+00 0.  1.
<mgrwt>
<rscale>  0 0.18194357E+04</rscale>
<asrwt>0</asrwt>
<pdfrwt beam="1">  1        1 0.38573219E+00 0.18194357E+04</pdfrwt>
<pdfrwt beam="2">  1       -1 0.50780951E-01 0.18194357E+04</pdfrwt>
<totfact> 0.49209377E+00</totfact>
</mgrwt>
</event>
<event>
 6    1  0.1014650E-006  0.2368827E+04  0.7818608E-02  0.8451267E-01
         -1   -1    0    0    0  501 -0.00000000000E+00  0.00000000000E+00  0.15964041871E+04  0.15964041871E+04  0.00000000000E+00 0.  1.
          1   -1    0    0  501    0  0.00000000000E+00 -0.00000000000E+00 -0.87874713311E+03  0.87874713311E+03  0.00000000000E+00 0. -1.
         23    2    1    2    0    0  0.60783680973E+03  0.58775140448E+03 -0.50463695147E+03  0.98890775454E+03  0.91448310416E+02 0.  0.
         11    1    3    3    0    0  0.31828338694E+03  0.32091995876E+03 -0.21761009666E+03  0.50164538123E+03  0.00000000000E+00 0.  1.
        -11    1    3    3    0    0  0.28955342279E+03  0.26683144572E+03 -0.28702685480E+03  0.48726237332E+03  0.00000000000E+00 0. -1.
         22    1    1    2    0    0 -0.60783680973E+03 -0.58775140448E+03  0.12222940055E+04  0.14862435657E+04  0.00000000000E+00 0.  1.
<mgrwt>
<rscale>  0 0.23688272E+04</rscale>
<asrwt>0</asrwt>
<pdfrwt beam="1">  1        1 0.13519187E+00 0.23688272E+04</pdfrwt>
<pdfrwt beam="2">  1       -1 0.24560064E+00 0.23688272E+04</pdfrwt>
<totfact> 0.12682277E+00</totfact>
</mgrwt>
</event>
<event>
 6    1  0.1014650E-006  0.9666277E+03  0.7818608E-02  0.9345924E-01
          2   -1    0    0  501    0  0.00000000000E+00  0.00000000000E+00  0.42672013074E+03  0.42672013074E+03  0.00000000000E+00 0. -1.
         -2   -1    0    0    0  501 -0.00000000000E+00 -0.00000000000E+00 -0.54741325843E+03  0.54741325843E+03  0.00000000000E+00 0.  1.
         23    2    1    2    0    0 -0.26124033065E+03  0.56196800452E+02 -0.46140119200E+03  0.54113618845E+03  0.92372743401E+02 0.  0.
         13    1    3    3    0    0 -0.92075567029E+02  0.55757830017E+02 -0.12777366587E+03  0.16707170718E+03  0.00000000000E+00 0. -1.
        -13    1    3    3    0    0 -0.16916476362E+03  0.43897043471E+00 -0.33362752614E+03  0.37406448126E+03  0.00000000000E+00 0.  1.
         22    1    1    2    0    0  0.26124033065E+03 -0.56196800452E+02  0.34070806432E+03  0.43299720072E+03  0.00000000000E+00 0. -1.
<mgrwt>
<rscale>  0 0.96662766E+03</rscale>
<asrwt>0</asrwt>
<pdfrwt beam="1">  1        2 0.65649251E-01 0.96662766E+03</pdfrwt>
<pdfrwt beam="2">  1       -2 0.84217424E-01 0.96662766E+03</pdfrwt>
<totfact> 0.91003333E+01</totfact>
</mgrwt>
</event>
<event>
 6    1  0.1014650E-006  0.1587968E+04  0.7818608E-02  0.8827974E-01
          2   -1    0    0  501    0  0.00000000000E+00  0.00000000000E+00  0.27332465424E+04  0.27332465424E+04  0.00000000000E+00 0. -1.
         -2   -1    0    0    0  501 -0.00000000000E+00 -0.00000000000E+00 -0.23064545086E+03  0.23064545086E+03  0.00000000000E+00 0.  1.
         23    2    1    2    0    0  0.41740964422E+03 -0.67152614900E+03  0.13166033685E+04  0.15384907238E+04  0.91274845382E+02 0.  0.
         13    1    3    3    0    0  0.24730625349E+03 -0.41868134271E+03  0.89072926509E+03  0.10148167684E+04  0.00000000000E+00 0.  1.
        -13    1    3    3    0    0  0.17010339073E+03 -0.25284480629E+03  0.42587410342E+03  0.52367395540E+03  0.00000000000E+00 0. -1.
         22    1    1    2    0    0 -0.41740964422E+03  0.67152614900E+03  0.11859977230E+04  0.14254012694E+04  0.00000000000E+00 0.  1.
<mgrwt>
<rscale>  0 0.15879684E+04</rscale>
<asrwt>0</asrwt>
<pdfrwt beam="1">  1        2 0.42049944E+00 0.15879684E+04</pdfrwt>
<pdfrwt beam="2">  1       -2 0.35483918E-01 0.15879684E+04</pdfrwt>
<totfact> 0.18236771E+01</totfact>
</mgrwt>
</event>
<event>
 6    1  0.1014650E-006  0.3496683E+04  0.7818608E-02  0.8114576E-01
         -2   -1    0    0    0  501 -0.00000000000E+00  0.00000000000E+00  0.12809569632E+04  0.12809569632E+04  0.00000000000E+00 0.  1.
          2   -1    0    0  501    0  0.00000000000E+00 -0.00000000000E+00 -0.23862612232E+04  0.23862612232E+04  0.00000000000E+00 0. -1.
         23    2    1    2    0    0  0.60279031517E+03 -0.16098018234E+04 -0.22547425648E+03  0.17361772987E+04  0.93031700338E+02 0.  0.
         11    1    3    3    0    0  0.36425397479E+03 -0.86145566437E+03 -0.14773137498E+03  0.94689565369E+03  0.00000000000E+00 0.  1.
        -11    1    3    3    0    0  0.23853634038E+03 -0.74834615908E+03 -0.77742881503E+02  0.78928164498E+03  0.00000000000E+00 0. -1.
         22    1    1    2    0    0 -0.60279031517E+03  0.16098018234E+04 -0.87983000358E+03  0.19310408877E+04  0.00000000000E+00 0. -1.
<mgrwt>
<rscale>  0 0.34966830E+04</rscale>
<asrwt>0</asrwt>
<pdfrwt beam="1">  1        2 0.36711711E+00 0.34966830E+04</pdfrwt>
<pdfrwt beam="2">  1       -2 0.19707031E+00 0.34966830E+04</pdfrwt>
<totfact> 0.46265181E-01</totfact>
</mgrwt>
</event>
<event>
 6    1  0.1014650E-006  0.1711170E+04  0.7818608E-02  0.8755019E-01
         -2   -1    0    0    0  501 -0.00000000000E+00  0.00000000000E+00  0.10836055638E+04  0.10836055638E+04  0.00000000000E+00 0.  1.
          2   -1    0    0  501    0  0.00000000000E+00 -0.00000000000E+00 -0.67554599878E+03  0.67554599878E+03  0.00000000000E+00 0. -1.
         23    2    1    2    0    0 -0.74544516820E+03  0.25535665557E+03 -0.13163590711E+03  0.80407736497E+03  0.91196910411E+02 0.  0.
         13    1    3    3    0    0 -0.45527117968E+03  0.19931650330E+03 -0.66146574133E+02  0.50137240132E+03  0.00000000000E+00 0.  1.
        -13    1    3    3    0    0 -0.29017398852E+03  0.56040152264E+02 -0.65489332981E+02  0.30270496364E+03  0.00000000000E+00 0. -1.
         22    1    1    2    0    0  0.74544516820E+03 -0.25535665557E+03  0.53969547216E+03  0.95507419765E+03  0.00000000000E+00 0.  1.
<mgrwt>
<rscale>  0 0.17111697E+04</rscale>
<asrwt>0</asrwt>
<pdfrwt beam="1">  1        2 0.10393015E+00 0.17111697E+04</pdfrwt>
<pdfrwt beam="2">  1       -2 0.16670855E+00 0.17111697E+04</pdfrwt>
<totfact> 0.91609844E+00</totfact>
</mgrwt>
</event>
<event>
 6    1  0.1014650E-006  0.3570828E+04  0.7818608E-02  0.8097207E-01
         -2   -1    0    0    0  501 -0.00000000000E+00  0.00000000000E+00  0.13415638841E+04  0.13415638841E+04  0.00000000000E+00 0.  1.
          2   -1    0    0  501    0  0.00000000000E+00 -0.00000000000E+00 -0.23761097023E+04  0.23761097023E+04  0.00000000000E+00 0. -1.
         23    2    1    2    0    0 -0.14410414913E+03  0.13723851515E+04 -0.16955101672E+04  0.21876144763E+04  0.81825179284E+02 0.  0.
         11    1    3    3    0    0 -0.78807790451E+02  0.77971417209E+03 -0.89853362230E+03  0.11922782932E+04  0.00000000000E+00 0.  1.
        -11    1    3    3    0    0 -0.65296358678E+02  0.59267097943E+03 -0.79697654490E+03  0.99533618312E+03  0.00000000000E+00 0. -1.
         22    1    1    2    0    0  0.14410414913E+03 -0.13723851515E+04  0.66096434891E+03  0.15300591101E+04  0.00000000000E+00 0.  1.
<mgrwt>
<rscale>  0 0.35708279E+04</rscale>
<asrwt>0</asrwt>
<pdfrwt beam="1">  1        2 0.36555534E+00 0.35708279E+04</pdfrwt>
<pdfrwt beam="2">  1       -2 0.20639444E+00 0.35708279E+04</pdfrwt>
<totfact> 0.40494659E-01</totfact>
</mgrwt>
</event>
<event>
 6    1  0.1014650E-006  0.2481796E+04  0.7818608E-02  0.8409499E-01
         -2   -1    0    0    0  501 -0.00000000000E+00  0.00000000000E+00  0.89772642415E+03  0.89772642415E+03  0.00000000000E+00 0.  1.
          2   -1    0    0  501    0  0.00000000000E+00 -0.00000000000E+00 -0.17152534143E+04  0.17152534143E+04  0.00000000000E+00 0. -1.
         23    2    1    2    0    0 -0.10096793161E+04 -0.58608906847E+03 -0.84665466916E+03  0.14451608716E+04  0.93343979059E+02 0.  0.
         11    1    3    3    0    0 -0.12414370200E+03 -0.53933140122E+02 -0.13103325848E+03  0.18838831487E+03  0.00000000000E+00 0. -1.
        -11    1    3    3    0    0 -0.88553561414E+03 -0.53215592835E+03 -0.71562141067E+03  0.12567725568E+04  0.00000000000E+00 0.  1.
         22    1    1    2    0    0  0.10096793161E+04  0.58608906847E+03  0.29127678993E+02  0.11678189668E+04  0.00000000000E+00 0.  1.
<mgrwt>
<rscale>  0 0.24817964E+04</rscale>
<asrwt>0</asrwt>
<pdfrwt beam="1">  1        2 0.26388514E+00 0.24817964E+04</pdfrwt>
<pdfrwt beam="2">  1       -2 0.13811176E+00 0.24817964E+04</pdfrwt>
<totfact> 0.31963930E+00</totfact>
</mgrwt>
</event>
<event>
 6    1  0.1014650E-006  0.1929222E+04  0.7818608E-02  0.8640446E-01
          2   -1    0    0  501    0  0.00000000000E+00  0.00000000000E+00  0.77372824210E+03  0.77372824210E+03  0.00000000000E+00 0. -1.
         -2   -1    0    0    0  501 -0.00000000000E+00 -0.00000000000E+00 -0.12025856098E+04  0.12025856098E+04  0.00000000000E+00 0.  1.
         23    2    1    2    0    0 -0.63867281820E+03  0.11460579851E+03  0.51327932505E+03  0.83234750381E+03  0.91155053701E+02 0.  0.
         13    1    3    3    0    0 -0.20179534710E+03  0.78733549096E+02  0.18141511794E+03  0.28254518025E+03  0.00000000000E+00 0.  1.
        -13    1    3    3    0    0 -0.43687747110E+03  0.35872249411E+02  0.33186420710E+03  0.54980232356E+03  0.00000000000E+00 0. -1.
         22    1    1    2    0    0  0.63867281820E+03 -0.11460579851E+03 -0.94213669273E+03  0.11439663481E+04  0.00000000000E+00 0.  1.
<mgrwt>
<rscale>  0 0.19292221E+04</rscale>
<asrwt>0</asrwt>
<pdfrwt beam="1">  1        2 0.11903511E+00 0.19292221E+04</pdfrwt>
<pdfrwt beam="2">  1       -2 0.18501317E+00 0.19292221E+04</pdfrwt>
<totfact> 0.56321788E+00</totfact>
</mgrwt>
</event>
<event>
 6    1  0.1014650E-006  0.1387134E+04  0.7818608E-02  0.8963185E-01
          1   -1    0    0  501    0  0.00000000000E+00  0.00000000000E+00  0.17929507669E+03  0.17929507669E+03  0.00000000000E+00 0. -1.
         -1   -1    0    0    0  501 -0.00000000000E+00 -0.00000000000E+00 -0.26829231860E+04  0.26829231860E+04  0.00000000000E+00 0.  1.
         23    2    1    2    0    0 -0.21213319087E+03  0.42074502518E+03 -0.22967964784E+04  0.23476250346E+04  0.11850051875E+03 0.  0.
         13    1    3    3    0    0 -0.17049513258E+03  0.21394654195E+03 -0.13826766518E+04  0.14094809103E+04  0.00000000000E+00 0. -1.
        -13    1    3    3    0    0 -0.41638058290E+02  0.20679848323E+03 -0.91411982658E+03  0.93814412427E+03  0.00000000000E+00 0.  1.
         22    1    1    2    0    0  0.21213319087E+03 -0.42074502518E+03 -0.20683163094E+03  0.51459322813E+03  0.00000000000E+00 0. -1.
<mgrwt>
<rscale>  0 0.13871336E+04</rscale>
<asrwt>0</asrwt>
<pdfrwt beam="1">  1        1 0.27583858E-01 0.13871336E+04</pdfrwt>
<pdfrwt beam="2">  1       -1 0.41275741E+00 0.13871336E+04</pdfrwt>
<totfact> 0.98932681E-01</totfact>
</mgrwt>
</event>
<event>
 6    1  0.1014650E-006  0.1519939E+04  0.7818608E-02  0.8871301E-01
          1   -1    0    0  501    0  0.00000000000E+00  0.00000000000E+00  0.88119361650E+03  0.88119361650E+03  0.00000000000E+00 0. -1.
         -1   -1    0    0    0  501 -0.00000000000E+00 -0.00000000000E+00 -0.65542160266E+03  0.65542160266E+03  0.00000000000E+00 0.  1.
         23    2    1    2    0    0 -0.74293066738E+03  0.36892340289E+02 -0.31523491997E+02  0.74952691495E+03  0.86543887096E+02 0.  0.
         13    1    3    3    0    0 -0.27748373032E+03  0.55275837220E+02 -0.18368069732E+02  0.28353134704E+03  0.00000000000E+00 0. -1.
        -13    1    3    3    0    0 -0.46544693706E+03 -0.18383496931E+02 -0.13155422265E+02  0.46599556791E+03  0.00000000000E+00 0.  1.
         22    1    1    2    0    0  0.74293066738E+03 -0.36892340289E+02  0.25729550584E+03  0.78708830421E+03  0.00000000000E+00 0. -1.
<mgrwt>
<rscale>  0 0.15199386E+04</rscale>
<asrwt>0</asrwt>
<pdfrwt beam="1">  1        1 0.13556825E+00 0.15199386E+04</pdfrwt>
<pdfrwt beam="2">  1       -1 0.10083409E+00 0.15199386E+04</pdfrwt>
<totfact> 0.17037202E+01</totfact>
</mgrwt>
</event>
<event>
 6    1  0.1014650E-006  0.2122013E+04  0.7818608E-02  0.8551608E-01
          1   -1    0    0  501    0  0.00000000000E+00  0.00000000000E+00  0.47771184515E+04  0.47771184515E+04  0.00000000000E+00 0. -1.
         -1   -1    0    0    0  501 -0.00000000000E+00 -0.00000000000E+00 -0.23565142950E+03  0.23565142950E+03  0.00000000000E+00 0.  1.
         23    2    1    2    0    0  0.20667477751E+03  0.16248484616E+03  0.46983729126E+04  0.47066077551E+04  0.91283872982E+02 0.  0.
         13    1    3    3    0    0 -0.17685870914E+00  0.32811889065E+02  0.42349702274E+03  0.42476626468E+03  0.00000000000E+00 0. -1.
        -13    1    3    3    0    0  0.20685163622E+03  0.12967295710E+03  0.42748758898E+04  0.42818414904E+04  0.00000000000E+00 0.  1.
         22    1    1    2    0    0 -0.20667477751E+03 -0.16248484616E+03 -0.15690589054E+03  0.30616212597E+03  0.00000000000E+00 0.  1.
<mgrwt>
<rscale>  0 0.21220130E+04</rscale>
<asrwt>0</asrwt>
<pdfrwt beam="1">  1        1 0.73494123E+00 0.21220130E+04</pdfrwt>
<pdfrwt beam="2">  1       -1 0.36254069E-01 0.21220130E+04</pdfrwt>
<totfact> 0.10928236E-01</totfact>
</mgrwt>
</event>
<event>
 6    1  0.1014650E-006  0.2196720E+04  0.7818608E-02  0.8519795E-01
         -1   -1    0    0    0  501 -0.00000000000E+00  0.00000000000E+00  0.53404404316E+03  0.53404404316E+03  0.00000000000E+00 0.  1.
          1   -1    0    0  501    0  0.00000000000E+00 -0.00000000000E+00 -0.22589793554E+04  0.22589793554E+04  0.00000000000E+00 0. -1.
         23    2    1    2    0    0  0.10839590014E+04 -0.49391532158E+02 -0.66282266054E+03  0.12746394138E+04  0.89247496479E+02 0.  0.
         13    1    3    3    0    0  0.64548753254E+03 -0.12379629086E+02 -0.34653226627E+03  0.73272915968E+03  0.00000000000E+00 0.  1.
        -13    1    3    3    0    0  0.43847146890E+03 -0.37011903072E+02 -0.31629039427E+03  0.54191025412E+03  0.00000000000E+00 0. -1.
         22    1    1    2    0    0 -0.10839590014E+04  0.49391532158E+02 -0.10621126517E+04  0.15183839847E+04  0.00000000000E+00 0. -1.
<mgrwt>
<rscale>  0 0.21967198E+04</rscale>
<asrwt>0</asrwt>
<pdfrwt beam="1">  1        1 0.34753529E+00 0.21967198E+04</pdfrwt>
<pdfrwt beam="2">  1       -1 0.82160622E-01 0.21967198E+04</pdfrwt>
<totfact> 0.26675726E+00</totfact>
</mgrwt>
</event>
<event>
 6    1  0.1014650E-006  0.2274470E+04  0.7818608E-02  0.8488056E-01
         -2   -1    0    0    0  501 -0.00000000000E+00  0.00000000000E+00  0.77902603888E+03  0.77902603888E+03  0.00000000000E+00 0.  1.
          2   -1    0    0  501    0  0.00000000000E+00 -0.00000000000E+00 -0.16601541695E+04  0.16601541695E+04  0.00000000000E+00 0. -1.
         23    2    1    2    0    0 -0.52426990974E+03  0.99897796905E+02  0.63343426198E+03  0.83333533754E+03  0.91489411758E+02 0.  0.
         11    1    3    3    0    0 -0.31800869385E+03  0.82454692848E+02  0.44712152134E+03  0.55483867978E+03  0.00000000000E+00 0.  1.
        -11    1    3    3    0    0 -0.20626121590E+03  0.17443104057E+02  0.18631274064E+03  0.27849665777E+03  0.00000000000E+00 0. -1.
         22    1    1    2    0    0  0.52426990974E+03 -0.99897796905E+02 -0.15145623926E+04  0.16058448708E+04  0.00000000000E+00 0. -1.
<mgrwt>
<rscale>  0 0.22744699E+04</rscale>
<asrwt>0</asrwt>
<pdfrwt beam="1">  1        2 0.25540833E+00 0.22744699E+04</pdfrwt>
<pdfrwt beam="2">  1       -2 0.11985016E+00 0.22744699E+04</pdfrwt>
<totfact> 0.49953085E+00</totfact>
</mgrwt>
</event>
<event>
 6    1  0.1014650E-006  0.2417021E+04  0.7818608E-02  0.8433158E-01
          1   -1    0    0  501    0  0.00000000000E+00  0.00000000000E+00  0.19809956358E+04  0.19809956358E+04  0.00000000000E+00 0. -1.
         -1   -1    0    0    0  501 -0.00000000000E+00 -0.00000000000E+00 -0.73725454440E+03  0.73725454440E+03  0.00000000000E+00 0.  1.
         23    2    1    2    0    0  0.20869579089E+02  0.90366309958E+03 -0.27646291414E+03  0.94961716137E+03  0.91095957073E+02 0.  0.
         13    1    3    3    0    0  0.56391242194E+02  0.49485900766E+03 -0.15771778852E+03  0.52243689617E+03  0.00000000000E+00 0. -1.
        -13    1    3    3    0    0 -0.35521663106E+02  0.40880409192E+03 -0.11874512562E+03  0.42718026520E+03  0.00000000000E+00 0.  1.
         22    1    1    2    0    0 -0.20869579089E+02 -0.90366309958E+03  0.15202040056E+04  0.17686330189E+04  0.00000000000E+00 0. -1.
<mgrwt>
<rscale>  0 0.24170213E+04</rscale>
<asrwt>0</asrwt>
<pdfrwt beam="1">  1        1 0.30476856E+00 0.24170213E+04</pdfrwt>
<pdfrwt beam="2">  1       -1 0.11342378E+00 0.24170213E+04</pdfrwt>
<totfact> 0.19485618E+00</totfact>
</mgrwt>
</event>
<event>
 6    1  0.1014650E-006  0.2381417E+04  0.7818608E-02  0.8446494E-01
          2   -1    0    0  501    0  0.00000000000E+00  0.00000000000E+00  0.94078833699E+03  0.94078833699E+03  0.00000000000E+00 0. -1.
         -2   -1    0    0    0  501 -0.00000000000E+00 -0.00000000000E+00 -0.15070196837E+04  0.15070196837E+04  0.00000000000E+00 0.  1.
         23    2    1    2    0    0  0.11768425535E+04 -0.61214041611E-01 -0.45774166459E+03  0.12659753716E+04  0.90596966915E+02 0.  0.
         11    1    3    3    0    0  0.16236196606E+03  0.31333240773E+02 -0.64586711352E+02  0.17752358515E+03  0.00000000000E+00 0.  1.
        -11    1    3    3    0    0  0.10144805874E+04 -0.31394454814E+02 -0.39315495324E+03  0.10884517864E+04  0.00000000000E+00 0. -1.
         22    1    1    2    0    0 -0.11768425535E+04  0.61214041611E-01 -0.10848968214E+03  0.11818326492E+04  0.00000000000E+00 0. -1.
<mgrwt>
<rscale>  0 0.23814168E+04</rscale>
<asrwt>0</asrwt>
<pdfrwt beam="1">  1        2 0.14473667E+00 0.23814168E+04</pdfrwt>
<pdfrwt beam="2">  1       -2 0.23184918E+00 0.23814168E+04</pdfrwt>
<totfact> 0.20638915E+00</totfact>
</mgrwt>
</event>
<event>
 6    1  0.1014650E-006  0.3399878E+04  0.7818608E-02  0.8137936E-01
          2   -1    0    0  501    0  0.00000000000E+00  0.00000000000E+00  0.20967571780E+04  0.20967571780E+04  0.00000000000E+00 0. -1.
         -2   -1    0    0    0  501 -0.00000000000E+00 -0.00000000000E+00 -0.13782199816E+04  0.13782199816E+04  0.00000000000E+00 0.  1.
         23    2    1    2    0    0 -0.47202991605E+03  0.59005160754E+03  0.19144289489E+04  0.20603640589E+04  0.95334744947E+02 0.  0.
         11    1    3    3    0    0 -0.32007052697E+03  0.42771602117E+03  0.14545236258E+04  0.15495241576E+04  0.00000000000E+00 0. -1.
        -11    1    3    3    0    0 -0.15195938909E+03  0.16233558637E+03  0.45990532311E+03  0.51083990130E+03  0.00000000000E+00 0.  1.
         22    1    1    2    0    0  0.47202991605E+03 -0.59005160754E+03 -0.11958917525E+04  0.14146131007E+04  0.00000000000E+00 0.  1.
<mgrwt>
<rscale>  0 0.33998780E+04</rscale>
<asrwt>0</asrwt>
<pdfrwt beam="1">  1        2 0.32257803E+00 0.33998780E+04</pdfrwt>
<pdfrwt beam="2">  1       -2 0.21203384E+00 0.33998780E+04</pdfrwt>
<totfact> 0.54315469E-01</totfact>
</mgrwt>
</event>
<event>
 6    1  0.1014650E-006  0.1775222E+04  0.7818608E-02  0.8719588E-01
         -1   -1    0    0    0  501 -0.00000000000E+00  0.00000000000E+00  0.47214801502E+03  0.47214801502E+03  0.00000000000E+00 0.  1.
          1   -1    0    0  501    0  0.00000000000E+00 -0.00000000000E+00 -0.16686578573E+04  0.16686578573E+04  0.00000000000E+00 0. -1.
         23    2    1    2    0    0 -0.77485621059E+03 -0.21574365589E+03 -0.10457377458E+04  0.13224662746E+04  0.91663200512E+02 0.  0.
         13    1    3    3    0    0 -0.48801284854E+03 -0.17490723677E+03 -0.70747977394E+03  0.87708421052E+03  0.00000000000E+00 0. -1.
        -13    1    3    3    0    0 -0.28684336205E+03 -0.40836419122E+02 -0.33825797188E+03  0.44538206409E+03  0.00000000000E+00 0.  1.
         22    1    1    2    0    0  0.77485621059E+03  0.21574365589E+03 -0.15077209650E+03  0.81833959774E+03  0.00000000000E+00 0.  1.
<mgrwt>
<rscale>  0 0.17752222E+04</rscale>
<asrwt>0</asrwt>
<pdfrwt beam="1">  1        1 0.25671659E+00 0.17752222E+04</pdfrwt>
<pdfrwt beam="2">  1       -1 0.72638156E-01 0.17752222E+04</pdfrwt>
<totfact> 0.90486998E+00</totfact>
</mgrwt>
</event>
<event>
 6    1  0.1014650E-006  0.1338483E+04  0.7818608E-02  0.8999593E-01
         -2   -1    0    0    0  501 -0.00000000000E+00  0.00000000000E+00  0.49189099030E+03  0.49189099030E+03  0.00000000000E+00 0.  1.
          2   -1    0    0  501    0  0.00000000000E+00 -0.00000000000E+00 -0.91053521916E+03  0.91053521916E+03  0.00000000000E+00 0. -1.
         23    2    1    2    0    0  0.18861659843E+03  0.59038680545E+03  0.45771003929E+02  0.62794941206E+03  0.89959313323E+02 0.  0.
         11    1    3    3    0    0  0.12188431020E+03  0.39309852373E+03 -0.12272583203E+02  0.41174367115E+03  0.00000000000E+00 0.  1.
        -11    1    3    3    0    0  0.66732288230E+02  0.19728828172E+03  0.58043587132E+02  0.21620574091E+03  0.00000000000E+00 0. -1.
         22    1    1    2    0    0 -0.18861659843E+03 -0.59038680545E+03 -0.46441523280E+03  0.77447679740E+03  0.00000000000E+00 0. -1.
<mgrwt>
<rscale>  0 0.13384828E+04</rscale>
<asrwt>0</asrwt>
<pdfrwt beam="1">  1        2 0.14008234E+00 0.13384828E+04</pdfrwt>
<pdfrwt beam="2">  1       -2 0.75675537E-01 0.13384828E+04</pdfrwt>
<totfact> 0.44152982E+01</totfact>
</mgrwt>
</event>
<event>
 6    1  0.1839418E-006  0.2472292E+04  0.7818608E-02  0.8412924E-01
         -2   -1    0    0    0  501 -0.00000000000E+00  0.00000000000E+00  0.75997224871E+03  0.75997224871E+03  0.00000000000E+00 0.  1.
          2   -1    0    0  501    0  0.00000000000E+00 -0.00000000000E+00 -0.20106739642E+04  0.20106739642E+04  0.00000000000E+00 0. -1.
         23    2    1    2    0    0 -0.71298776940E+03 -0.55815852082E+03 -0.15665287548E+04  0.18116680002E+04  0.90753014449E+02 0.  0.
         13    1    3    3    0    0 -0.32359257780E+03 -0.24502298087E+03 -0.61402375427E+03  0.73605270760E+03  0.00000000000E+00 0. -1.
        -13    1    3    3    0    0 -0.38939519160E+03 -0.31313553995E+03 -0.95250500052E+03  0.10756152926E+04  0.00000000000E+00 0.  1.
         22    1    1    2    0    0  0.71298776940E+03  0.55815852082E+03  0.31582703933E+03  0.95897821271E+03  0.00000000000E+00 0.  1.
<mgrwt>
<rscale>  0 0.24722916E+04</rscale>
<asrwt>0</asrwt>
<pdfrwt beam="1">  1        2 0.30933446E+00 0.24722916E+04</pdfrwt>
<pdfrwt beam="2">  1       -2 0.11691881E+00 0.24722916E+04</pdfrwt>
<totfact> 0.33358380E+00</totfact>
</mgrwt>
</event>
<event>
 6    1  0.1014650E-006  0.4947387E+03  0.7818608E-02  0.1015161E+00
          2   -1    0    0  501    0  0.00000000000E+00  0.00000000000E+00  0.12226128335E+04  0.12226128335E+04  0.00000000000E+00 0. -1.
         -2   -1    0    0    0  501 -0.00000000000E+00 -0.00000000000E+00 -0.50049853457E+02  0.50049853457E+02  0.00000000000E+00 0.  1.
         23    2    1    2    0    0  0.78775144855E+02  0.70898165254E+02  0.11572935025E+04  0.11655868717E+04  0.89623831827E+02 0.  0.
         13    1    3    3    0    0 -0.16938076650E+00  0.56772533234E+02  0.57512879784E+03  0.57792411555E+03  0.00000000000E+00 0. -1.
        -13    1    3    3    0    0  0.78944525622E+02  0.14125632020E+02  0.58216470464E+03  0.58766275612E+03  0.00000000000E+00 0.  1.
         22    1    1    2    0    0 -0.78775144855E+02 -0.70898165254E+02  0.15269477605E+02  0.10707581534E+03  0.00000000000E+00 0.  1.
<mgrwt>
<rscale>  0 0.49473869E+03</rscale>
<asrwt>0</asrwt>
<pdfrwt beam="1">  1        2 0.18809426E+00 0.49473869E+03</pdfrwt>
<pdfrwt beam="2">  1       -2 0.76999784E-02 0.49473869E+03</pdfrwt>
<totfact> 0.19424333E+03</totfact>
</mgrwt>
</event>
<event>
 6    1  0.1014650E-006  0.2527073E+04  0.7818608E-02  0.8393404E-01
         -1   -1    0    0    0  501 -0.00000000000E+00  0.00000000000E+00  0.84401903514E+03  0.84401903514E+03  0.00000000000E+00 0.  1.
          1   -1    0    0  501    0  0.00000000000E+00 -0.00000000000E+00 -0.18915735218E+04  0.18915735218E+04  0.00000000000E+00 0. -1.
         23    2    1    2    0    0  0.12527891653E+04 -0.14637087952E+03 -0.55791258466E+03  0.13825758093E+04  0.96665864131E+02 0.  0.
         13    1    3    3    0    0  0.54724251239E+03 -0.16175790057E+02 -0.23429371689E+03  0.59550782474E+03  0.00000000000E+00 0. -1.
        -13    1    3    3    0    0  0.70554665293E+03 -0.13019508946E+03 -0.32361886777E+03  0.78706798458E+03  0.00000000000E+00 0.  1.
         22    1    1    2    0    0 -0.12527891653E+04  0.14637087952E+03 -0.48964190199E+03  0.13530167476E+04  0.00000000000E+00 0.  1.
<mgrwt>
<rscale>  0 0.25270727E+04</rscale>
<asrwt>0</asrwt>
<pdfrwt beam="1">  1        1 0.29101131E+00 0.25270727E+04</pdfrwt>
<pdfrwt beam="2">  1       -1 0.12984908E+00 0.25270727E+04</pdfrwt>
<totfact> 0.15913329E+00</totfact>
</mgrwt>
</event>
<event>
 6    1  0.1014650E-006  0.2292087E+04  0.7818608E-02  0.8481048E-01
         -1   -1    0    0    0  501 -0.00000000000E+00  0.00000000000E+00  0.12001678300E+04  0.12001678300E+04  0.00000000000E+00 0.  1.
          1   -1    0    0  501    0  0.00000000000E+00 -0.00000000000E+00 -0.10943598246E+04  0.10943598246E+04  0.00000000000E+00 0. -1.
         23    2    1    2    0    0 -0.25108941892E+03  0.67496619541E+03 -0.83714831541E+03  0.11080235947E+04  0.90960008946E+02 0.  0.
         13    1    3    3    0    0 -0.17630731837E+03  0.35563938341E+03 -0.48678002458E+03  0.62810702422E+03  0.00000000000E+00 0. -1.
        -13    1    3    3    0    0 -0.74782100553E+02  0.31932681200E+03 -0.35036829083E+03  0.47991657051E+03  0.00000000000E+00 0.  1.
         22    1    1    2    0    0  0.25108941892E+03 -0.67496619541E+03  0.94295632083E+03  0.11865040599E+04  0.00000000000E+00 0.  1.
<mgrwt>
<rscale>  0 0.22920868E+04</rscale>
<asrwt>0</asrwt>
<pdfrwt beam="1">  1        1 0.16836305E+00 0.22920868E+04</pdfrwt>
<pdfrwt beam="2">  1       -1 0.18464121E+00 0.22920868E+04</pdfrwt>
<totfact> 0.22328697E+00</totfact>
</mgrwt>
</event>
<event>
 6    1  0.1014650E-006  0.1066986E+04  0.7818608E-02  0.9237980E-01
         -2   -1    0    0    0  501 -0.00000000000E+00  0.00000000000E+00  0.22575423485E+03  0.22575423485E+03  0.00000000000E+00 0.  1.
          2   -1    0    0  501    0  0.00000000000E+00 -0.00000000000E+00 -0.12607294641E+04  0.12607294641E+04  0.00000000000E+00 0. -1.
         23    2    1    2    0    0 -0.20447164705E+03  0.11939480795E+03  0.13845721599E+03  0.28940079533E+03  0.92296506255E+02 0.  0.
         11    1    3    3    0    0 -0.17820673547E+03  0.11040996318E+03  0.15157839209E+03  0.25869675198E+03  0.00000000000E+00 0.  1.
        -11    1    3    3    0    0 -0.26264911581E+02  0.89848447667E+01 -0.13121176102E+02  0.30704043352E+02  0.00000000000E+00 0. -1.
         22    1    1    2    0    0  0.20447164705E+03 -0.11939480795E+03 -0.11734324452E+04  0.11970829036E+04  0.00000000000E+00 0. -1.
<mgrwt>
<rscale>  0 0.10669864E+04</rscale>
<asrwt>0</asrwt>
<pdfrwt beam="1">  1        2 0.19395838E+00 0.10669864E+04</pdfrwt>
<pdfrwt beam="2">  1       -2 0.34731420E-01 0.10669864E+04</pdfrwt>
<totfact> 0.13466937E+02</totfact>
</mgrwt>
</event>
<event>
 6    1  0.1014650E-006  0.1134477E+04  0.7818608E-02  0.9172225E-01
         -2   -1    0    0    0  501 -0.00000000000E+00  0.00000000000E+00  0.37280241012E+03  0.37280241012E+03  0.00000000000E+00 0.  1.
          2   -1    0    0  501    0  0.00000000000E+00 -0.00000000000E+00 -0.86308373997E+03  0.86308373997E+03  0.00000000000E+00 0. -1.
         23    2    1    2    0    0 -0.44914638743E+03 -0.21011857008E+03  0.46080054152E+02  0.50543024788E+03  0.86336974977E+02 0.  0.
         11    1    3    3    0    0 -0.35353308610E+03 -0.17244519040E+03  0.70950354064E+02  0.39969605878E+03  0.00000000000E+00 0.  1.
        -11    1    3    3    0    0 -0.95613301329E+02 -0.37673379672E+02 -0.24870299912E+02  0.10573418910E+03  0.00000000000E+00 0. -1.
         22    1    1    2    0    0  0.44914638743E+03  0.21011857008E+03 -0.53636138400E+03  0.73045590221E+03  0.00000000000E+00 0. -1.
<mgrwt>
<rscale>  0 0.11344773E+04</rscale>
<asrwt>0</asrwt>
<pdfrwt beam="1">  1        2 0.13278211E+00 0.11344773E+04</pdfrwt>
<pdfrwt beam="2">  1       -2 0.57354217E-01 0.11344773E+04</pdfrwt>
<totfact> 0.87726236E+01</totfact>
</mgrwt>
</event>
<event>
 6    1  0.1014650E-006  0.1354927E+04  0.7818608E-02  0.8987107E-01
         -1   -1    0    0    0  501 -0.00000000000E+00  0.00000000000E+00  0.82661161192E+03  0.82661161192E+03  0.00000000000E+00 0.  1.
          1   -1    0    0  501    0  0.00000000000E+00 -0.00000000000E+00 -0.55522628970E+03  0.55522628970E+03  0.00000000000E+00 0. -1.
         23    2    1    2    0    0  0.55687574450E+03 -0.30522149612E+03  0.36783325533E+03  0.73951947567E+03  0.91197558401E+02 0.  0.
         11    1    3    3    0    0  0.15995786805E+03 -0.42370296215E+02  0.92654352895E+02  0.18964859784E+03  0.00000000000E+00 0. -1.
        -11    1    3    3    0    0  0.39691787645E+03 -0.26285119990E+03  0.27517890244E+03  0.54987087783E+03  0.00000000000E+00 0.  1.
         22    1    1    2    0    0 -0.55687574450E+03  0.30522149612E+03 -0.96447933113E+02  0.64231842595E+03  0.00000000000E+00 0. -1.
<mgrwt>
<rscale>  0 0.13549266E+04</rscale>
<asrwt>0</asrwt>
<pdfrwt beam="1">  1        1 0.85419429E-01 0.13549266E+04</pdfrwt>
<pdfrwt beam="2">  1       -1 0.12717102E+00 0.13549266E+04</pdfrwt>
<totfact> 0.20081154E+01</totfact>
</mgrwt>
</event>
<event>
 6    1  0.1014650E-006  0.4345732E+04  0.7818608E-02  0.7938216E-01
         -1   -1    0    0    0  501 -0.00000000000E+00  0.00000000000E+00  0.12847502198E+04  0.12847502198E+04  0.00000000000E+00 0.  1.
          1   -1    0    0  501    0  0.00000000000E+00 -0.00000000000E+00 -0.36749139207E+04  0.36749139207E+04  0.00000000000E+00 0. -1.
         23    2    1    2    0    0 -0.50369895955E+03  0.45337194950E+02 -0.36061037238E+04  0.36427441572E+04  0.99160599158E+02 0.  0.
         13    1    3    3    0    0 -0.39996291458E+03  0.76077047949E+02 -0.28664164208E+04  0.28951858572E+04  0.00000000000E+00 0.  1.
        -13    1    3    3    0    0 -0.10373604497E+03 -0.30739853000E+02 -0.73968730300E+03  0.74755829994E+03  0.00000000000E+00 0. -1.
         22    1    1    2    0    0  0.50369895955E+03 -0.45337194950E+02  0.12159400229E+04  0.13169199833E+04  0.00000000000E+00 0.  1.
<mgrwt>
<rscale>  0 0.43457319E+04</rscale>
<asrwt>0</asrwt>
<pdfrwt beam="1">  1        1 0.56537138E+00 0.43457319E+04</pdfrwt>
<pdfrwt beam="2">  1       -1 0.19765388E+00 0.43457319E+04</pdfrwt>
<totfact> 0.21460588E-02</totfact>
</mgrwt>
</event>
<event>
 6    1  0.1014650E-006  0.9858112E+03  0.7818608E-02  0.9324245E-01
         -3   -1    0    0    0  501 -0.00000000000E+00  0.00000000000E+00  0.20399915502E+03  0.20399915502E+03  0.00000000000E+00 0.  1.
          3   -1    0    0  501    0  0.00000000000E+00 -0.00000000000E+00 -0.11909653411E+04  0.11909653411E+04  0.00000000000E+00 0. -1.
         23    2    1    2    0    0  0.34156786731E+03  0.21089073468E+03 -0.89225548979E+03  0.98251616487E+03  0.89859029627E+02 0.  0.
         13    1    3    3    0    0  0.88792480017E+02  0.69304595986E+02 -0.16604653655E+03  0.20064566736E+03  0.00000000000E+00 0. -1.
        -13    1    3    3    0    0  0.25277538730E+03  0.14158613869E+03 -0.72620895324E+03  0.78187049750E+03  0.00000000000E+00 0.  1.
         22    1    1    2    0    0 -0.34156786731E+03 -0.21089073468E+03 -0.94710696282E+02  0.41244833124E+03  0.00000000000E+00 0.  1.
<mgrwt>
<rscale>  0 0.98581119E+03</rscale>
<asrwt>0</asrwt>
<pdfrwt beam="1">  1        3 0.18322544E+00 0.98581119E+03</pdfrwt>
<pdfrwt beam="2">  1       -3 0.31384485E-01 0.98581119E+03</pdfrwt>
<totfact> 0.49380016E+00</totfact>
</mgrwt>
</event>
<event>
 6    1  0.1014650E-006  0.4465625E+04  0.7818608E-02  0.7916683E-01
          2   -1    0    0  501    0  0.00000000000E+00  0.00000000000E+00  0.22680177904E+04  0.22680177904E+04  0.00000000000E+00 0. -1.
         -2   -1    0    0    0  501 -0.00000000000E+00 -0.00000000000E+00 -0.21981534472E+04  0.21981534472E+04  0.00000000000E+00 0.  1.
         23    2    1    2    0    0 -0.14374232291E+04 -0.94635907643E+03  0.14562358263E+04  0.22562375440E+04  0.90576111165E+02 0.  0.
         11    1    3    3    0    0 -0.79432345575E+03 -0.55594764298E+03  0.77335581151E+03  0.12402043159E+04  0.00000000000E+00 0.  1.
        -11    1    3    3    0    0 -0.64309977340E+03 -0.39041143345E+03  0.68288001477E+03  0.10160332280E+04  0.00000000000E+00 0. -1.
         22    1    1    2    0    0  0.14374232291E+04  0.94635907643E+03 -0.13863714831E+04  0.22099336936E+04  0.00000000000E+00 0.  1.
<mgrwt>
<rscale>  0 0.44656248E+04</rscale>
<asrwt>0</asrwt>
<pdfrwt beam="1">  1        2 0.34892581E+00 0.44656248E+04</pdfrwt>
<pdfrwt beam="2">  1       -2 0.33817745E+00 0.44656248E+04</pdfrwt>
<totfact> 0.66296877E-02</totfact>
</mgrwt>
</event>
<event>
 6    1  0.1014650E-006  0.2167241E+04  0.7818608E-02  0.8532188E-01
          2   -1    0    0  501    0  0.00000000000E+00  0.00000000000E+00  0.21002981425E+04  0.21002981425E+04  0.00000000000E+00 0. -1.
         -2   -1    0    0    0  501 -0.00000000000E+00 -0.00000000000E+00 -0.55907922106E+03  0.55907922106E+03  0.00000000000E+00 0.  1.
         23    2    1    2    0    0  0.54591015008E+03  0.90200560221E+03  0.10682895937E+04  0.15038280797E+04  0.92866780279E+02 0.  0.
         13    1    3    3    0    0  0.35339449778E+03  0.52371355002E+03  0.68571870627E+03  0.93240211157E+03  0.00000000000E+00 0. -1.
        -13    1    3    3    0    0  0.19251565230E+03  0.37829205219E+03  0.38257088741E+03  0.57142596810E+03  0.00000000000E+00 0.  1.
         22    1    1    2    0    0 -0.54591015008E+03 -0.90200560221E+03  0.47292932773E+03  0.11555492839E+04  0.00000000000E+00 0.  1.
<mgrwt>
<rscale>  0 0.21672407E+04</rscale>
<asrwt>0</asrwt>
<pdfrwt beam="1">  1        2 0.32312279E+00 0.21672407E+04</pdfrwt>
<pdfrwt beam="2">  1       -2 0.86012189E-01 0.21672407E+04</pdfrwt>
<totfact> 0.63126164E+00</totfact>
</mgrwt>
</event>
<event>
 6    1  0.1014650E-006  0.4876520E+04  0.7818608E-02  0.7847843E-01
          1   -1    0    0  501    0  0.00000000000E+00  0.00000000000E+00  0.25506365906E+04  0.25506365906E+04  0.00000000000E+00 0. -1.
         -1   -1    0    0    0  501 -0.00000000000E+00 -0.00000000000E+00 -0.23308344594E+04  0.23308344594E+04  0.00000000000E+00 0.  1.
         23    2    1    2    0    0 -0.14180448515E+03 -0.21946695456E+04  0.11613588443E+04  0.24891474994E+04  0.10206851724E+03 0.  0.
         13    1    3    3    0    0 -0.10644382042E+03 -0.11552892034E+04  0.56728088879E+03  0.12914453288E+04  0.00000000000E+00 0.  1.
        -13    1    3    3    0    0 -0.35360664728E+02 -0.10393803422E+04  0.59407795548E+03  0.11977021707E+04  0.00000000000E+00 0. -1.
         22    1    1    2    0    0  0.14180448515E+03  0.21946695456E+04 -0.94155671309E+03  0.23923235506E+04  0.00000000000E+00 0.  1.
<mgrwt>
<rscale>  0 0.48765199E+04</rscale>
<asrwt>0</asrwt>
<pdfrwt beam="1">  1        1 0.39240563E+00 0.48765199E+04</pdfrwt>
<pdfrwt beam="2">  1       -1 0.35858991E+00 0.48765199E+04</pdfrwt>
<totfact> 0.12408045E-02</totfact>
</mgrwt>
</event>
<event>
 6    1  0.1014650E-006  0.1956923E+04  0.7818608E-02  0.8627030E-01
          1   -1    0    0  501    0  0.00000000000E+00  0.00000000000E+00  0.29263737601E+04  0.29263737601E+04  0.00000000000E+00 0. -1.
         -1   -1    0    0    0  501 -0.00000000000E+00 -0.00000000000E+00 -0.32715796389E+03  0.32715796389E+03  0.00000000000E+00 0.  1.
         23    2    1    2    0    0 -0.54491057663E+03 -0.54415717548E+02 -0.43256565692E+02  0.55491193042E+03  0.78533516459E+02 0.  0.
         13    1    3    3    0    0 -0.35304160672E+03 -0.40483535295E+01 -0.62519297242E+01  0.35312016633E+03  0.00000000000E+00 0.  1.
        -13    1    3    3    0    0 -0.19186896991E+03 -0.50367364018E+02 -0.37004635967E+02  0.20179176409E+03  0.00000000000E+00 0. -1.
         22    1    1    2    0    0  0.54491057663E+03  0.54415717548E+02  0.26424723619E+04  0.26986197936E+04  0.00000000000E+00 0. -1.
<mgrwt>
<rscale>  0 0.19569226E+04</rscale>
<asrwt>0</asrwt>
<pdfrwt beam="1">  1        1 0.45021133E+00 0.19569226E+04</pdfrwt>
<pdfrwt beam="2">  1       -1 0.50331996E-01 0.19569226E+04</pdfrwt>
<totfact> 0.24998452E+00</totfact>
</mgrwt>
</event>
<event>
 6    1  0.1014650E-006  0.1467913E+04  0.7818608E-02  0.8906075E-01
         -1   -1    0    0    0  501 -0.00000000000E+00  0.00000000000E+00  0.50357336545E+03  0.50357336545E+03  0.00000000000E+00 0.  1.
          1   -1    0    0  501    0  0.00000000000E+00 -0.00000000000E+00 -0.10697394268E+04  0.10697394268E+04  0.00000000000E+00 0. -1.
         23    2    1    2    0    0  0.25171458756E+03  0.53806823306E+03  0.17262903303E+03  0.62531709156E+03  0.91340160632E+02 0.  0.
         13    1    3    3    0    0  0.18528548906E+03  0.33183934267E+03  0.14549657599E+03  0.40696107360E+03  0.00000000000E+00 0.  1.
        -13    1    3    3    0    0  0.66429098501E+02  0.20622889039E+03  0.27132457041E+02  0.21835601797E+03  0.00000000000E+00 0. -1.
         22    1    1    2    0    0 -0.25171458756E+03 -0.53806823306E+03 -0.73879509434E+03  0.94799570064E+03  0.00000000000E+00 0. -1.
<mgrwt>
<rscale>  0 0.14679132E+04</rscale>
<asrwt>0</asrwt>
<pdfrwt beam="1">  1        1 0.16457530E+00 0.14679132E+04</pdfrwt>
<pdfrwt beam="2">  1       -1 0.77472825E-01 0.14679132E+04</pdfrwt>
<totfact> 0.21651575E+01</totfact>
</mgrwt>
</event>
<event>
 6    1  0.1014650E-006  0.2240336E+04  0.7818608E-02  0.8501825E-01
          1   -1    0    0  501    0  0.00000000000E+00  0.00000000000E+00  0.14873608872E+04  0.14873608872E+04  0.00000000000E+00 0. -1.
         -1   -1    0    0    0  501 -0.00000000000E+00 -0.00000000000E+00 -0.84362581904E+03  0.84362581904E+03  0.00000000000E+00 0.  1.
         23    2    1    2    0    0  0.51151646317E+03  0.51382029002E+03 -0.56349476817E+03  0.92277356178E+03  0.91237656943E+02 0.  0.
         11    1    3    3    0    0  0.16332577908E+03  0.22616432825E+03 -0.20686794159E+03  0.34730384211E+03  0.00000000000E+00 0.  1.
        -11    1    3    3    0    0  0.34819068409E+03  0.28765596177E+03 -0.35662682658E+03  0.57546971968E+03  0.00000000000E+00 0. -1.
         22    1    1    2    0    0 -0.51151646317E+03 -0.51382029002E+03  0.12072298364E+04  0.14082131445E+04  0.00000000000E+00 0.  1.
<mgrwt>
<rscale>  0 0.22403357E+04</rscale>
<asrwt>0</asrwt>
<pdfrwt beam="1">  1        1 0.22882475E+00 0.22403357E+04</pdfrwt>
<pdfrwt beam="2">  1       -1 0.12978859E+00 0.22403357E+04</pdfrwt>
<totfact> 0.30884131E+00</totfact>
</mgrwt>
</event>
<event>
 6    1  0.1014650E-006  0.3023691E+04  0.7818608E-02  0.8236998E-01
         -2   -1    0    0    0  501 -0.00000000000E+00  0.00000000000E+00  0.98063354756E+03  0.98063354756E+03  0.00000000000E+00 0.  1.
          2   -1    0    0  501    0  0.00000000000E+00 -0.00000000000E+00 -0.23308163433E+04  0.23308163433E+04  0.00000000000E+00 0. -1.
         23    2    1    2    0    0  0.52844498518E+03  0.28482446622E+03  0.84225000396E+03  0.10383153458E+04  0.91294080665E+02 0.  0.
         13    1    3    3    0    0  0.20730074626E+03  0.10910955864E+03  0.25465525505E+03  0.34601704310E+03  0.00000000000E+00 0. -1.
        -13    1    3    3    0    0  0.32114423892E+03  0.17571490757E+03  0.58759474890E+03  0.69229830266E+03  0.00000000000E+00 0.  1.
         22    1    1    2    0    0 -0.52844498518E+03 -0.28482446622E+03 -0.21924327997E+04  0.22731345451E+04  0.00000000000E+00 0. -1.
<mgrwt>
<rscale>  0 0.30236909E+04</rscale>
<asrwt>0</asrwt>
<pdfrwt beam="1">  1        2 0.35858713E+00 0.30236909E+04</pdfrwt>
<pdfrwt beam="2">  1       -2 0.15086670E+00 0.30236909E+04</pdfrwt>
<totfact> 0.10975921E+00</totfact>
</mgrwt>
</event>
<event>
 6    1  0.1014650E-006  0.6111889E+04  0.7818608E-02  0.7676682E-01
          1   -1    0    0  501    0  0.00000000000E+00  0.00000000000E+00  0.47080663098E+04  0.47080663098E+04  0.00000000000E+00 0. -1.
         -1   -1    0    0    0  501 -0.00000000000E+00 -0.00000000000E+00 -0.19835736789E+04  0.19835736789E+04  0.00000000000E+00 0.  1.
         23    2    1    2    0    0  0.67844533484E+03 -0.26705915610E+04  0.28077705343E+04  0.39349603615E+04  0.89388559084E+02 0.  0.
         11    1    3    3    0    0  0.56263175531E+03 -0.23359785427E+04  0.24490232087E+04  0.34308985588E+04  0.00000000000E+00 0.  1.
        -11    1    3    3    0    0  0.11581357953E+03 -0.33461301835E+03  0.35874732561E+03  0.50406180264E+03  0.00000000000E+00 0. -1.
         22    1    1    2    0    0 -0.67844533484E+03  0.26705915610E+04 -0.83277903407E+02  0.27566796273E+04  0.00000000000E+00 0.  1.
<mgrwt>
<rscale>  0 0.61118889E+04</rscale>
<asrwt>0</asrwt>
<pdfrwt beam="1">  1        1 0.72431789E+00 0.61118889E+04</pdfrwt>
<pdfrwt beam="2">  1       -1 0.30516518E+00 0.61118889E+04</pdfrwt>
<totfact> 0.38599462E-04</totfact>
</mgrwt>
</event>
<event>
 6    1  0.1014650E-006  0.1227100E+04  0.7818608E-02  0.9089461E-01
          1   -1    0    0  501    0  0.00000000000E+00  0.00000000000E+00  0.17005252528E+04  0.17005252528E+04  0.00000000000E+00 0. -1.
         -1   -1    0    0    0  501 -0.00000000000E+00 -0.00000000000E+00 -0.22136901056E+03  0.22136901056E+03  0.00000000000E+00 0.  1.
         23    2    1    2    0    0 -0.40755993651E+03  0.49649530452E+02  0.14512139301E+04  0.15103715416E+04  0.81425702650E+02 0.  0.
         11    1    3    3    0    0 -0.28958078763E+03  0.53288767931E+02  0.11433741897E+04  0.11806783063E+04  0.00000000000E+00 0. -1.
        -11    1    3    3    0    0 -0.11797914888E+03 -0.36392374787E+01  0.30783974037E+03  0.32969323525E+03  0.00000000000E+00 0.  1.
         22    1    1    2    0    0  0.40755993651E+03 -0.49649530452E+02  0.27942312147E+02  0.41152272177E+03  0.00000000000E+00 0.  1.
<mgrwt>
<rscale>  0 0.12271000E+04</rscale>
<asrwt>0</asrwt>
<pdfrwt beam="1">  1        1 0.26161926E+00 0.12271000E+04</pdfrwt>
<pdfrwt beam="2">  1       -1 0.34056772E-01 0.12271000E+04</pdfrwt>
<totfact> 0.38344188E+01</totfact>
</mgrwt>
</event>
<event>
 6    1  0.1014650E-006  0.2288844E+04  0.7818608E-02  0.8482333E-01
         -2   -1    0    0    0  501 -0.00000000000E+00  0.00000000000E+00  0.19534942522E+04  0.19534942522E+04  0.00000000000E+00 0.  1.
          2   -1    0    0  501    0  0.00000000000E+00 -0.00000000000E+00 -0.67044058361E+03  0.67044058361E+03  0.00000000000E+00 0. -1.
         23    2    1    2    0    0  0.43352620094E+03 -0.10543499247E+04  0.55627000953E+03  0.12719684096E+04  0.94173142239E+02 0.  0.
         11    1    3    3    0    0  0.33170481630E+03 -0.86635328505E+03  0.48352243985E+03  0.10461309906E+04  0.00000000000E+00 0. -1.
        -11    1    3    3    0    0  0.10182138464E+03 -0.18799663968E+03  0.72747569676E+02  0.22583741894E+03  0.00000000000E+00 0.  1.
         22    1    1    2    0    0 -0.43352620094E+03  0.10543499247E+04  0.72678365910E+03  0.13519664263E+04  0.00000000000E+00 0.  1.
<mgrwt>
<rscale>  0 0.22888441E+04</rscale>
<asrwt>0</asrwt>
<pdfrwt beam="1">  1        2 0.10314471E+00 0.22888441E+04</pdfrwt>
<pdfrwt beam="2">  1       -2 0.30053758E+00 0.22888441E+04</pdfrwt>
<totfact> 0.12388450E+00</totfact>
</mgrwt>
</event>
<event>
 6    1  0.1014650E-006  0.3928719E+04  0.7818608E-02  0.8019082E-01
         -1   -1    0    0    0  501 -0.00000000000E+00  0.00000000000E+00  0.15392616712E+04  0.15392616712E+04  0.00000000000E+00 0.  1.
          1   -1    0    0  501    0  0.00000000000E+00 -0.00000000000E+00 -0.25068571858E+04  0.25068571858E+04  0.00000000000E+00 0. -1.
         23    2    1    2    0    0  0.12195164472E+04  0.12207194430E+04  0.48049487730E+03  0.17934888149E+04  0.91380953076E+02 0.  0.
         11    1    3    3    0    0  0.73907093700E+03  0.76230738939E+03  0.33857217218E+03  0.11144368630E+04  0.00000000000E+00 0. -1.
        -11    1    3    3    0    0  0.48044551017E+03  0.45841205358E+03  0.14192270512E+03  0.67905195187E+03  0.00000000000E+00 0.  1.
         22    1    1    2    0    0 -0.12195164472E+04 -0.12207194430E+04 -0.14480903919E+04  0.22526300421E+04  0.00000000000E+00 0. -1.
<mgrwt>
<rscale>  0 0.39287195E+04</rscale>
<asrwt>0</asrwt>
<pdfrwt beam="1">  1        1 0.38567034E+00 0.39287195E+04</pdfrwt>
<pdfrwt beam="2">  1       -1 0.23680949E+00 0.39287195E+04</pdfrwt>
<totfact> 0.89758038E-02</totfact>
</mgrwt>
</event>
<event>
 6    1  0.1014650E-006  0.1540835E+04  0.7818608E-02  0.8857743E-01
          2   -1    0    0  501    0  0.00000000000E+00  0.00000000000E+00  0.17589157372E+04  0.17589157372E+04  0.00000000000E+00 0. -1.
         -2   -1    0    0    0  501 -0.00000000000E+00 -0.00000000000E+00 -0.33744832619E+03  0.33744832619E+03  0.00000000000E+00 0.  1.
         23    2    1    2    0    0 -0.67905298739E+03  0.35676574871E+03  0.69459454924E+03  0.10396053794E+04  0.99614245126E+02 0.  0.
         13    1    3    3    0    0 -0.34242856793E+03  0.23322779773E+03  0.35149473910E+03  0.54332410345E+03  0.00000000000E+00 0. -1.
        -13    1    3    3    0    0 -0.33662441946E+03  0.12353795097E+03  0.34309981013E+03  0.49628127591E+03  0.00000000000E+00 0.  1.
         22    1    1    2    0    0  0.67905298739E+03 -0.35676574871E+03  0.72687286180E+03  0.10567586841E+04  0.00000000000E+00 0.  1.
<mgrwt>
<rscale>  0 0.15408351E+04</rscale>
<asrwt>0</asrwt>
<pdfrwt beam="1">  1        2 0.27060242E+00 0.15408351E+04</pdfrwt>
<pdfrwt beam="2">  1       -2 0.51915128E-01 0.15408351E+04</pdfrwt>
<totfact> 0.30688097E+01</totfact>
</mgrwt>
</event>
<event>
 6    1  0.1014650E-006  0.2357735E+04  0.7818608E-02  0.8455499E-01
         -2   -1    0    0    0  501 -0.00000000000E+00  0.00000000000E+00  0.58731991956E+03  0.58731991956E+03  0.00000000000E+00 0.  1.
          2   -1    0    0  501    0  0.00000000000E+00 -0.00000000000E+00 -0.23662209146E+04  0.23662209146E+04  0.00000000000E+00 0. -1.
         23    2    1    2    0    0 -0.70597874589E+03  0.91134341336E+03 -0.59262487715E+03  0.12993933696E+04  0.90917969538E+02 0.  0.
         11    1    3    3    0    0 -0.42584797783E+03  0.47940873166E+03 -0.31331292229E+03  0.71368355696E+03  0.00000000000E+00 0.  1.
        -11    1    3    3    0    0 -0.28013076806E+03  0.43193468170E+03 -0.27931195486E+03  0.58570981262E+03  0.00000000000E+00 0. -1.
         22    1    1    2    0    0  0.70597874589E+03 -0.91134341336E+03 -0.11862761179E+04  0.16541474646E+04  0.00000000000E+00 0. -1.
<mgrwt>
<rscale>  0 0.23577351E+04</rscale>
<asrwt>0</asrwt>
<pdfrwt beam="1">  1        2 0.36403399E+00 0.23577351E+04</pdfrwt>
<pdfrwt beam="2">  1       -2 0.90356910E-01 0.23577351E+04</pdfrwt>
<totfact> 0.39270796E+00</totfact>
</mgrwt>
</event>
<event>
 6    1  0.1014650E-006  0.1281612E+04  0.7818608E-02  0.9044276E-01
          1   -1    0    0  501    0  0.00000000000E+00  0.00000000000E+00  0.70604694500E+03  0.70604694500E+03  0.00000000000E+00 0. -1.
         -1   -1    0    0    0  501 -0.00000000000E+00 -0.00000000000E+00 -0.58159328902E+03  0.58159328902E+03  0.00000000000E+00 0.  1.
         23    2    1    2    0    0 -0.17345016863E+03 -0.69408275931E+02 -0.54967843912E+03  0.58809999115E+03  0.93876213102E+02 0.  0.
         11    1    3    3    0    0 -0.94233265539E+02 -0.57942296646E+01 -0.36826853803E+03  0.38017784987E+03  0.00000000000E+00 0. -1.
        -11    1    3    3    0    0 -0.79216903091E+02 -0.63614046267E+02 -0.18140990109E+03  0.20792214127E+03  0.00000000000E+00 0.  1.
         22    1    1    2    0    0  0.17345016863E+03  0.69408275931E+02  0.67413209509E+03  0.69954024287E+03  0.00000000000E+00 0. -1.
<mgrwt>
<rscale>  0 0.12816117E+04</rscale>
<asrwt>0</asrwt>
<pdfrwt beam="1">  1        1 0.10862261E+00 0.12816117E+04</pdfrwt>
<pdfrwt beam="2">  1       -1 0.89475891E-01 0.12816117E+04</pdfrwt>
<totfact> 0.32387448E+01</totfact>
</mgrwt>
</event>
<event>
 6    1  0.1014650E-006  0.2824402E+04  0.7818608E-02  0.8295732E-01
         -2   -1    0    0    0  501 -0.00000000000E+00  0.00000000000E+00  0.83083784328E+03  0.83083784328E+03  0.00000000000E+00 0.  1.
          2   -1    0    0  501    0  0.00000000000E+00 -0.00000000000E+00 -0.24003617280E+04  0.24003617280E+04  0.00000000000E+00 0. -1.
         23    2    1    2    0    0 -0.77127903190E+03 -0.59179241938E+03 -0.19551193735E+04  0.21853633061E+04  0.90727076518E+02 0.  0.
         11    1    3    3    0    0 -0.46501359075E+03 -0.34779496356E+03 -0.12644194862E+04  0.13913862200E+04  0.00000000000E+00 0. -1.
        -11    1    3    3    0    0 -0.30626544116E+03 -0.24399745582E+03 -0.69069988732E+03  0.79397708609E+03  0.00000000000E+00 0.  1.
         22    1    1    2    0    0  0.77127903190E+03  0.59179241938E+03  0.38559548873E+03  0.10458362652E+04  0.00000000000E+00 0.  1.
<mgrwt>
<rscale>  0 0.28244018E+04</rscale>
<asrwt>0</asrwt>
<pdfrwt beam="1">  1        2 0.36928642E+00 0.28244018E+04</pdfrwt>
<pdfrwt beam="2">  1       -2 0.12782121E+00 0.28244018E+04</pdfrwt>
<totfact> 0.15638702E+00</totfact>
</mgrwt>
</event>
<event>
 6    1  0.1014650E-006  0.2554266E+04  0.7818608E-02  0.8383904E-01
         -1   -1    0    0    0  501 -0.00000000000E+00  0.00000000000E+00  0.22797458159E+04  0.22797458159E+04  0.00000000000E+00 0.  1.
          1   -1    0    0  501    0  0.00000000000E+00 -0.00000000000E+00 -0.71546087526E+03  0.71546087526E+03  0.00000000000E+00 0. -1.
         23    2    1    2    0    0  0.71325551232E+03  0.78949592092E+03 -0.41948727704E+02  0.10685453737E+04  0.89399579485E+02 0.  0.
         13    1    3    3    0    0  0.44975104282E+03  0.49696239625E+03 -0.69591641523E+02  0.67386246399E+03  0.00000000000E+00 0. -1.
        -13    1    3    3    0    0  0.26350446950E+03  0.29253352467E+03  0.27642913819E+02  0.39468290967E+03  0.00000000000E+00 0.  1.
         22    1    1    2    0    0 -0.71325551232E+03 -0.78949592092E+03  0.16062336683E+04  0.19266613175E+04  0.00000000000E+00 0.  1.
<mgrwt>
<rscale>  0 0.25542662E+04</rscale>
<asrwt>0</asrwt>
<pdfrwt beam="1">  1        1 0.11007090E+00 0.25542662E+04</pdfrwt>
<pdfrwt beam="2">  1       -1 0.35073012E+00 0.25542662E+04</pdfrwt>
<totfact> 0.35805969E-01</totfact>
</mgrwt>
</event>
<event>
 6    1  0.1014650E-006  0.3063817E+04  0.7818608E-02  0.8225739E-01
         -2   -1    0    0    0  501 -0.00000000000E+00  0.00000000000E+00  0.28023834263E+04  0.28023834263E+04  0.00000000000E+00 0.  1.
          2   -1    0    0  501    0  0.00000000000E+00 -0.00000000000E+00 -0.83740981170E+03  0.83740981170E+03  0.00000000000E+00 0. -1.
         23    2    1    2    0    0  0.12807005870E+04 -0.28686209350E+03  0.19189246389E+04  0.23265513097E+04  0.89918700197E+02 0.  0.
         13    1    3    3    0    0  0.38380643691E+03 -0.48599662087E+02  0.59799062438E+03  0.71222334630E+03  0.00000000000E+00 0. -1.
        -13    1    3    3    0    0  0.89689415008E+03 -0.23826243141E+03  0.13209340145E+04  0.16143279634E+04  0.00000000000E+00 0.  1.
         22    1    1    2    0    0 -0.12807005870E+04  0.28686209350E+03  0.46048975747E+02  0.13132419283E+04  0.00000000000E+00 0. -1.
<mgrwt>
<rscale>  0 0.30638168E+04</rscale>
<asrwt>0</asrwt>
<pdfrwt beam="1">  1        2 0.12883228E+00 0.30638168E+04</pdfrwt>
<pdfrwt beam="2">  1       -2 0.43113591E+00 0.30638168E+04</pdfrwt>
<totfact> 0.12749114E-01</totfact>
</mgrwt>
</event>
<event>
 6    1  0.1014650E-006  0.4127672E+04  0.7818608E-02  0.7979275E-01
         -2   -1    0    0    0  501 -0.00000000000E+00  0.00000000000E+00  0.16829703735E+04  0.16829703735E+04  0.00000000000E+00 0.  1.
          2   -1    0    0  501    0  0.00000000000E+00 -0.00000000000E+00 -0.25308931749E+04  0.25308931749E+04  0.00000000000E+00 0. -1.
         23    2    1    2    0    0 -0.68038166038E+03  0.19473612940E+04 -0.43272693205E+03  0.21096955839E+04  0.91802210975E+02 0.  0.
         11    1    3    3    0    0 -0.19180449727E+03  0.60375539347E+03 -0.17213689306E+03  0.65646069972E+03  0.00000000000E+00 0.  1.
        -11    1    3    3    0    0 -0.48857716312E+03  0.13436059005E+04 -0.26059003899E+03  0.14532348842E+04  0.00000000000E+00 0. -1.
         22    1    1    2    0    0  0.68038166038E+03 -0.19473612940E+04 -0.41519586931E+03  0.21041679645E+04  0.00000000000E+00 0.  1.
<mgrwt>
<rscale>  0 0.41276716E+04</rscale>
<asrwt>0</asrwt>
<pdfrwt beam="1">  1        2 0.38936818E+00 0.41276716E+04</pdfrwt>
<pdfrwt beam="2">  1       -2 0.25891852E+00 0.41276716E+04</pdfrwt>
<totfact> 0.14774138E-01</totfact>
</mgrwt>
</event>
<event>
 6    1  0.1014650E-006  0.4970997E+04  0.7818608E-02  0.7832997E-01
          1   -1    0    0  501    0  0.00000000000E+00  0.00000000000E+00  0.24916923932E+04  0.24916923932E+04  0.00000000000E+00 0. -1.
         -1   -1    0    0    0  501 -0.00000000000E+00 -0.00000000000E+00 -0.24793204083E+04  0.24793204083E+04  0.00000000000E+00 0.  1.
         23    2    1    2    0    0  0.27653081818E+03  0.21102084108E+04 -0.12760743853E+04  0.24831336083E+04  0.90210028571E+02 0.  0.
         13    1    3    3    0    0  0.71449358092E+02  0.88459191970E+03 -0.53839784210E+03  0.10380173946E+04  0.00000000000E+00 0. -1.
        -13    1    3    3    0    0  0.20508146009E+03  0.12256164911E+04 -0.73767654322E+03  0.14451162137E+04  0.00000000000E+00 0.  1.
         22    1    1    2    0    0 -0.27653081818E+03 -0.21102084108E+04  0.12884463702E+04  0.24878791931E+04  0.00000000000E+00 0. -1.
<mgrwt>
<rscale>  0 0.49709974E+04</rscale>
<asrwt>0</asrwt>
<pdfrwt beam="1">  1        1 0.38333729E+00 0.49709974E+04</pdfrwt>
<pdfrwt beam="2">  1       -1 0.38143391E+00 0.49709974E+04</pdfrwt>
<totfact> 0.95072753E-03</totfact>
</mgrwt>
</event>
<event>
 6    1  0.1014650E-006  0.7118065E+03  0.7818608E-02  0.9697252E-01
         -1   -1    0    0    0  501 -0.00000000000E+00  0.00000000000E+00  0.39357631027E+03  0.39357631027E+03  0.00000000000E+00 0.  1.
          1   -1    0    0  501    0  0.00000000000E+00 -0.00000000000E+00 -0.32183625533E+03  0.32183625533E+03  0.00000000000E+00 0. -1.
         23    2    1    2    0    0 -0.21834875975E+03  0.24065828149E+03 -0.94423396456E+02  0.35044286561E+03  0.91114405679E+02 0.  0.
         13    1    3    3    0    0 -0.11832655533E+03  0.90659419261E+02 -0.48868547411E+01  0.14914484687E+03  0.00000000000E+00 0. -1.
        -13    1    3    3    0    0 -0.10002220442E+03  0.14999886223E+03 -0.89536541715E+02  0.20129801874E+03  0.00000000000E+00 0.  1.
         22    1    1    2    0    0  0.21834875975E+03 -0.24065828149E+03  0.16616345140E+03  0.36496970000E+03  0.00000000000E+00 0.  1.
<mgrwt>
<rscale>  0 0.71180651E+03</rscale>
<asrwt>0</asrwt>
<pdfrwt beam="1">  1        1 0.49513270E-01 0.71180651E+03</pdfrwt>
<pdfrwt beam="2">  1       -1 0.60550202E-01 0.71180651E+03</pdfrwt>
<totfact> 0.22432507E+02</totfact>
</mgrwt>
</event>
<event>
 6    1  0.1014650E-006  0.1336464E+04  0.7818608E-02  0.9001139E-01
          2   -1    0    0  501    0  0.00000000000E+00  0.00000000000E+00  0.62692859932E+03  0.62692859932E+03  0.00000000000E+00 0. -1.
         -2   -1    0    0    0  501 -0.00000000000E+00 -0.00000000000E+00 -0.71225620440E+03  0.71225620440E+03  0.00000000000E+00 0.  1.
         23    2    1    2    0    0 -0.21778793672E+03  0.94319674952E+02  0.57973668952E+03  0.63304154459E+03  0.91209547396E+02 0.  0.
         13    1    3    3    0    0 -0.36804717272E+02  0.28224559216E+02  0.22123001568E+03  0.22603967085E+03  0.00000000000E+00 0. -1.
        -13    1    3    3    0    0 -0.18098321945E+03  0.66095115736E+02  0.35850667383E+03  0.40700187374E+03  0.00000000000E+00 0.  1.
         22    1    1    2    0    0  0.21778793672E+03 -0.94319674952E+02 -0.66506429460E+03  0.70614325913E+03  0.00000000000E+00 0.  1.
<mgrwt>
<rscale>  0 0.13364637E+04</rscale>
<asrwt>0</asrwt>
<pdfrwt beam="1">  1        2 0.96450554E-01 0.13364637E+04</pdfrwt>
<pdfrwt beam="2">  1       -2 0.10957788E+00 0.13364637E+04</pdfrwt>
<totfact> 0.30482670E+01</totfact>
</mgrwt>
</event>
<event>
 6    1  0.1014650E-006  0.1034828E+04  0.7818608E-02  0.9271150E-01
          2   -1    0    0  501    0  0.00000000000E+00  0.00000000000E+00  0.25885432262E+04  0.25885432262E+04  0.00000000000E+00 0. -1.
         -2   -1    0    0    0  501 -0.00000000000E+00 -0.00000000000E+00 -0.10342390951E+03  0.10342390951E+03  0.00000000000E+00 0.  1.
         23    2    1    2    0    0  0.38539658177E+03 -0.22439555996E+03  0.59038444669E+03  0.74545638050E+03  0.90925946578E+02 0.  0.
         11    1    3    3    0    0  0.36271150437E+02 -0.56757665862E+02  0.75562414477E+02  0.10122602170E+03  0.00000000000E+00 0. -1.
        -11    1    3    3    0    0  0.34912543134E+03 -0.16763789410E+03  0.51482203221E+03  0.64423035879E+03  0.00000000000E+00 0.  1.
         22    1    1    2    0    0 -0.38539658177E+03  0.22439555996E+03  0.18947348700E+04  0.19465107552E+04  0.00000000000E+00 0. -1.
<mgrwt>
<rscale>  0 0.10348280E+04</rscale>
<asrwt>0</asrwt>
<pdfrwt beam="1">  1        2 0.39823737E+00 0.10348280E+04</pdfrwt>
<pdfrwt beam="2">  1       -2 0.15911373E-01 0.10348280E+04</pdfrwt>
<totfact> 0.99084613E+01</totfact>
</mgrwt>
</event>
<event>
 6    1  0.1014650E-006  0.3262461E+04  0.7818608E-02  0.8172513E-01
         -1   -1    0    0    0  501 -0.00000000000E+00  0.00000000000E+00  0.96005361040E+03  0.96005361040E+03  0.00000000000E+00 0.  1.
          1   -1    0    0  501    0  0.00000000000E+00 -0.00000000000E+00 -0.27716298086E+04  0.27716298086E+04  0.00000000000E+00 0. -1.
         23    2    1    2    0    0  0.30776984532E+03 -0.35914708387E+03  0.87704826374E+03  0.10017730903E+04  0.10308618690E+03 0.  0.
         11    1    3    3    0    0  0.20140167702E+03 -0.22396072311E+03  0.45121505783E+03  0.54250905008E+03  0.00000000000E+00 0.  1.
        -11    1    3    3    0    0  0.10636816830E+03 -0.13518636076E+03  0.42583320591E+03  0.45926404020E+03  0.00000000000E+00 0. -1.
         22    1    1    2    0    0 -0.30776984532E+03  0.35914708387E+03 -0.26886244619E+04  0.27299103287E+04  0.00000000000E+00 0. -1.
<mgrwt>
<rscale>  0 0.32624612E+04</rscale>
<asrwt>0</asrwt>
<pdfrwt beam="1">  1        1 0.42640458E+00 0.32624612E+04</pdfrwt>
<pdfrwt beam="2">  1       -1 0.14770056E+00 0.32624612E+04</pdfrwt>
<totfact> 0.26412507E-01</totfact>
</mgrwt>
</event>
<event>
 6    1  0.1014650E-006  0.3628536E+04  0.7818608E-02  0.8083986E-01
         -2   -1    0    0    0  501 -0.00000000000E+00  0.00000000000E+00  0.97152469795E+03  0.97152469795E+03  0.00000000000E+00 0.  1.
          2   -1    0    0  501    0  0.00000000000E+00 -0.00000000000E+00 -0.33880435832E+04  0.33880435832E+04  0.00000000000E+00 0. -1.
         23    2    1    2    0    0 -0.26101205368E+03  0.11596860704E+04  0.43601658906E+03  0.12692676960E+04  0.89055848861E+02 0.  0.
         13    1    3    3    0    0 -0.12963598727E+03  0.42202012727E+03  0.19009445035E+03  0.48066867702E+03  0.00000000000E+00 0.  1.
        -13    1    3    3    0    0 -0.13137606641E+03  0.73766594315E+03  0.24592213871E+03  0.78859901903E+03  0.00000000000E+00 0. -1.
         22    1    1    2    0    0  0.26101205368E+03 -0.11596860704E+04 -0.28525354743E+04  0.30903005851E+04  0.00000000000E+00 0. -1.
<mgrwt>
<rscale>  0 0.36285358E+04</rscale>
<asrwt>0</asrwt>
<pdfrwt beam="1">  1        2 0.52123747E+00 0.36285358E+04</pdfrwt>
<pdfrwt beam="2">  1       -2 0.14946534E+00 0.36285358E+04</pdfrwt>
<totfact> 0.23859134E-01</totfact>
</mgrwt>
</event>
<event>
 6    1  0.1014650E-006  0.1078041E+04  0.7818608E-02  0.9226863E-01
          2   -1    0    0  501    0  0.00000000000E+00  0.00000000000E+00  0.80428900988E+03  0.80428900988E+03  0.00000000000E+00 0. -1.
         -2   -1    0    0    0  501 -0.00000000000E+00 -0.00000000000E+00 -0.36124214670E+03  0.36124214670E+03  0.00000000000E+00 0.  1.
         23    2    1    2    0    0 -0.46953062864E+03 -0.17331986996E+02  0.50165271020E+03  0.69203981104E+03  0.80648926921E+02 0.  0.
         13    1    3    3    0    0 -0.20971512901E+03  0.32298181881E+02  0.22007730338E+03  0.30570840249E+03  0.00000000000E+00 0. -1.
        -13    1    3    3    0    0 -0.25981549963E+03 -0.49630168877E+02  0.28157540682E+03  0.38633140855E+03  0.00000000000E+00 0.  1.
         22    1    1    2    0    0  0.46953062864E+03  0.17331986996E+02 -0.58605847017E+02  0.47349134555E+03  0.00000000000E+00 0. -1.
<mgrwt>
<rscale>  0 0.10780410E+04</rscale>
<asrwt>0</asrwt>
<pdfrwt beam="1">  1        2 0.12373677E+00 0.10780410E+04</pdfrwt>
<pdfrwt beam="2">  1       -2 0.55575715E-01 0.10780410E+04</pdfrwt>
<totfact> 0.10346085E+02</totfact>
</mgrwt>
</event>
<event>
 6    1  0.1014650E-006  0.3209561E+04  0.7818608E-02  0.8186297E-01
         -1   -1    0    0    0  501 -0.00000000000E+00  0.00000000000E+00  0.14535017373E+04  0.14535017373E+04  0.00000000000E+00 0.  1.
          1   -1    0    0  501    0  0.00000000000E+00 -0.00000000000E+00 -0.17718038476E+04  0.17718038476E+04  0.00000000000E+00 0. -1.
         23    2    1    2    0    0  0.13425571711E+04  0.68566378669E+03 -0.70769078273E+03  0.16683155001E+04  0.99276270657E+02 0.  0.
         13    1    3    3    0    0  0.46651786664E+03  0.19815178715E+03 -0.20431527048E+03  0.54648676141E+03  0.00000000000E+00 0. -1.
        -13    1    3    3    0    0  0.87603930447E+03  0.48751199954E+03 -0.50337551224E+03  0.11218287387E+04  0.00000000000E+00 0.  1.
         22    1    1    2    0    0 -0.13425571711E+04 -0.68566378669E+03  0.38938867240E+03  0.15569900848E+04  0.00000000000E+00 0.  1.
<mgrwt>
<rscale>  0 0.32095607E+04</rscale>
<asrwt>0</asrwt>
<pdfrwt beam="1">  1        1 0.27258520E+00 0.32095607E+04</pdfrwt>
<pdfrwt beam="2">  1       -1 0.22361565E+00 0.32095607E+04</pdfrwt>
<totfact> 0.37053660E-01</totfact>
</mgrwt>
</event>
<event>
 6    1  0.1014650E-006  0.1247386E+04  0.7818608E-02  0.9072362E-01
         -2   -1    0    0    0  501 -0.00000000000E+00  0.00000000000E+00  0.97655298399E+03  0.97655298399E+03  0.00000000000E+00 0.  1.
          2   -1    0    0  501    0  0.00000000000E+00 -0.00000000000E+00 -0.39833235623E+03  0.39833235623E+03  0.00000000000E+00 0. -1.
         23    2    1    2    0    0  0.46042176952E+03 -0.23210886643E+02 -0.16716420129E+03  0.49845765097E+03  0.89382372463E+02 0.  0.
         13    1    3    3    0    0  0.34214357221E+03  0.20513825342E+02 -0.10974295388E+03  0.35989798133E+03  0.00000000000E+00 0. -1.
        -13    1    3    3    0    0  0.11827819731E+03 -0.43724711985E+02 -0.57421247415E+02  0.13855966964E+03  0.00000000000E+00 0.  1.
         22    1    1    2    0    0 -0.46042176952E+03  0.23210886643E+02  0.74538482905E+03  0.87642768925E+03  0.00000000000E+00 0. -1.
<mgrwt>
<rscale>  0 0.12473855E+04</rscale>
<asrwt>0</asrwt>
<pdfrwt beam="1">  1        2 0.61281901E-01 0.12473855E+04</pdfrwt>
<pdfrwt beam="2">  1       -2 0.15023892E+00 0.12473855E+04</pdfrwt>
<totfact> 0.23423520E+01</totfact>
</mgrwt>
</event>
<event>
 6    1  0.1014650E-006  0.1765948E+04  0.7818608E-02  0.8724620E-01
          1   -1    0    0  501    0  0.00000000000E+00  0.00000000000E+00  0.13034378889E+04  0.13034378889E+04  0.00000000000E+00 0. -1.
         -1   -1    0    0    0  501 -0.00000000000E+00 -0.00000000000E+00 -0.59814378904E+03  0.59814378904E+03  0.00000000000E+00 0.  1.
         23    2    1    2    0    0  0.16538547268E+03 -0.16570470378E+03  0.12676576867E+04  0.12924321009E+04  0.92813368837E+02 0.  0.
         13    1    3    3    0    0  0.13732819259E+03 -0.86292987356E+02  0.69890818865E+03  0.71748043061E+03  0.00000000000E+00 0. -1.
        -13    1    3    3    0    0  0.28057280095E+02 -0.79411716429E+02  0.56874949802E+03  0.57495167029E+03  0.00000000000E+00 0.  1.
         22    1    1    2    0    0 -0.16538547268E+03  0.16570470378E+03 -0.56236358682E+03  0.60914957704E+03  0.00000000000E+00 0.  1.
<mgrwt>
<rscale>  0 0.17659482E+04</rscale>
<asrwt>0</asrwt>
<pdfrwt beam="1">  1        1 0.20052891E+00 0.17659482E+04</pdfrwt>
<pdfrwt beam="2">  1       -1 0.92022122E-01 0.17659482E+04</pdfrwt>
<totfact> 0.97879036E+00</totfact>
</mgrwt>
</event>
<event>
 6    1  0.1014650E-006  0.4744615E+04  0.7818608E-02  0.7869158E-01
         -2   -1    0    0    0  501 -0.00000000000E+00  0.00000000000E+00  0.10891801520E+04  0.10891801520E+04  0.00000000000E+00 0.  1.
          2   -1    0    0  501    0  0.00000000000E+00 -0.00000000000E+00 -0.51670441063E+04  0.51670441063E+04  0.00000000000E+00 0. -1.
         23    2    1    2    0    0 -0.65224505886E+03 -0.15011753974E+03 -0.50395135492E+04  0.50845891462E+04  0.91602838261E+02 0.  0.
         13    1    3    3    0    0 -0.25549610673E+03 -0.91024115887E+02 -0.22794936324E+04  0.22955728850E+04  0.00000000000E+00 0.  1.
        -13    1    3    3    0    0 -0.39674895213E+03 -0.59093423858E+02 -0.27600199168E+04  0.27890162612E+04  0.00000000000E+00 0. -1.
         22    1    1    2    0    0  0.65224505886E+03  0.15011753974E+03  0.96164959490E+03  0.11716351121E+04  0.00000000000E+00 0.  1.
<mgrwt>
<rscale>  0 0.47446146E+04</rscale>
<asrwt>0</asrwt>
<pdfrwt beam="1">  1        2 0.79492987E+00 0.47446146E+04</pdfrwt>
<pdfrwt beam="2">  1       -2 0.16756617E+00 0.47446146E+04</pdfrwt>
<totfact> 0.33214585E-03</totfact>
</mgrwt>
</event>
<event>
 6    1  0.1014650E-006  0.2393695E+04  0.7818608E-02  0.8441868E-01
         -2   -1    0    0    0  501 -0.00000000000E+00  0.00000000000E+00  0.11898545543E+04  0.11898545543E+04  0.00000000000E+00 0.  1.
          2   -1    0    0  501    0  0.00000000000E+00 -0.00000000000E+00 -0.12038814180E+04  0.12038814180E+04  0.00000000000E+00 0. -1.
         23    2    1    2    0    0  0.10395194936E+04  0.64001645125E+02 -0.59328769072E+03  0.12019977067E+04  0.90062282479E+02 0.  0.
         13    1    3    3    0    0  0.30949076499E+03  0.34441498711E+02 -0.22207913137E+03  0.38247861514E+03  0.00000000000E+00 0. -1.
        -13    1    3    3    0    0  0.73002872860E+03  0.29560146414E+02 -0.37120855935E+03  0.81951909152E+03  0.00000000000E+00 0.  1.
         22    1    1    2    0    0 -0.10395194936E+04 -0.64001645125E+02  0.57926082702E+03  0.11917382657E+04  0.00000000000E+00 0.  1.
<mgrwt>
<rscale>  0 0.23936949E+04</rscale>
<asrwt>0</asrwt>
<pdfrwt beam="1">  1        2 0.18521253E+00 0.23936949E+04</pdfrwt>
<pdfrwt beam="2">  1       -2 0.18305455E+00 0.23936949E+04</pdfrwt>
<totfact> 0.29282703E+00</totfact>
</mgrwt>
</event>
<event>
 6    1  0.1014650E-006  0.2990721E+04  0.7818608E-02  0.8246386E-01
          3   -1    0    0  501    0  0.00000000000E+00  0.00000000000E+00  0.54907010341E+03  0.54907010341E+03  0.00000000000E+00 0. -1.
         -3   -1    0    0    0  501 -0.00000000000E+00 -0.00000000000E+00 -0.40725266807E+04  0.40725266807E+04  0.00000000000E+00 0.  1.
         23    2    1    2    0    0  0.20295261982E+03 -0.22088567890E+02 -0.40503667608E+04  0.40565197873E+04  0.90577134535E+02 0.  0.
         11    1    3    3    0    0  0.14464008364E+03  0.11936058906E+02 -0.21137439145E+04  0.21187205005E+04  0.00000000000E+00 0. -1.
        -11    1    3    3    0    0  0.58312536182E+02 -0.34024626796E+02 -0.19366228463E+04  0.19377992868E+04  0.00000000000E+00 0.  1.
         22    1    1    2    0    0 -0.20295261982E+03  0.22088567890E+02  0.52691018355E+03  0.56507699674E+03  0.00000000000E+00 0. -1.
<mgrwt>
<rscale>  0 0.29907207E+04</rscale>
<asrwt>0</asrwt>
<pdfrwt beam="1">  1        3 0.84472325E-01 0.29907207E+04</pdfrwt>
<pdfrwt beam="2">  1       -3 0.62654256E+00 0.29907207E+04</pdfrwt>
<totfact> 0.18611716E-03</totfact>
</mgrwt>
</event>
<event>
 6    1  0.1014650E-006  0.2948940E+04  0.7818608E-02  0.8258463E-01
          2   -1    0    0  501    0  0.00000000000E+00  0.00000000000E+00  0.33389627285E+04  0.33389627285E+04  0.00000000000E+00 0. -1.
         -2   -1    0    0    0  501 -0.00000000000E+00 -0.00000000000E+00 -0.65111905741E+03  0.65111905741E+03  0.00000000000E+00 0.  1.
         23    2    1    2    0    0 -0.11731977480E+04 -0.58379886244E+03  0.43496251671E+03  0.13838032967E+04  0.92223126911E+02 0.  0.
         13    1    3    3    0    0 -0.78508709680E+03 -0.35855842201E+03  0.25124034223E+03  0.89891467956E+03  0.00000000000E+00 0. -1.
        -13    1    3    3    0    0 -0.38811065122E+03 -0.22524044042E+03  0.18372217447E+03  0.48488861709E+03  0.00000000000E+00 0.  1.
         22    1    1    2    0    0  0.11731977480E+04  0.58379886244E+03  0.22528811544E+04  0.26062784892E+04  0.00000000000E+00 0. -1.
<mgrwt>
<rscale>  0 0.29489403E+04</rscale>
<asrwt>0</asrwt>
<pdfrwt beam="1">  1        2 0.51368656E+00 0.29489403E+04</pdfrwt>
<pdfrwt beam="2">  1       -2 0.10017216E+00 0.29489403E+04</pdfrwt>
<totfact> 0.74117838E-01</totfact>
</mgrwt>
</event>
<event>
 6    1  0.1014650E-006  0.2366010E+04  0.7818608E-02  0.8452340E-01
          2   -1    0    0  501    0  0.00000000000E+00  0.00000000000E+00  0.30124503808E+04  0.30124503808E+04  0.00000000000E+00 0. -1.
         -2   -1    0    0    0  501 -0.00000000000E+00 -0.00000000000E+00 -0.46457233792E+03  0.46457233792E+03  0.00000000000E+00 0.  1.
         23    2    1    2    0    0  0.44114891807E+03  0.63213915340E+03 -0.42620861879E+02  0.77426545016E+03  0.58806226472E+02 0.  0.
         13    1    3    3    0    0  0.22716664430E+03  0.27493361228E+03 -0.24295258494E+02  0.35746808952E+03  0.00000000000E+00 0. -1.
        -13    1    3    3    0    0  0.21398227378E+03  0.35720554112E+03 -0.18325603385E+02  0.41679736064E+03  0.00000000000E+00 0.  1.
         22    1    1    2    0    0 -0.44114891807E+03 -0.63213915340E+03  0.25904989048E+04  0.27027572686E+04  0.00000000000E+00 0. -1.
<mgrwt>
<rscale>  0 0.23660102E+04</rscale>
<asrwt>0</asrwt>
<pdfrwt beam="1">  1        2 0.46345389E+00 0.23660102E+04</pdfrwt>
<pdfrwt beam="2">  1       -2 0.71472669E-01 0.23660102E+04</pdfrwt>
<totfact> 0.27403381E+00</totfact>
</mgrwt>
</event>
<event>
 6    1  0.1014650E-006  0.2851349E+04  0.7818608E-02  0.8287501E-01
         -1   -1    0    0    0  501 -0.00000000000E+00  0.00000000000E+00  0.98073720169E+03  0.98073720169E+03  0.00000000000E+00 0.  1.
          1   -1    0    0  501    0  0.00000000000E+00 -0.00000000000E+00 -0.20724699022E+04  0.20724699022E+04  0.00000000000E+00 0. -1.
         23    2    1    2    0    0  0.11795759843E+04 -0.67860734314E+03 -0.99556765376E+03  0.16889655032E+04  0.97683616536E+02 0.  0.
         13    1    3    3    0    0  0.10180018380E+04 -0.54561287324E+03 -0.83615482398E+03  0.14258948205E+04  0.00000000000E+00 0. -1.
        -13    1    3    3    0    0  0.16157414628E+03 -0.13299446991E+03 -0.15941282978E+03  0.26307068265E+03  0.00000000000E+00 0.  1.
         22    1    1    2    0    0 -0.11795759843E+04  0.67860734314E+03 -0.96165046741E+02  0.13642416007E+04  0.00000000000E+00 0.  1.
<mgrwt>
<rscale>  0 0.28513494E+04</rscale>
<asrwt>0</asrwt>
<pdfrwt beam="1">  1        1 0.31884152E+00 0.28513494E+04</pdfrwt>
<pdfrwt beam="2">  1       -1 0.15088265E+00 0.28513494E+04</pdfrwt>
<totfact> 0.78745953E-01</totfact>
</mgrwt>
</event>
<event>
 6    1  0.1419796E-006  0.2819455E+04  0.7818608E-02  0.8297254E-01
         -2   -1    0    0    0  501 -0.00000000000E+00  0.00000000000E+00  0.16361430839E+04  0.16361430839E+04  0.00000000000E+00 0.  1.
          2   -1    0    0  501    0  0.00000000000E+00 -0.00000000000E+00 -0.12146439939E+04  0.12146439939E+04  0.00000000000E+00 0. -1.
         23    2    1    2    0    0 -0.32031507035E+03 -0.32838024454E+03 -0.11352381217E+04  0.12278680794E+04  0.91973355674E+02 0.  0.
         11    1    3    3    0    0 -0.18961684822E+03 -0.17364491731E+03 -0.51898734934E+03  0.57918475050E+03  0.00000000000E+00 0. -1.
        -11    1    3    3    0    0 -0.13069822213E+03 -0.15473532723E+03 -0.61625077237E+03  0.64868332891E+03  0.00000000000E+00 0.  1.
         22    1    1    2    0    0  0.32031507035E+03  0.32838024454E+03  0.15567372116E+04  0.16229189984E+04  0.00000000000E+00 0.  1.
<mgrwt>
<rscale>  0 0.28194548E+04</rscale>
<asrwt>0</asrwt>
<pdfrwt beam="1">  1        2 0.18686831E+00 0.28194548E+04</pdfrwt>
<pdfrwt beam="2">  1       -2 0.25171432E+00 0.28194548E+04</pdfrwt>
<totfact> 0.10114771E+00</totfact>
</mgrwt>
</event>
<event>
 6    1  0.1014650E-006  0.4637655E+04  0.7818608E-02  0.7886971E-01
         -1   -1    0    0    0  501 -0.00000000000E+00  0.00000000000E+00  0.16412569734E+04  0.16412569734E+04  0.00000000000E+00 0.  1.
          1   -1    0    0  501    0  0.00000000000E+00 -0.00000000000E+00 -0.32761239819E+04  0.32761239819E+04  0.00000000000E+00 0. -1.
         23    2    1    2    0    0  0.10741412514E+04 -0.19108415413E+04 -0.16168751991E+04  0.27252544697E+04  0.87359551751E+02 0.  0.
         11    1    3    3    0    0  0.41779437054E+03 -0.79385333744E+03 -0.61811207655E+03  0.10894116745E+04  0.00000000000E+00 0.  1.
        -11    1    3    3    0    0  0.65634688081E+03 -0.11169882038E+04 -0.99876312257E+03  0.16358427952E+04  0.00000000000E+00 0. -1.
         22    1    1    2    0    0 -0.10741412514E+04  0.19108415413E+04 -0.17991809359E+02  0.21921264856E+04  0.00000000000E+00 0.  1.
<mgrwt>
<rscale>  0 0.46376552E+04</rscale>
<asrwt>0</asrwt>
<pdfrwt beam="1">  1        1 0.50401907E+00 0.46376552E+04</pdfrwt>
<pdfrwt beam="2">  1       -1 0.25250108E+00 0.46376552E+04</pdfrwt>
<totfact> 0.18567081E-02</totfact>
</mgrwt>
</event>
<event>
 6    1  0.1014650E-006  0.2101804E+04  0.7818608E-02  0.8560449E-01
         -2   -1    0    0    0  501 -0.00000000000E+00  0.00000000000E+00  0.72762570959E+03  0.72762570959E+03  0.00000000000E+00 0.  1.
          2   -1    0    0  501    0  0.00000000000E+00 -0.00000000000E+00 -0.15178061335E+04  0.15178061335E+04  0.00000000000E+00 0. -1.
         23    2    1    2    0    0  0.76957389876E+03  0.11502208032E+03 -0.11472805997E+04  0.13892808050E+04  0.91511289161E+02 0.  0.
         13    1    3    3    0    0  0.58166233660E+03  0.12134905421E+03 -0.83658199138E+03  0.10261218715E+04  0.00000000000E+00 0.  1.
        -13    1    3    3    0    0  0.18791156215E+03 -0.63269738923E+01 -0.31069860832E+03  0.36315893353E+03  0.00000000000E+00 0. -1.
         22    1    1    2    0    0 -0.76957389876E+03 -0.11502208032E+03  0.35710017574E+03  0.85615103815E+03  0.00000000000E+00 0.  1.
<mgrwt>
<rscale>  0 0.21018038E+04</rscale>
<asrwt>0</asrwt>
<pdfrwt beam="1">  1        2 0.23350864E+00 0.21018038E+04</pdfrwt>
<pdfrwt beam="2">  1       -2 0.11194242E+00 0.21018038E+04</pdfrwt>
<totfact> 0.71974132E+00</totfact>
</mgrwt>
</event>
<event>
 6    1  0.1014650E-006  0.1509354E+04  0.7818608E-02  0.8878256E-01
         -2   -1    0    0    0  501 -0.00000000000E+00  0.00000000000E+00  0.44039575167E+03  0.44039575167E+03  0.00000000000E+00 0.  1.
          2   -1    0    0  501    0  0.00000000000E+00 -0.00000000000E+00 -0.12932396851E+04  0.12932396851E+04  0.00000000000E+00 0. -1.
         23    2    1    2    0    0 -0.68434197449E+03 -0.23806034690E+03 -0.65911153022E+03  0.98361616311E+03  0.89867014188E+02 0.  0.
         13    1    3    3    0    0 -0.48781191407E+03 -0.20433336210E+03 -0.50900874878E+03  0.73403167011E+03  0.00000000000E+00 0. -1.
        -13    1    3    3    0    0 -0.19653006042E+03 -0.33726984795E+02 -0.15010278144E+03  0.24958449301E+03  0.00000000000E+00 0.  1.
         22    1    1    2    0    0  0.68434197449E+03  0.23806034690E+03 -0.19373240322E+03  0.75001927367E+03  0.00000000000E+00 0.  1.
<mgrwt>
<rscale>  0 0.15093539E+04</rscale>
<asrwt>0</asrwt>
<pdfrwt beam="1">  1        2 0.19895995E+00 0.15093539E+04</pdfrwt>
<pdfrwt beam="2">  1       -2 0.67753193E-01 0.15093539E+04</pdfrwt>
<totfact> 0.32148336E+01</totfact>
</mgrwt>
</event>
<event>
 6    1  0.1014650E-006  0.7453268E+03  0.7818608E-02  0.9642710E-01
          2   -1    0    0  501    0  0.00000000000E+00  0.00000000000E+00  0.14991309806E+04  0.14991309806E+04  0.00000000000E+00 0. -1.
         -2   -1    0    0    0  501 -0.00000000000E+00 -0.00000000000E+00 -0.92639014713E+02  0.92639014713E+02  0.00000000000E+00 0.  1.
         23    2    1    2    0    0 -0.18659298472E+03  0.48970085900E+02  0.13806042435E+04  0.13971288243E+04  0.93197979075E+02 0.  0.
         11    1    3    3    0    0 -0.15686929321E+03  0.17764957868E+02  0.83277469925E+03  0.84760678890E+03  0.00000000000E+00 0.  1.
        -11    1    3    3    0    0 -0.29723691507E+02  0.31205128033E+02  0.54782954426E+03  0.54952203543E+03  0.00000000000E+00 0. -1.
         22    1    1    2    0    0  0.18659298472E+03 -0.48970085900E+02  0.25887722335E+02  0.19464117095E+03  0.00000000000E+00 0.  1.
<mgrwt>
<rscale>  0 0.74532682E+03</rscale>
<asrwt>0</asrwt>
<pdfrwt beam="1">  1        2 0.23063552E+00 0.74532682E+03</pdfrwt>
<pdfrwt beam="2">  1       -2 0.14252157E-01 0.74532682E+03</pdfrwt>
<totfact> 0.49153682E+02</totfact>
</mgrwt>
</event>
<event>
 6    1  0.1014650E-006  0.3305725E+04  0.7818608E-02  0.8161440E-01
          1   -1    0    0  501    0  0.00000000000E+00  0.00000000000E+00  0.14013011737E+04  0.14013011737E+04  0.00000000000E+00 0. -1.
         -1   -1    0    0    0  501 -0.00000000000E+00 -0.00000000000E+00 -0.19495841969E+04  0.19495841969E+04  0.00000000000E+00 0.  1.
         23    2    1    2    0    0  0.80841078763E+03  0.13390408925E+04 -0.81179590880E+03  0.17646957368E+04  0.92627925884E+02 0.  0.
         13    1    3    3    0    0  0.36355141903E+03  0.56239021964E+03 -0.30146888763E+03  0.73439490986E+03  0.00000000000E+00 0. -1.
        -13    1    3    3    0    0  0.44485936860E+03  0.77665067290E+03 -0.51032702117E+03  0.10303008270E+04  0.00000000000E+00 0.  1.
         22    1    1    2    0    0 -0.80841078763E+03 -0.13390408925E+04  0.26351288562E+03  0.15861896338E+04  0.00000000000E+00 0. -1.
<mgrwt>
<rscale>  0 0.33057251E+04</rscale>
<asrwt>0</asrwt>
<pdfrwt beam="1">  1        1 0.21558480E+00 0.33057251E+04</pdfrwt>
<pdfrwt beam="2">  1       -1 0.29993603E+00 0.33057251E+04</pdfrwt>
<totfact> 0.21012236E-01</totfact>
</mgrwt>
</event>
<event>
 6    1  0.1014650E-006  0.1805489E+04  0.7818608E-02  0.8703386E-01
         -2   -1    0    0    0  501 -0.00000000000E+00  0.00000000000E+00  0.18912976980E+04  0.18912976980E+04  0.00000000000E+00 0.  1.
          2   -1    0    0  501    0  0.00000000000E+00 -0.00000000000E+00 -0.43089317524E+03  0.43089317524E+03  0.00000000000E+00 0. -1.
         23    2    1    2    0    0 -0.74978612266E+03  0.46662617903E+03  0.95823698245E+03  0.13062718513E+04  0.90602506295E+02 0.  0.
         13    1    3    3    0    0 -0.42843728871E+03  0.28045471657E+03  0.61818558028E+03  0.80272459167E+03  0.00000000000E+00 0.  1.
        -13    1    3    3    0    0 -0.32134883395E+03  0.18617146245E+03  0.34005140217E+03  0.50354725958E+03  0.00000000000E+00 0. -1.
         22    1    1    2    0    0  0.74978612266E+03 -0.46662617903E+03  0.50216754030E+03  0.10159190220E+04  0.00000000000E+00 0.  1.
<mgrwt>
<rscale>  0 0.18054886E+04</rscale>
<asrwt>0</asrwt>
<pdfrwt beam="1">  1        2 0.66291259E-01 0.18054886E+04</pdfrwt>
<pdfrwt beam="2">  1       -2 0.29096887E+00 0.18054886E+04</pdfrwt>
<totfact> 0.24925490E+00</totfact>
</mgrwt>
</event>
<event>
 6    1  0.1014650E-006  0.1511745E+04  0.7818608E-02  0.8876680E-01
         -1   -1    0    0    0  501 -0.00000000000E+00  0.00000000000E+00  0.26225460643E+03  0.26225460643E+03  0.00000000000E+00 0.  1.
          1   -1    0    0  501    0  0.00000000000E+00 -0.00000000000E+00 -0.21785817928E+04  0.21785817928E+04  0.00000000000E+00 0. -1.
         23    2    1    2    0    0  0.36985977638E+03 -0.15772268163E+02  0.97404170615E+02  0.39336014865E+03  0.90551728086E+02 0.  0.
         11    1    3    3    0    0  0.23695224826E+03 -0.14251412676E+02  0.10640931147E+03  0.26013921713E+03  0.00000000000E+00 0.  1.
        -11    1    3    3    0    0  0.13290752812E+03 -0.15208554867E+01 -0.90051408559E+01  0.13322093152E+03  0.00000000000E+00 0. -1.
         22    1    1    2    0    0 -0.36985977638E+03  0.15772268163E+02 -0.20137313570E+04  0.20474762506E+04  0.00000000000E+00 0. -1.
<mgrwt>
<rscale>  0 0.15117448E+04</rscale>
<asrwt>0</asrwt>
<pdfrwt beam="1">  1        1 0.33516642E+00 0.15117448E+04</pdfrwt>
<pdfrwt beam="2">  1       -1 0.40346864E-01 0.15117448E+04</pdfrwt>
<totfact> 0.13068967E+01</totfact>
</mgrwt>
</event>
<event>
 6    1  0.1014650E-006  0.3561258E+04  0.7818608E-02  0.8099424E-01
          1   -1    0    0  501    0  0.00000000000E+00  0.00000000000E+00  0.28190591249E+04  0.28190591249E+04  0.00000000000E+00 0. -1.
         -1   -1    0    0    0  501 -0.00000000000E+00 -0.00000000000E+00 -0.11247155594E+04  0.11247155594E+04  0.00000000000E+00 0.  1.
         23    2    1    2    0    0 -0.21069094198E+03 -0.87433554317E+03 -0.85282250882E+03  0.12424956678E+04  0.87383852918E+02 0.  0.
         11    1    3    3    0    0 -0.14922144269E+03 -0.47726873661E+03 -0.51109233962E+03  0.71502997526E+03  0.00000000000E+00 0.  1.
        -11    1    3    3    0    0 -0.61469499296E+02 -0.39706680656E+03 -0.34173016920E+03  0.52746569249E+03  0.00000000000E+00 0. -1.
         22    1    1    2    0    0  0.21069094198E+03  0.87433554317E+03  0.25471660743E+04  0.27012790166E+04  0.00000000000E+00 0. -1.
<mgrwt>
<rscale>  0 0.35612580E+04</rscale>
<asrwt>0</asrwt>
<pdfrwt beam="1">  1        1 0.43370140E+00 0.35612580E+04</pdfrwt>
<pdfrwt beam="2">  1       -1 0.17303316E+00 0.35612580E+04</pdfrwt>
<totfact> 0.15318875E-01</totfact>
</mgrwt>
</event>
<event>
 6    1  0.1014650E-006  0.1765288E+04  0.7818608E-02  0.8724980E-01
         -2   -1    0    0    0  501 -0.00000000000E+00  0.00000000000E+00  0.68403572979E+03  0.68403572979E+03  0.00000000000E+00 0.  1.
          2   -1    0    0  501    0  0.00000000000E+00 -0.00000000000E+00 -0.11389180807E+04  0.11389180807E+04  0.00000000000E+00 0. -1.
         23    2    1    2    0    0 -0.16610491301E+03  0.28925373886E+03 -0.10693228175E+04  0.11238145865E+04  0.90826037861E+02 0.  0.
         13    1    3    3    0    0 -0.70987984033E+02  0.20661492145E+03 -0.72275878264E+03  0.75505581087E+03  0.00000000000E+00 0. -1.
        -13    1    3    3    0    0 -0.95116928976E+02  0.82638817410E+02 -0.34656403489E+03  0.36875877562E+03  0.00000000000E+00 0.  1.
         22    1    1    2    0    0  0.16610491301E+03 -0.28925373886E+03  0.61444046660E+03  0.69913922402E+03  0.00000000000E+00 0.  1.
<mgrwt>
<rscale>  0 0.17652883E+04</rscale>
<asrwt>0</asrwt>
<pdfrwt beam="1">  1        2 0.17521817E+00 0.17652883E+04</pdfrwt>
<pdfrwt beam="2">  1       -2 0.10523627E+00 0.17652883E+04</pdfrwt>
<totfact> 0.14274479E+01</totfact>
</mgrwt>
</event>
<event>
 6    1  0.1014650E-006  0.2919158E+04  0.7818608E-02  0.8267200E-01
          1   -1    0    0  501    0  0.00000000000E+00  0.00000000000E+00  0.15087202683E+04  0.15087202683E+04  0.00000000000E+00 0. -1.
         -1   -1    0    0    0  501 -0.00000000000E+00 -0.00000000000E+00 -0.14120382473E+04  0.14120382473E+04  0.00000000000E+00 0.  1.
         23    2    1    2    0    0 -0.13847878088E+04  0.42379307889E+01 -0.40895646404E+03  0.14465382088E+04  0.87018185609E+02 0.  0.
         11    1    3    3    0    0 -0.23712595092E+03 -0.99080825856E+01 -0.38168063740E+02  0.24038237829E+03  0.00000000000E+00 0. -1.
        -11    1    3    3    0    0 -0.11476618578E+04  0.14146013375E+02 -0.37078840030E+03  0.12061558305E+04  0.00000000000E+00 0.  1.
         22    1    1    2    0    0  0.13847878088E+04 -0.42379307889E+01  0.50563848508E+03  0.14742203068E+04  0.00000000000E+00 0. -1.
<mgrwt>
<rscale>  0 0.29191579E+04</rscale>
<asrwt>0</asrwt>
<pdfrwt beam="1">  1        1 0.23211081E+00 0.29191579E+04</pdfrwt>
<pdfrwt beam="2">  1       -1 0.21723665E+00 0.29191579E+04</pdfrwt>
<totfact> 0.63499511E-01</totfact>
</mgrwt>
</event>
<event>
 6    1  0.1014650E-006  0.1906765E+04  0.7818608E-02  0.8651496E-01
          2   -1    0    0  501    0  0.00000000000E+00  0.00000000000E+00  0.20758381745E+04  0.20758381745E+04  0.00000000000E+00 0. -1.
         -2   -1    0    0    0  501 -0.00000000000E+00 -0.00000000000E+00 -0.43786575825E+03  0.43786575825E+03  0.00000000000E+00 0.  1.
         23    2    1    2    0    0  0.90385650466E+03  0.23973384281E+03  0.10513007445E+04  0.14097960803E+04  0.88672634262E+02 0.  0.
         11    1    3    3    0    0  0.23894200256E+03  0.24808331295E+02  0.28438915832E+03  0.37227130867E+03  0.00000000000E+00 0. -1.
        -11    1    3    3    0    0  0.66491450210E+03  0.21492551151E+03  0.76691158621E+03  0.10375247716E+04  0.00000000000E+00 0.  1.
         22    1    1    2    0    0 -0.90385650466E+03 -0.23973384281E+03  0.58667167174E+03  0.11039078525E+04  0.00000000000E+00 0.  1.
<mgrwt>
<rscale>  0 0.19067653E+04</rscale>
<asrwt>0</asrwt>
<pdfrwt beam="1">  1        2 0.31935971E+00 0.19067653E+04</pdfrwt>
<pdfrwt beam="2">  1       -2 0.67363964E-01 0.19067653E+04</pdfrwt>
<totfact> 0.11466598E+01</totfact>
</mgrwt>
</event>
<event>
 6    1  0.1014650E-006  0.3612581E+04  0.7818608E-02  0.8087616E-01
          2   -1    0    0  501    0  0.00000000000E+00  0.00000000000E+00  0.14981337798E+04  0.14981337798E+04  0.00000000000E+00 0. -1.
         -2   -1    0    0    0  501 -0.00000000000E+00 -0.00000000000E+00 -0.21778335544E+04  0.21778335544E+04  0.00000000000E+00 0.  1.
         23    2    1    2    0    0  0.17321131214E+04 -0.49984499397E+03 -0.24746665792E+03  0.18220832088E+04  0.93201876507E+02 0.  0.
         11    1    3    3    0    0  0.11854038789E+04 -0.38523995903E+03 -0.18263964340E+03  0.12597418075E+04  0.00000000000E+00 0.  1.
        -11    1    3    3    0    0  0.54670924252E+03 -0.11460503494E+03 -0.64827014517E+02  0.56234140137E+03  0.00000000000E+00 0. -1.
         22    1    1    2    0    0 -0.17321131214E+04  0.49984499397E+03 -0.43223311665E+03  0.18538841254E+04  0.00000000000E+00 0.  1.
<mgrwt>
<rscale>  0 0.36125814E+04</rscale>
<asrwt>0</asrwt>
<pdfrwt beam="1">  1        2 0.23048212E+00 0.36125814E+04</pdfrwt>
<pdfrwt beam="2">  1       -2 0.33505131E+00 0.36125814E+04</pdfrwt>
<totfact> 0.19997985E-01</totfact>
</mgrwt>
</event>
<event>
 6    1  0.1014650E-006  0.2866492E+04  0.7818608E-02  0.8282918E-01
         -1   -1    0    0    0  501 -0.00000000000E+00  0.00000000000E+00  0.68026097486E+03  0.68026097486E+03  0.00000000000E+00 0.  1.
          1   -1    0    0  501    0  0.00000000000E+00 -0.00000000000E+00 -0.30197137522E+04  0.30197137522E+04  0.00000000000E+00 0. -1.
         23    2    1    2    0    0  0.51098132718E+03 -0.56026508182E+03 -0.27385852665E+04  0.28430583819E+04  0.90182163908E+02 0.  0.
         11    1    3    3    0    0  0.42368978104E+03 -0.45635151754E+03 -0.23642373009E+04  0.24448696802E+04  0.00000000000E+00 0. -1.
        -11    1    3    3    0    0  0.87291546145E+02 -0.10391356428E+03 -0.37434796556E+03  0.39818870173E+03  0.00000000000E+00 0.  1.
         22    1    1    2    0    0 -0.51098132718E+03  0.56026508182E+03  0.39913248914E+03  0.85691634511E+03  0.00000000000E+00 0.  1.
<mgrwt>
<rscale>  0 0.28664915E+04</rscale>
<asrwt>0</asrwt>
<pdfrwt beam="1">  1        1 0.46457133E+00 0.28664915E+04</pdfrwt>
<pdfrwt beam="2">  1       -1 0.10465554E+00 0.28664915E+04</pdfrwt>
<totfact> 0.42674115E-01</totfact>
</mgrwt>
</event>
<event>
 6    1  0.1014650E-006  0.3758215E+04  0.7818608E-02  0.8055182E-01
         -2   -1    0    0    0  501 -0.00000000000E+00  0.00000000000E+00  0.13537839257E+04  0.13537839257E+04  0.00000000000E+00 0.  1.
          2   -1    0    0  501    0  0.00000000000E+00 -0.00000000000E+00 -0.26082785811E+04  0.26082785811E+04  0.00000000000E+00 0. -1.
         23    2    1    2    0    0  0.65100319501E+03 -0.12595597372E+04  0.67142091569E+03  0.15705260386E+04  0.73824796158E+02 0.  0.
         11    1    3    3    0    0  0.26903847852E+03 -0.44844384363E+03  0.23286786979E+03  0.57246050396E+03  0.00000000000E+00 0.  1.
        -11    1    3    3    0    0  0.38196471649E+03 -0.81111589357E+03  0.43855304590E+03  0.99806553468E+03  0.00000000000E+00 0. -1.
         22    1    1    2    0    0 -0.65100319501E+03  0.12595597372E+04 -0.19259155711E+04  0.23915364681E+04  0.00000000000E+00 0. -1.
<mgrwt>
<rscale>  0 0.37582153E+04</rscale>
<asrwt>0</asrwt>
<pdfrwt beam="1">  1        2 0.40127363E+00 0.37582153E+04</pdfrwt>
<pdfrwt beam="2">  1       -2 0.20827445E+00 0.37582153E+04</pdfrwt>
<totfact> 0.28440151E-01</totfact>
</mgrwt>
</event>
<event>
 6    1  0.1014650E-006  0.1810759E+04  0.7818608E-02  0.8700599E-01
          2   -1    0    0  501    0  0.00000000000E+00  0.00000000000E+00  0.13432263256E+04  0.13432263256E+04  0.00000000000E+00 0. -1.
         -2   -1    0    0    0  501 -0.00000000000E+00 -0.00000000000E+00 -0.61025620678E+03  0.61025620678E+03  0.00000000000E+00 0.  1.
         23    2    1    2    0    0  0.87238821772E+03 -0.17516740549E+03  0.20144821349E+03  0.91701721303E+03  0.92705792310E+02 0.  0.
         13    1    3    3    0    0  0.30503259133E+03 -0.10642709602E+03  0.68281587274E+02  0.33020294321E+03  0.00000000000E+00 0. -1.
        -13    1    3    3    0    0  0.56735562638E+03 -0.68740309471E+02  0.13316662622E+03  0.58681426983E+03  0.00000000000E+00 0.  1.
         22    1    1    2    0    0 -0.87238821772E+03  0.17516740549E+03  0.53152190531E+03  0.10364653193E+04  0.00000000000E+00 0. -1.
<mgrwt>
<rscale>  0 0.18107592E+04</rscale>
<asrwt>0</asrwt>
<pdfrwt beam="1">  1        2 0.20665020E+00 0.18107592E+04</pdfrwt>
<pdfrwt beam="2">  1       -2 0.93885571E-01 0.18107592E+04</pdfrwt>
<totfact> 0.14101233E+01</totfact>
</mgrwt>
</event>
<event>
 6    1  0.1014650E-006  0.1838879E+03  0.7818608E-02  0.1164092E+00
         -3   -1    0    0    0  501 -0.00000000000E+00  0.00000000000E+00  0.12003828002E+03  0.12003828002E+03  0.00000000000E+00 0.  1.
          3   -1    0    0  501    0  0.00000000000E+00 -0.00000000000E+00 -0.70424963888E+02  0.70424963888E+02  0.00000000000E+00 0. -1.
         23    2    1    2    0    0  0.67511182426E+02  0.60698152306E+01  0.47750680968E+02  0.12265416031E+03  0.90384252489E+02 0.  0.
         11    1    3    3    0    0  0.80174072666E+02 -0.52905568611E+01  0.96472451710E+01  0.80925529094E+02  0.00000000000E+00 0. -1.
        -11    1    3    3    0    0 -0.12662890240E+02  0.11360372092E+02  0.38103435797E+02  0.41728631212E+02  0.00000000000E+00 0.  1.
         22    1    1    2    0    0 -0.67511182426E+02 -0.60698152306E+01  0.18626351672E+01  0.67809083604E+02  0.00000000000E+00 0. -1.
<mgrwt>
<rscale>  0 0.18388792E+03</rscale>
<asrwt>0</asrwt>
<pdfrwt beam="1">  1        3 0.10834610E-01 0.18388792E+03</pdfrwt>
<pdfrwt beam="2">  1       -3 0.18467428E-01 0.18388792E+03</pdfrwt>
<totfact> 0.40129775E+03</totfact>
</mgrwt>
</event>
<event>
 6    1  0.1014650E-006  0.3006336E+04  0.7818608E-02  0.8241924E-01
          2   -1    0    0  501    0  0.00000000000E+00  0.00000000000E+00  0.21245359209E+04  0.21245359209E+04  0.00000000000E+00 0. -1.
         -2   -1    0    0    0  501 -0.00000000000E+00 -0.00000000000E+00 -0.10635330668E+04  0.10635330668E+04  0.00000000000E+00 0.  1.
         23    2    1    2    0    0  0.42114676930E+03  0.40567446730E+03 -0.93591103354E+03  0.11072995508E+04  0.90810008716E+02 0.  0.
         13    1    3    3    0    0  0.11236477001E+03  0.14980077235E+03 -0.35583604708E+03  0.40210123767E+03  0.00000000000E+00 0.  1.
        -13    1    3    3    0    0  0.30878199930E+03  0.25587369495E+03 -0.58007498647E+03  0.70519831309E+03  0.00000000000E+00 0. -1.
         22    1    1    2    0    0 -0.42114676930E+03 -0.40567446730E+03  0.19969138877E+04  0.20807694369E+04  0.00000000000E+00 0. -1.
<mgrwt>
<rscale>  0 0.30063361E+04</rscale>
<asrwt>0</asrwt>
<pdfrwt beam="1">  1        2 0.32685168E+00 0.30063361E+04</pdfrwt>
<pdfrwt beam="2">  1       -2 0.16362047E+00 0.30063361E+04</pdfrwt>
<totfact> 0.11540590E+00</totfact>
</mgrwt>
</event>
<event>
 6    1  0.1014650E-006  0.2674737E+04  0.7818608E-02  0.8343249E-01
          1   -1    0    0  501    0  0.00000000000E+00  0.00000000000E+00  0.16265657261E+04  0.16265657261E+04  0.00000000000E+00 0. -1.
         -1   -1    0    0    0  501 -0.00000000000E+00 -0.00000000000E+00 -0.10995898035E+04  0.10995898035E+04  0.00000000000E+00 0.  1.
         23    2    1    2    0    0  0.96145502356E+03  0.16154322010E+03 -0.66706952544E+03  0.11846509054E+04  0.89017086328E+02 0.  0.
         13    1    3    3    0    0  0.73014024419E+03  0.83691028071E+02 -0.50170936079E+03  0.88984338345E+03  0.00000000000E+00 0. -1.
        -13    1    3    3    0    0  0.23131477937E+03  0.77852192025E+02 -0.16536016465E+03  0.29480752197E+03  0.00000000000E+00 0.  1.
         22    1    1    2    0    0 -0.96145502356E+03 -0.16154322010E+03  0.11940454481E+04  0.15415046242E+04  0.00000000000E+00 0. -1.
<mgrwt>
<rscale>  0 0.26747374E+04</rscale>
<asrwt>0</asrwt>
<pdfrwt beam="1">  1        1 0.25024088E+00 0.26747374E+04</pdfrwt>
<pdfrwt beam="2">  1       -1 0.16916766E+00 0.26747374E+04</pdfrwt>
<totfact> 0.11685112E+00</totfact>
</mgrwt>
</event>
<event>
 6    1  0.1014650E-006  0.1778099E+04  0.7818608E-02  0.8718034E-01
          1   -1    0    0  501    0  0.00000000000E+00  0.00000000000E+00  0.11115485163E+04  0.11115485163E+04  0.00000000000E+00 0. -1.
         -1   -1    0    0    0  501 -0.00000000000E+00 -0.00000000000E+00 -0.71108814293E+03  0.71108814293E+03  0.00000000000E+00 0.  1.
         23    2    1    2    0    0  0.76155943345E+03 -0.11469722004E+03 -0.25011780539E+03  0.81447983134E+03  0.87694105395E+02 0.  0.
         11    1    3    3    0    0  0.56186947818E+03 -0.81137025258E+02 -0.22408284661E+03  0.61032257826E+03  0.00000000000E+00 0. -1.
        -11    1    3    3    0    0  0.19968995526E+03 -0.33560194778E+02 -0.26034958781E+02  0.20415725308E+03  0.00000000000E+00 0.  1.
         22    1    1    2    0    0 -0.76155943345E+03  0.11469722004E+03  0.65057817879E+03  0.10081568279E+04  0.00000000000E+00 0. -1.
<mgrwt>
<rscale>  0 0.17780990E+04</rscale>
<asrwt>0</asrwt>
<pdfrwt beam="1">  1        1 0.17100746E+00 0.17780990E+04</pdfrwt>
<pdfrwt beam="2">  1       -1 0.10939818E+00 0.17780990E+04</pdfrwt>
<totfact> 0.90847567E+00</totfact>
</mgrwt>
</event>
<event>
 6    1  0.1014650E-006  0.3574936E+04  0.7818608E-02  0.8096257E-01
         -2   -1    0    0    0  501 -0.00000000000E+00  0.00000000000E+00  0.20599795207E+04  0.20599795207E+04  0.00000000000E+00 0.  1.
          2   -1    0    0  501    0  0.00000000000E+00 -0.00000000000E+00 -0.15510063975E+04  0.15510063975E+04  0.00000000000E+00 0. -1.
         23    2    1    2    0    0  0.12628134747E+04 -0.12625462477E+04  0.30054949893E+03  0.18131646516E+04  0.92277586494E+02 0.  0.
         11    1    3    3    0    0  0.10816112013E+04 -0.10377759376E+04  0.23760557738E+03  0.15176686390E+04  0.00000000000E+00 0.  1.
        -11    1    3    3    0    0  0.18120227347E+03 -0.22477031008E+03  0.62943921551E+02  0.29549601260E+03  0.00000000000E+00 0. -1.
         22    1    1    2    0    0 -0.12628134747E+04  0.12625462477E+04  0.20842362433E+03  0.17978212666E+04  0.00000000000E+00 0.  1.
<mgrwt>
<rscale>  0 0.35749358E+04</rscale>
<asrwt>0</asrwt>
<pdfrwt beam="1">  1        2 0.23861637E+00 0.35749358E+04</pdfrwt>
<pdfrwt beam="2">  1       -2 0.31691993E+00 0.35749358E+04</pdfrwt>
<totfact> 0.24268405E-01</totfact>
</mgrwt>
</event>
<event>
 6    1  0.1014650E-006  0.4198459E+04  0.7818608E-02  0.7965665E-01
          2   -1    0    0  501    0  0.00000000000E+00  0.00000000000E+00  0.22162198338E+04  0.22162198338E+04  0.00000000000E+00 0. -1.
         -2   -1    0    0    0  501 -0.00000000000E+00 -0.00000000000E+00 -0.19884147079E+04  0.19884147079E+04  0.00000000000E+00 0.  1.
         23    2    1    2    0    0 -0.15360419064E+04 -0.27829305516E+03 -0.12901960754E+04  0.20272049999E+04  0.89902368734E+02 0.  0.
         11    1    3    3    0    0 -0.13057779672E+04 -0.23297692478E+03 -0.11362323173E+04  0.17465274765E+04  0.00000000000E+00 0.  1.
        -11    1    3    3    0    0 -0.23026393917E+03 -0.45316130381E+02 -0.15396375808E+03  0.28067752343E+03  0.00000000000E+00 0. -1.
         22    1    1    2    0    0  0.15360419064E+04  0.27829305516E+03  0.15180012012E+04  0.21774295418E+04  0.00000000000E+00 0. -1.
<mgrwt>
<rscale>  0 0.41984588E+04</rscale>
<asrwt>0</asrwt>
<pdfrwt beam="1">  1        2 0.34095690E+00 0.41984588E+04</pdfrwt>
<pdfrwt beam="2">  1       -2 0.30590996E+00 0.41984588E+04</pdfrwt>
<totfact> 0.11478217E-01</totfact>
</mgrwt>
</event>
<event>
 6    1  0.1014650E-006  0.2308918E+04  0.7818608E-02  0.8474413E-01
          2   -1    0    0  501    0  0.00000000000E+00  0.00000000000E+00  0.93910148701E+03  0.93910148701E+03  0.00000000000E+00 0. -1.
         -2   -1    0    0    0  501 -0.00000000000E+00 -0.00000000000E+00 -0.14192030266E+04  0.14192030266E+04  0.00000000000E+00 0.  1.
         23    2    1    2    0    0 -0.33370154714E+03 -0.63140002397E+03 -0.11646084231E+04  0.13690763365E+04  0.89635501711E+02 0.  0.
         13    1    3    3    0    0 -0.16248141421E+03 -0.38509359189E+03 -0.72554057132E+03  0.83732096899E+03  0.00000000000E+00 0. -1.
        -13    1    3    3    0    0 -0.17122013294E+03 -0.24630643207E+03 -0.43906785176E+03  0.53175536749E+03  0.00000000000E+00 0.  1.
         22    1    1    2    0    0  0.33370154714E+03  0.63140002397E+03  0.68450688351E+03  0.98922817712E+03  0.00000000000E+00 0. -1.
<mgrwt>
<rscale>  0 0.23089181E+04</rscale>
<asrwt>0</asrwt>
<pdfrwt beam="1">  1        2 0.14447715E+00 0.23089181E+04</pdfrwt>
<pdfrwt beam="2">  1       -2 0.21833892E+00 0.23089181E+04</pdfrwt>
<totfact> 0.25317633E+00</totfact>
</mgrwt>
</event>
<event>
 6    1  0.1014650E-006  0.1714942E+04  0.7818608E-02  0.8752888E-01
         -1   -1    0    0    0  501 -0.00000000000E+00  0.00000000000E+00  0.54987785340E+03  0.54987785340E+03  0.00000000000E+00 0.  1.
          1   -1    0    0  501    0  0.00000000000E+00 -0.00000000000E+00 -0.13371274565E+04  0.13371274565E+04  0.00000000000E+00 0. -1.
         23    2    1    2    0    0  0.18631510237E+03 -0.75290015061E+03  0.17649561296E+01  0.78060758358E+03  0.88165357794E+02 0.  0.
         11    1    3    3    0    0  0.97490599023E+02 -0.54987359843E+03 -0.11948241756E+02  0.55857689858E+03  0.00000000000E+00 0.  1.
        -11    1    3    3    0    0  0.88824503350E+02 -0.20302655218E+03  0.13713197886E+02  0.22203068500E+03  0.00000000000E+00 0. -1.
         22    1    1    2    0    0 -0.18631510237E+03  0.75290015061E+03 -0.78901455926E+03  0.11063977264E+04  0.00000000000E+00 0. -1.
<mgrwt>
<rscale>  0 0.17149423E+04</rscale>
<asrwt>0</asrwt>
<pdfrwt beam="1">  1        1 0.20571191E+00 0.17149423E+04</pdfrwt>
<pdfrwt beam="2">  1       -1 0.84596594E-01 0.17149423E+04</pdfrwt>
<totfact> 0.11189362E+01</totfact>
</mgrwt>
</event>
<event>
 6    1  0.1014650E-006  0.1180789E+04  0.7818608E-02  0.9129840E-01
         -1   -1    0    0    0  501 -0.00000000000E+00  0.00000000000E+00  0.14777297035E+03  0.14777297035E+03  0.00000000000E+00 0.  1.
          1   -1    0    0  501    0  0.00000000000E+00 -0.00000000000E+00 -0.23587926789E+04  0.23587926789E+04  0.00000000000E+00 0. -1.
         23    2    1    2    0    0  0.30093654040E+03 -0.20331705457E+03 -0.20906817963E+04  0.21239668527E+04  0.91565232259E+02 0.  0.
         11    1    3    3    0    0  0.12119100846E+03 -0.13229116611E+03 -0.90105645402E+03  0.91874422257E+03  0.00000000000E+00 0. -1.
        -11    1    3    3    0    0  0.17974553194E+03 -0.71025888464E+02 -0.11896253423E+04  0.12052226301E+04  0.00000000000E+00 0.  1.
         22    1    1    2    0    0 -0.30093654040E+03  0.20331705457E+03 -0.12033791225E+03  0.38259879659E+03  0.00000000000E+00 0.  1.
<mgrwt>
<rscale>  0 0.11807892E+04</rscale>
<asrwt>0</asrwt>
<pdfrwt beam="1">  1        1 0.36289112E+00 0.11807892E+04</pdfrwt>
<pdfrwt beam="2">  1       -1 0.22734307E-01 0.11807892E+04</pdfrwt>
<totfact> 0.27837438E+01</totfact>
</mgrwt>
</event>
<event>
 6    1  0.1014650E-006  0.3468433E+04  0.7818608E-02  0.8121312E-01
          2   -1    0    0  501    0  0.00000000000E+00  0.00000000000E+00  0.33765963420E+04  0.33765963420E+04  0.00000000000E+00 0. -1.
         -2   -1    0    0    0  501 -0.00000000000E+00 -0.00000000000E+00 -0.89069208238E+03  0.89069208238E+03  0.00000000000E+00 0.  1.
         23    2    1    2    0    0  0.36288831988E+03 -0.58031292464E+03  0.32026519189E+04  0.32762393690E+04  0.91181499671E+02 0.  0.
         11    1    3    3    0    0  0.67729375937E+02 -0.17097660719E+03  0.75127278856E+03  0.77345398790E+03  0.00000000000E+00 0.  1.
        -11    1    3    3    0    0  0.29515894394E+03 -0.40933631745E+03  0.24513791304E+04  0.25027853811E+04  0.00000000000E+00 0. -1.
         22    1    1    2    0    0 -0.36288831988E+03  0.58031292464E+03 -0.71674765927E+03  0.99104905544E+03  0.00000000000E+00 0.  1.
<mgrwt>
<rscale>  0 0.34684334E+04</rscale>
<asrwt>0</asrwt>
<pdfrwt beam="1">  1        2 0.51947636E+00 0.34684334E+04</pdfrwt>
<pdfrwt beam="2">  1       -2 0.13702955E+00 0.34684334E+04</pdfrwt>
<totfact> 0.30897235E-01</totfact>
</mgrwt>
</event>
<event>
 6    1  0.1014650E-006  0.5847469E+04  0.7818608E-02  0.7709607E-01
          2   -1    0    0  501    0  0.00000000000E+00  0.00000000000E+00  0.47586594238E+04  0.47586594238E+04  0.00000000000E+00 0. -1.
         -2   -1    0    0    0  501 -0.00000000000E+00 -0.00000000000E+00 -0.17963513315E+04  0.17963513315E+04  0.00000000000E+00 0.  1.
         23    2    1    2    0    0  0.21161343778E+02  0.28178276264E+04  0.23524960407E+04  0.36718751233E+04  0.88481439103E+02 0.  0.
         11    1    3    3    0    0 -0.26904334019E+02  0.59093426138E+03  0.47069024988E+03  0.75596061789E+03  0.00000000000E+00 0.  1.
        -11    1    3    3    0    0  0.48065677797E+02  0.22268933650E+04  0.18818057908E+04  0.29159145054E+04  0.00000000000E+00 0. -1.
         22    1    1    2    0    0 -0.21161343778E+02 -0.28178276264E+04  0.60981205153E+03  0.28831356320E+04  0.00000000000E+00 0.  1.
<mgrwt>
<rscale>  0 0.58474693E+04</rscale>
<asrwt>0</asrwt>
<pdfrwt beam="1">  1        2 0.73210145E+00 0.58474693E+04</pdfrwt>
<pdfrwt beam="2">  1       -2 0.27636174E+00 0.58474693E+04</pdfrwt>
<totfact> 0.19673099E-03</totfact>
</mgrwt>
</event>
<event>
 6    1  0.1014650E-006  0.2035515E+04  0.7818608E-02  0.8590194E-01
          1   -1    0    0  501    0  0.00000000000E+00  0.00000000000E+00  0.55667910677E+03  0.55667910677E+03  0.00000000000E+00 0. -1.
         -1   -1    0    0    0  501 -0.00000000000E+00 -0.00000000000E+00 -0.18607316606E+04  0.18607316606E+04  0.00000000000E+00 0.  1.
         23    2    1    2    0    0  0.67054998052E+03 -0.52510148589E+03 -0.13107710627E+04  0.15656983832E+04  0.89004503306E+02 0.  0.
         11    1    3    3    0    0  0.19380367224E+03 -0.14846638857E+03 -0.45225447731E+03  0.51394186846E+03  0.00000000000E+00 0. -1.
        -11    1    3    3    0    0  0.47674630828E+03 -0.37663509732E+03 -0.85851658538E+03  0.10517565148E+04  0.00000000000E+00 0.  1.
         22    1    1    2    0    0 -0.67054998052E+03  0.52510148589E+03  0.67185088897E+01  0.85171238410E+03  0.00000000000E+00 0. -1.
<mgrwt>
<rscale>  0 0.20355151E+04</rscale>
<asrwt>0</asrwt>
<pdfrwt beam="1">  1        1 0.85642939E-01 0.20355151E+04</pdfrwt>
<pdfrwt beam="2">  1       -1 0.28626641E+00 0.20355151E+04</pdfrwt>
<totfact> 0.14301455E+00</totfact>
</mgrwt>
</event>
<event>
 6    1  0.1014650E-006  0.2168341E+04  0.7818608E-02  0.8531722E-01
          2   -1    0    0  501    0  0.00000000000E+00  0.00000000000E+00  0.45543708342E+03  0.45543708342E+03  0.00000000000E+00 0. -1.
         -2   -1    0    0    0  501 -0.00000000000E+00 -0.00000000000E+00 -0.25808741604E+04  0.25808741604E+04  0.00000000000E+00 0.  1.
         23    2    1    2    0    0 -0.44646382481E+03 -0.61943588689E+03 -0.21386158225E+04  0.22726330104E+04  0.90290636524E+02 0.  0.
         11    1    3    3    0    0 -0.22362822515E+03 -0.38359496352E+03 -0.11993038406E+04  0.12788605793E+04  0.00000000000E+00 0.  1.
        -11    1    3    3    0    0 -0.22283559967E+03 -0.23584092337E+03 -0.93931198191E+03  0.99377243118E+03  0.00000000000E+00 0. -1.
         22    1    1    2    0    0  0.44646382481E+03  0.61943588689E+03  0.13178745519E+02  0.76367823340E+03  0.00000000000E+00 0. -1.
<mgrwt>
<rscale>  0 0.21683411E+04</rscale>
<asrwt>0</asrwt>
<pdfrwt beam="1">  1        2 0.70067244E-01 0.21683411E+04</pdfrwt>
<pdfrwt beam="2">  1       -2 0.39705756E+00 0.21683411E+04</pdfrwt>
<totfact> 0.48860274E-01</totfact>
</mgrwt>
</event>
<event>
 6    1  0.1014650E-006  0.2077462E+04  0.7818608E-02  0.8571237E-01
          1   -1    0    0  501    0  0.00000000000E+00  0.00000000000E+00  0.17168742083E+04  0.17168742083E+04  0.00000000000E+00 0. -1.
         -1   -1    0    0    0  501 -0.00000000000E+00 -0.00000000000E+00 -0.62844575836E+03  0.62844575836E+03  0.00000000000E+00 0.  1.
         23    2    1    2    0    0 -0.68773911561E+03 -0.11792486039E+03  0.14109026561E+04  0.15766321383E+04  0.90726130031E+02 0.  0.
         11    1    3    3    0    0 -0.23848407852E+03 -0.42526258760E+02  0.59018869385E+03  0.63797008766E+03  0.00000000000E+00 0. -1.
        -11    1    3    3    0    0 -0.44925503709E+03 -0.75398601628E+02  0.82071396222E+03  0.93866205061E+03  0.00000000000E+00 0.  1.
         22    1    1    2    0    0  0.68773911561E+03  0.11792486039E+03 -0.32247420616E+03  0.76868782836E+03  0.00000000000E+00 0.  1.
<mgrwt>
<rscale>  0 0.20774622E+04</rscale>
<asrwt>0</asrwt>
<pdfrwt beam="1">  1        1 0.26413449E+00 0.20774622E+04</pdfrwt>
<pdfrwt beam="2">  1       -1 0.96683964E-01 0.20774622E+04</pdfrwt>
<totfact> 0.44009999E+00</totfact>
</mgrwt>
</event>
<event>
 6    1  0.1014650E-006  0.3702655E+04  0.7818608E-02  0.8067374E-01
          1   -1    0    0  501    0  0.00000000000E+00  0.00000000000E+00  0.16847060564E+04  0.16847060564E+04  0.00000000000E+00 0. -1.
         -1   -1    0    0    0  501 -0.00000000000E+00 -0.00000000000E+00 -0.20344282161E+04  0.20344282161E+04  0.00000000000E+00 0.  1.
         23    2    1    2    0    0  0.10205610689E+04 -0.12023146994E+03  0.13704573213E+04  0.17153833028E+04  0.91575673596E+02 0.  0.
         11    1    3    3    0    0  0.44877077336E+03 -0.14630156869E+02  0.63874767704E+03  0.78077387472E+03  0.00000000000E+00 0. -1.
        -11    1    3    3    0    0  0.57179029558E+03 -0.10560131307E+03  0.73170964428E+03  0.93460942803E+03  0.00000000000E+00 0.  1.
         22    1    1    2    0    0 -0.10205610689E+04  0.12023146994E+03 -0.17201794811E+04  0.20037509698E+04  0.00000000000E+00 0.  1.
<mgrwt>
<rscale>  0 0.37026550E+04</rscale>
<asrwt>0</asrwt>
<pdfrwt beam="1">  1        1 0.25918555E+00 0.37026550E+04</pdfrwt>
<pdfrwt beam="2">  1       -1 0.31298896E+00 0.37026550E+04</pdfrwt>
<totfact> 0.10646585E-01</totfact>
</mgrwt>
</event>
<event>
 6    1  0.1014650E-006  0.5097572E+04  0.7818608E-02  0.7813630E-01
          2   -1    0    0  501    0  0.00000000000E+00  0.00000000000E+00  0.49822174673E+04  0.49822174673E+04  0.00000000000E+00 0. -1.
         -2   -1    0    0    0  501 -0.00000000000E+00 -0.00000000000E+00 -0.13038993535E+04  0.13038993535E+04  0.00000000000E+00 0.  1.
         23    2    1    2    0    0  0.14559868055E+04 -0.20784819990E+04  0.21210510975E+04  0.33086908254E+04  0.92694239463E+02 0.  0.
         13    1    3    3    0    0  0.93989880375E+03 -0.13030488213E+04  0.13928763284E+04  0.21263702543E+04  0.00000000000E+00 0.  1.
        -13    1    3    3    0    0  0.51608800176E+03 -0.77543317768E+03  0.72817476912E+03  0.11823205712E+04  0.00000000000E+00 0. -1.
         22    1    1    2    0    0 -0.14559868055E+04  0.20784819990E+04  0.15572670162E+04  0.29774259953E+04  0.00000000000E+00 0.  1.
<mgrwt>
<rscale>  0 0.50975720E+04</rscale>
<asrwt>0</asrwt>
<pdfrwt beam="1">  1        2 0.76649498E+00 0.50975720E+04</pdfrwt>
<pdfrwt beam="2">  1       -2 0.20059990E+00 0.50975720E+04</pdfrwt>
<totfact> 0.33821941E-03</totfact>
</mgrwt>
</event>
<event>
 6    1  0.1014650E-006  0.4891196E+03  0.7818608E-02  0.1016659E+00
         -1   -1    0    0    0  501 -0.00000000000E+00  0.00000000000E+00  0.14511196938E+03  0.14511196938E+03  0.00000000000E+00 0.  1.
          1   -1    0    0  501    0  0.00000000000E+00 -0.00000000000E+00 -0.41216099755E+03  0.41216099755E+03  0.00000000000E+00 0. -1.
         23    2    1    2    0    0  0.62090295339E+02  0.20884361769E+03 -0.35168918867E+02  0.23909181332E+03  0.91962932299E+02 0.  0.
         13    1    3    3    0    0  0.73193032986E+02  0.13872240869E+03 -0.53583492716E+02  0.16574775245E+03  0.00000000000E+00 0. -1.
        -13    1    3    3    0    0 -0.11102737647E+02  0.70121208997E+02  0.18414573849E+02  0.73344060867E+02  0.00000000000E+00 0.  1.
         22    1    1    2    0    0 -0.62090295339E+02 -0.20884361769E+03 -0.23188010930E+03  0.31818115361E+03  0.00000000000E+00 0. -1.
<mgrwt>
<rscale>  0 0.48911959E+03</rscale>
<asrwt>0</asrwt>
<pdfrwt beam="1">  1        1 0.63409383E-01 0.48911959E+03</pdfrwt>
<pdfrwt beam="2">  1       -1 0.22324919E-01 0.48911959E+03</pdfrwt>
<totfact> 0.98236149E+02</totfact>
</mgrwt>
</event>
<event>
 6    1  0.1014650E-006  0.2469050E+04  0.7818608E-02  0.8414095E-01
          2   -1    0    0  501    0  0.00000000000E+00  0.00000000000E+00  0.83106496510E+03  0.83106496510E+03  0.00000000000E+00 0. -1.
         -2   -1    0    0    0  501 -0.00000000000E+00 -0.00000000000E+00 -0.18338547352E+04  0.18338547352E+04  0.00000000000E+00 0.  1.
         23    2    1    2    0    0  0.56682182462E+03 -0.33158153489E+03  0.62360816174E+03  0.91095176222E+03  0.98552922632E+02 0.  0.
         13    1    3    3    0    0  0.12811876801E+03 -0.40034797136E+02  0.93088843308E+02  0.16334851222E+03  0.00000000000E+00 0.  1.
        -13    1    3    3    0    0  0.43870305661E+03 -0.29154673775E+03  0.53051931843E+03  0.74760324999E+03  0.00000000000E+00 0. -1.
         22    1    1    2    0    0 -0.56682182462E+03  0.33158153489E+03 -0.16263979319E+04  0.17539679381E+04  0.00000000000E+00 0.  1.
<mgrwt>
<rscale>  0 0.24690504E+04</rscale>
<asrwt>0</asrwt>
<pdfrwt beam="1">  1        2 0.12785615E+00 0.24690504E+04</pdfrwt>
<pdfrwt beam="2">  1       -2 0.28213149E+00 0.24690504E+04</pdfrwt>
<totfact> 0.11960553E+00</totfact>
</mgrwt>
</event>
<event>
 6    1  0.1014650E-006  0.3995558E+04  0.7818608E-02  0.8005443E-01
         -2   -1    0    0    0  501 -0.00000000000E+00  0.00000000000E+00  0.16524682008E+04  0.16524682008E+04  0.00000000000E+00 0.  1.
          2   -1    0    0  501    0  0.00000000000E+00 -0.00000000000E+00 -0.24152478956E+04  0.24152478956E+04  0.00000000000E+00 0. -1.
         23    2    1    2    0    0 -0.10189954932E+04  0.86884934632E+03 -0.18892671259E+04  0.23177946883E+04  0.97933357816E+02 0.  0.
         11    1    3    3    0    0 -0.38760602241E+03  0.27011811814E+03 -0.67988311421E+03  0.82791501699E+03  0.00000000000E+00 0.  1.
        -11    1    3    3    0    0 -0.63138947076E+03  0.59873122818E+03 -0.12093840117E+04  0.14898796714E+04  0.00000000000E+00 0. -1.
         22    1    1    2    0    0  0.10189954932E+04 -0.86884934632E+03  0.11264874312E+04  0.17499214080E+04  0.00000000000E+00 0.  1.
<mgrwt>
<rscale>  0 0.39955577E+04</rscale>
<asrwt>0</asrwt>
<pdfrwt beam="1">  1        2 0.37157660E+00 0.39955577E+04</pdfrwt>
<pdfrwt beam="2">  1       -2 0.25422588E+00 0.39955577E+04</pdfrwt>
<totfact> 0.18612213E-01</totfact>
</mgrwt>
</event>
<event>
 6    1  0.1014650E-006  0.1939915E+04  0.7818608E-02  0.8635239E-01
          2   -1    0    0  501    0  0.00000000000E+00  0.00000000000E+00  0.17136078459E+04  0.17136078459E+04  0.00000000000E+00 0. -1.
         -2   -1    0    0    0  501 -0.00000000000E+00 -0.00000000000E+00 -0.54902735680E+03  0.54902735680E+03  0.00000000000E+00 0.  1.
         23    2    1    2    0    0  0.73367711580E+02  0.86858701019E+03  0.10734185187E+04  0.13862011092E+04  0.97467858398E+02 0.  0.
         11    1    3    3    0    0  0.39898602984E+02  0.69665612811E+03  0.90912361664E+03  0.11460486070E+04  0.00000000000E+00 0.  1.
        -11    1    3    3    0    0  0.33469108596E+02  0.17193088208E+03  0.16429490208E+03  0.24015250216E+03  0.00000000000E+00 0. -1.
         22    1    1    2    0    0 -0.73367711580E+02 -0.86858701019E+03  0.91161970359E+02  0.87643409348E+03  0.00000000000E+00 0.  1.
<mgrwt>
<rscale>  0 0.19399150E+04</rscale>
<asrwt>0</asrwt>
<pdfrwt beam="1">  1        2 0.26363197E+00 0.19399150E+04</pdfrwt>
<pdfrwt beam="2">  1       -2 0.84465748E-01 0.19399150E+04</pdfrwt>
<totfact> 0.10997127E+01</totfact>
</mgrwt>
</event>
<event>
 6    1  0.1014650E-006  0.2268165E+04  0.7818608E-02  0.8490580E-01
         -2   -1    0    0    0  501 -0.00000000000E+00  0.00000000000E+00  0.40949071531E+03  0.40949071531E+03  0.00000000000E+00 0.  1.
          2   -1    0    0  501    0  0.00000000000E+00 -0.00000000000E+00 -0.31408370863E+04  0.31408370863E+04  0.00000000000E+00 0. -1.
         23    2    1    2    0    0 -0.11207069036E+04 -0.14452604717E+03 -0.12510845454E+04  0.16880585369E+04  0.86355904074E+02 0.  0.
         11    1    3    3    0    0 -0.57949487539E+03 -0.35909319445E+02 -0.61226028275E+03  0.84378104011E+03  0.00000000000E+00 0. -1.
        -11    1    3    3    0    0 -0.54121202819E+03 -0.10861672773E+03 -0.63882426268E+03  0.84427749679E+03  0.00000000000E+00 0.  1.
         22    1    1    2    0    0  0.11207069036E+04  0.14452604717E+03 -0.14802618255E+04  0.18622692647E+04  0.00000000000E+00 0. -1.
<mgrwt>
<rscale>  0 0.22681654E+04</rscale>
<asrwt>0</asrwt>
<pdfrwt beam="1">  1        2 0.48320569E+00 0.22681654E+04</pdfrwt>
<pdfrwt beam="2">  1       -2 0.62998573E-01 0.22681654E+04</pdfrwt>
<totfact> 0.30104712E+00</totfact>
</mgrwt>
</event>
<event>
 6    1  0.1014650E-006  0.2124115E+04  0.7818608E-02  0.8550694E-01
         -2   -1    0    0    0  501 -0.00000000000E+00  0.00000000000E+00  0.37639165240E+03  0.37639165240E+03  0.00000000000E+00 0.  1.
          2   -1    0    0  501    0  0.00000000000E+00 -0.00000000000E+00 -0.29967889120E+04  0.29967889120E+04  0.00000000000E+00 0. -1.
         23    2    1    2    0    0  0.10486440877E+03  0.33522411845E+03 -0.29010084324E+04  0.29236092307E+04  0.90935445945E+02 0.  0.
         11    1    3    3    0    0  0.76382697506E+02  0.16926218997E+03 -0.18365411039E+04  0.18459055317E+04  0.00000000000E+00 0. -1.
        -11    1    3    3    0    0  0.28481711264E+02  0.16596192848E+03 -0.10644673285E+04  0.10777036991E+04  0.00000000000E+00 0.  1.
         22    1    1    2    0    0 -0.10486440877E+03 -0.33522411845E+03  0.28061117276E+03  0.44957133371E+03  0.00000000000E+00 0.  1.
<mgrwt>
<rscale>  0 0.21241152E+04</rscale>
<asrwt>0</asrwt>
<pdfrwt beam="1">  1        2 0.46104445E+00 0.21241152E+04</pdfrwt>
<pdfrwt beam="2">  1       -2 0.57906408E-01 0.21241152E+04</pdfrwt>
<totfact> 0.44983634E+00</totfact>
</mgrwt>
</event>
<event>
 6    1  0.1014650E-006  0.3667455E+04  0.7818608E-02  0.8075213E-01
         -2   -1    0    0    0  501 -0.00000000000E+00  0.00000000000E+00  0.12387733247E+04  0.12387733247E+04  0.00000000000E+00 0.  1.
          2   -1    0    0  501    0  0.00000000000E+00 -0.00000000000E+00 -0.27144237529E+04  0.27144237529E+04  0.00000000000E+00 0. -1.
         23    2    1    2    0    0 -0.54668184164E+03  0.12967053348E+03  0.11420056920E+04  0.12759225218E+04  0.90143207906E+02 0.  0.
         13    1    3    3    0    0 -0.24177470029E+03  0.38900081484E+02  0.40649905715E+03  0.47456264655E+03  0.00000000000E+00 0.  1.
        -13    1    3    3    0    0 -0.30490714135E+03  0.90770451996E+02  0.73550663483E+03  0.80135987526E+03  0.00000000000E+00 0. -1.
         22    1    1    2    0    0  0.54668184164E+03 -0.12967053348E+03 -0.26176561203E+04  0.26772745558E+04  0.00000000000E+00 0. -1.
<mgrwt>
<rscale>  0 0.36674546E+04</rscale>
<asrwt>0</asrwt>
<pdfrwt beam="1">  1        2 0.41760365E+00 0.36674546E+04</pdfrwt>
<pdfrwt beam="2">  1       -2 0.19058051E+00 0.36674546E+04</pdfrwt>
<totfact> 0.32407274E-01</totfact>
</mgrwt>
</event>
<event>
 6    1  0.1014650E-006  0.1113548E+04  0.7818608E-02  0.9192087E-01
         -1   -1    0    0    0  501 -0.00000000000E+00  0.00000000000E+00  0.13840073462E+03  0.13840073462E+03  0.00000000000E+00 0.  1.
          1   -1    0    0  501    0  0.00000000000E+00 -0.00000000000E+00 -0.22398527097E+04  0.22398527097E+04  0.00000000000E+00 0. -1.
         23    2    1    2    0    0 -0.98214773799E+02  0.50700906675E+03 -0.63247259238E+03  0.82113920242E+03  0.86854326769E+02 0.  0.
         11    1    3    3    0    0 -0.22477171573E+02  0.20612614255E+03 -0.31592156306E+03  0.37788840138E+03  0.00000000000E+00 0.  1.
        -11    1    3    3    0    0 -0.75737602225E+02  0.30088292420E+03 -0.31655102932E+03  0.44325080105E+03  0.00000000000E+00 0. -1.
         22    1    1    2    0    0  0.98214773799E+02 -0.50700906675E+03 -0.14689793827E+04  0.15571142419E+04  0.00000000000E+00 0. -1.
<mgrwt>
<rscale>  0 0.11135480E+04</rscale>
<asrwt>0</asrwt>
<pdfrwt beam="1">  1        1 0.34459268E+00 0.11135480E+04</pdfrwt>
<pdfrwt beam="2">  1       -1 0.21292423E-01 0.11135480E+04</pdfrwt>
<totfact> 0.37699445E+01</totfact>
</mgrwt>
</event>
<event>
 6    1  0.1014650E-006  0.2663626E+04  0.7818608E-02  0.8346904E-01
         -2   -1    0    0    0  501 -0.00000000000E+00  0.00000000000E+00  0.12417404564E+04  0.12417404564E+04  0.00000000000E+00 0.  1.
          2   -1    0    0  501    0  0.00000000000E+00 -0.00000000000E+00 -0.14284192199E+04  0.14284192199E+04  0.00000000000E+00 0. -1.
         23    2    1    2    0    0 -0.92431088354E+03 -0.60260512708E+03 -0.83824995697E+03  0.13887430506E+04  0.91982180470E+02 0.  0.
         13    1    3    3    0    0 -0.57717839265E+02 -0.64068717874E+02 -0.78968727173E+02  0.11692822350E+03  0.00000000000E+00 0. -1.
        -13    1    3    3    0    0 -0.86659304428E+03 -0.53853640921E+03 -0.75928122980E+03  0.12718148271E+04  0.00000000000E+00 0.  1.
         22    1    1    2    0    0  0.92431088354E+03  0.60260512708E+03  0.65157119340E+03  0.12814166257E+04  0.00000000000E+00 0.  1.
<mgrwt>
<rscale>  0 0.26636261E+04</rscale>
<asrwt>0</asrwt>
<pdfrwt beam="1">  1        2 0.21975680E+00 0.26636261E+04</pdfrwt>
<pdfrwt beam="2">  1       -2 0.19103699E+00 0.26636261E+04</pdfrwt>
<totfact> 0.18711479E+00</totfact>
</mgrwt>
</event>
<event>
 6    1  0.1014650E-006  0.1537744E+04  0.7818608E-02  0.8859735E-01
          2   -1    0    0  501    0  0.00000000000E+00  0.00000000000E+00  0.15516002743E+04  0.15516002743E+04  0.00000000000E+00 0. -1.
         -2   -1    0    0    0  501 -0.00000000000E+00 -0.00000000000E+00 -0.38100272158E+03  0.38100272158E+03  0.00000000000E+00 0.  1.
         23    2    1    2    0    0 -0.25921597827E+03  0.24883434890E+03  0.14375218278E+04  0.14849870610E+04  0.98010762008E+02 0.  0.
         11    1    3    3    0    0 -0.96877488835E+02  0.13527387282E+03  0.81083882538E+03  0.82773417789E+03  0.00000000000E+00 0. -1.
        -11    1    3    3    0    0 -0.16233848944E+03  0.11356047608E+03  0.62668300240E+03  0.65725288313E+03  0.00000000000E+00 0.  1.
         22    1    1    2    0    0  0.25921597827E+03 -0.24883434890E+03 -0.26692427502E+03  0.44761593490E+03  0.00000000000E+00 0.  1.
<mgrwt>
<rscale>  0 0.15377437E+04</rscale>
<asrwt>0</asrwt>
<pdfrwt beam="1">  1        2 0.23870773E+00 0.15377437E+04</pdfrwt>
<pdfrwt beam="2">  1       -2 0.58615804E-01 0.15377437E+04</pdfrwt>
<totfact> 0.31115464E+01</totfact>
</mgrwt>
</event>
<event>
 6    1  0.1014650E-006  0.2732507E+04  0.7818608E-02  0.8324534E-01
          2   -1    0    0  501    0  0.00000000000E+00  0.00000000000E+00  0.41830189292E+04  0.41830189292E+04  0.00000000000E+00 0. -1.
         -2   -1    0    0    0  501 -0.00000000000E+00 -0.00000000000E+00 -0.44624426916E+03  0.44624426916E+03  0.00000000000E+00 0.  1.
         23    2    1    2    0    0  0.23628935153E+03  0.11065373302E+03  0.41397580318E+04  0.41491876792E+04  0.10042374465E+03 0.  0.
         13    1    3    3    0    0  0.70481046275E+02  0.72572192997E+02  0.10886456960E+04  0.10933360657E+04  0.00000000000E+00 0.  1.
        -13    1    3    3    0    0  0.16580830526E+03  0.38081540018E+02  0.30511123358E+04  0.30558516135E+04  0.00000000000E+00 0. -1.
         22    1    1    2    0    0 -0.23628935153E+03 -0.11065373302E+03 -0.40298337174E+03  0.48007551925E+03  0.00000000000E+00 0.  1.
<mgrwt>
<rscale>  0 0.27325067E+04</rscale>
<asrwt>0</asrwt>
<pdfrwt beam="1">  1        2 0.64354135E+00 0.27325067E+04</pdfrwt>
<pdfrwt beam="2">  1       -2 0.68652967E-01 0.27325067E+04</pdfrwt>
<totfact> 0.40885021E-01</totfact>
</mgrwt>
</event>
<event>
 6    1  0.1014650E-006  0.1892835E+04  0.7818608E-02  0.8658431E-01
          1   -1    0    0  501    0  0.00000000000E+00  0.00000000000E+00  0.18378756464E+04  0.18378756464E+04  0.00000000000E+00 0. -1.
         -1   -1    0    0    0  501 -0.00000000000E+00 -0.00000000000E+00 -0.48735929081E+03  0.48735929081E+03  0.00000000000E+00 0.  1.
         23    2    1    2    0    0 -0.46558811221E+03  0.79038843138E+03  0.40218367973E+03  0.10058331687E+04  0.91991783814E+02 0.  0.
         11    1    3    3    0    0 -0.17239113188E+03  0.34826319220E+03  0.20909226686E+03  0.44127715718E+03  0.00000000000E+00 0. -1.
        -11    1    3    3    0    0 -0.29319698033E+03  0.44212523918E+03  0.19309141287E+03  0.56455601150E+03  0.00000000000E+00 0.  1.
         22    1    1    2    0    0  0.46558811221E+03 -0.79038843138E+03  0.94833267585E+03  0.13194017685E+04  0.00000000000E+00 0. -1.
<mgrwt>
<rscale>  0 0.18928347E+04</rscale>
<asrwt>0</asrwt>
<pdfrwt beam="1">  1        1 0.28275010E+00 0.18928347E+04</pdfrwt>
<pdfrwt beam="2">  1       -1 0.74978354E-01 0.18928347E+04</pdfrwt>
<totfact> 0.64300703E+00</totfact>
</mgrwt>
</event>
<event>
 6    1  0.1014650E-006  0.3207499E+04  0.7818608E-02  0.8186840E-01
          2   -1    0    0  501    0  0.00000000000E+00  0.00000000000E+00  0.18230245607E+04  0.18230245607E+04  0.00000000000E+00 0. -1.
         -2   -1    0    0    0  501 -0.00000000000E+00 -0.00000000000E+00 -0.14108490226E+04  0.14108490226E+04  0.00000000000E+00 0.  1.
         23    2    1    2    0    0 -0.45389315384E+03 -0.11282667470E+04 -0.84610660158E+03  0.14839367871E+04  0.84659077218E+02 0.  0.
         11    1    3    3    0    0 -0.11548734397E+03 -0.25053776984E+03 -0.15294948036E+03  0.31543627609E+03  0.00000000000E+00 0.  1.
        -11    1    3    3    0    0 -0.33840580986E+03 -0.87772897717E+03 -0.69315712123E+03  0.11685005110E+04  0.00000000000E+00 0. -1.
         22    1    1    2    0    0  0.45389315384E+03  0.11282667470E+04  0.12582821397E+04  0.17499367962E+04  0.00000000000E+00 0. -1.
<mgrwt>
<rscale>  0 0.32074990E+04</rscale>
<asrwt>0</asrwt>
<pdfrwt beam="1">  1        2 0.28046532E+00 0.32074990E+04</pdfrwt>
<pdfrwt beam="2">  1       -2 0.21705370E+00 0.32074990E+04</pdfrwt>
<totfact> 0.72764028E-01</totfact>
</mgrwt>
</event>
<event>
 6    1  0.1014650E-006  0.4073434E+04  0.7818608E-02  0.7989894E-01
         -2   -1    0    0    0  501 -0.00000000000E+00  0.00000000000E+00  0.15583745562E+04  0.15583745562E+04  0.00000000000E+00 0.  1.
          2   -1    0    0  501    0  0.00000000000E+00 -0.00000000000E+00 -0.26618867438E+04  0.26618867438E+04  0.00000000000E+00 0. -1.
         23    2    1    2    0    0  0.18243368661E+04 -0.90038115154E+03 -0.47777410870E+03  0.20917784219E+04  0.91529494383E+02 0.  0.
         11    1    3    3    0    0  0.19245169647E+03 -0.96982389149E+02 -0.79910884004E+02  0.22984557568E+03  0.00000000000E+00 0. -1.
        -11    1    3    3    0    0  0.16318851696E+04 -0.80339876239E+03 -0.39786322469E+03  0.18619328462E+04  0.00000000000E+00 0.  1.
         22    1    1    2    0    0 -0.18243368661E+04  0.90038115154E+03 -0.62573807886E+03  0.21284828781E+04  0.00000000000E+00 0. -1.
<mgrwt>
<rscale>  0 0.40734342E+04</rscale>
<asrwt>0</asrwt>
<pdfrwt beam="1">  1        2 0.40952103E+00 0.40734342E+04</pdfrwt>
<pdfrwt beam="2">  1       -2 0.23974994E+00 0.40734342E+04</pdfrwt>
<totfact> 0.16308838E-01</totfact>
</mgrwt>
</event>
<event>
 6    1  0.1014650E-006  0.2286252E+04  0.7818608E-02  0.8483361E-01
          2   -1    0    0  501    0  0.00000000000E+00  0.00000000000E+00  0.21505710581E+04  0.21505710581E+04  0.00000000000E+00 0. -1.
         -2   -1    0    0    0  501 -0.00000000000E+00 -0.00000000000E+00 -0.60762354480E+03  0.60762354480E+03  0.00000000000E+00 0.  1.
         23    2    1    2    0    0  0.27225357505E+03  0.82002955546E+03 -0.12729172559E+03  0.87769743563E+03  0.87058165430E+02 0.  0.
         11    1    3    3    0    0  0.10784306741E+03  0.22294180285E+03 -0.13520773192E+02  0.24802416405E+03  0.00000000000E+00 0.  1.
        -11    1    3    3    0    0  0.16441050763E+03  0.59708775261E+03 -0.11377095240E+03  0.62967327158E+03  0.00000000000E+00 0. -1.
         22    1    1    2    0    0 -0.27225357505E+03 -0.82002955546E+03  0.16702392389E+04  0.18804971673E+04  0.00000000000E+00 0. -1.
<mgrwt>
<rscale>  0 0.22862525E+04</rscale>
<asrwt>0</asrwt>
<pdfrwt beam="1">  1        2 0.33085708E+00 0.22862525E+04</pdfrwt>
<pdfrwt beam="2">  1       -2 0.93480546E-01 0.22862525E+04</pdfrwt>
<totfact> 0.48347290E+00</totfact>
</mgrwt>
</event>
<event>
 6    1  0.1014650E-006  0.3072297E+04  0.7818608E-02  0.8223382E-01
          2   -1    0    0  501    0  0.00000000000E+00  0.00000000000E+00  0.12144697516E+04  0.12144697516E+04  0.00000000000E+00 0. -1.
         -2   -1    0    0    0  501 -0.00000000000E+00 -0.00000000000E+00 -0.19430309176E+04  0.19430309176E+04  0.00000000000E+00 0.  1.
         23    2    1    2    0    0  0.53823263514E+02 -0.85715973361E+03 -0.16718552272E+04  0.18817955942E+04  0.91842284391E+02 0.  0.
         11    1    3    3    0    0  0.60710422935E+01 -0.22771446711E+03 -0.36095785968E+03  0.42682702884E+03  0.00000000000E+00 0.  1.
        -11    1    3    3    0    0  0.47752221220E+02 -0.62944526649E+03 -0.13108973675E+04  0.14549685654E+04  0.00000000000E+00 0. -1.
         22    1    1    2    0    0 -0.53823263514E+02  0.85715973361E+03  0.94329406118E+03  0.12757050750E+04  0.00000000000E+00 0. -1.
<mgrwt>
<rscale>  0 0.30722970E+04</rscale>
<asrwt>0</asrwt>
<pdfrwt beam="1">  1        2 0.18684150E+00 0.30722970E+04</pdfrwt>
<pdfrwt beam="2">  1       -2 0.29892783E+00 0.30722970E+04</pdfrwt>
<totfact> 0.50978956E-01</totfact>
</mgrwt>
</event>
<event>
 6    1  0.1014650E-006  0.2717859E+04  0.7818608E-02  0.8329234E-01
         -1   -1    0    0    0  501 -0.00000000000E+00  0.00000000000E+00  0.13959478855E+04  0.13959478855E+04  0.00000000000E+00 0.  1.
          1   -1    0    0  501    0  0.00000000000E+00 -0.00000000000E+00 -0.13228926451E+04  0.13228926451E+04  0.00000000000E+00 0. -1.
         23    2    1    2    0    0  0.39045616568E+03 -0.88577199493E+03 -0.91536314458E+03  0.13353597941E+04  0.90818769932E+02 0.  0.
         11    1    3    3    0    0  0.27020543046E+03 -0.50821717784E+03 -0.52236424393E+03  0.77727734937E+03  0.00000000000E+00 0.  1.
        -11    1    3    3    0    0  0.12025073523E+03 -0.37755481709E+03 -0.39299890065E+03  0.55808244475E+03  0.00000000000E+00 0. -1.
         22    1    1    2    0    0 -0.39045616568E+03  0.88577199493E+03  0.98841838501E+03  0.13834807365E+04  0.00000000000E+00 0.  1.
<mgrwt>
<rscale>  0 0.27178589E+04</rscale>
<asrwt>0</asrwt>
<pdfrwt beam="1">  1        1 0.20352195E+00 0.27178589E+04</pdfrwt>
<pdfrwt beam="2">  1       -1 0.21476121E+00 0.27178589E+04</pdfrwt>
<totfact> 0.90651124E-01</totfact>
</mgrwt>
</event>
<event>
 6    1  0.1014650E-006  0.2415729E+04  0.7818608E-02  0.8433638E-01
         -1   -1    0    0    0  501 -0.00000000000E+00  0.00000000000E+00  0.91288267317E+03  0.91288267317E+03  0.00000000000E+00 0.  1.
          1   -1    0    0  501    0  0.00000000000E+00 -0.00000000000E+00 -0.15981643329E+04  0.15981643329E+04  0.00000000000E+00 0. -1.
         23    2    1    2    0    0 -0.44848801025E+02 -0.12016084604E+04 -0.24519023094E+03  0.12305960024E+04  0.91509368979E+02 0.  0.
         13    1    3    3    0    0 -0.27488616501E+02 -0.11826325431E+03 -0.40143396751E+02  0.12788007531E+03  0.00000000000E+00 0. -1.
        -13    1    3    3    0    0 -0.17360184523E+02 -0.10833452061E+04 -0.20504683418E+03  0.11027159271E+04  0.00000000000E+00 0.  1.
         22    1    1    2    0    0  0.44848801025E+02  0.12016084604E+04 -0.44009142876E+03  0.12804510037E+04  0.00000000000E+00 0.  1.
<mgrwt>
<rscale>  0 0.24157289E+04</rscale>
<asrwt>0</asrwt>
<pdfrwt beam="1">  1        1 0.24587143E+00 0.24157289E+04</pdfrwt>
<pdfrwt beam="2">  1       -1 0.14044349E+00 0.24157289E+04</pdfrwt>
<totfact> 0.20819125E+00</totfact>
</mgrwt>
</event>
<event>
 6    1  0.1014650E-006  0.9493055E+03  0.7818608E-02  0.9365963E-01
         -4   -1    0    0    0  501 -0.00000000000E+00  0.00000000000E+00  0.18921073740E+03  0.18921073740E+03  0.00000000000E+00 0.  1.
          4   -1    0    0  501    0  0.00000000000E+00 -0.00000000000E+00 -0.11907105147E+04  0.11907105147E+04  0.00000000000E+00 0. -1.
         23    2    1    2    0    0 -0.73843081914E+02 -0.44510589501E+03 -0.31296873285E+03  0.55672804411E+03  0.91785776875E+02 0.  0.
         13    1    3    3    0    0 -0.40891072935E+02 -0.13640872739E+03 -0.53496838051E+02  0.15212275450E+03  0.00000000000E+00 0.  1.
        -13    1    3    3    0    0 -0.32952008979E+02 -0.30869716762E+03 -0.25947189480E+03  0.40460528961E+03  0.00000000000E+00 0. -1.
         22    1    1    2    0    0  0.73843081914E+02  0.44510589501E+03 -0.68853104450E+03  0.82319320804E+03  0.00000000000E+00 0. -1.
<mgrwt>
<rscale>  0 0.94930546E+03</rscale>
<asrwt>0</asrwt>
<pdfrwt beam="1">  1        4 0.18318623E+00 0.94930546E+03</pdfrwt>
<pdfrwt beam="2">  1       -4 0.29109345E-01 0.94930546E+03</pdfrwt>
<totfact> 0.38855626E+00</totfact>
</mgrwt>
</event>
<event>
 6    1  0.1014650E-006  0.4509300E+04  0.7818608E-02  0.7909011E-01
          2   -1    0    0  501    0  0.00000000000E+00  0.00000000000E+00  0.29402606801E+04  0.29402606801E+04  0.00000000000E+00 0. -1.
         -2   -1    0    0    0  501 -0.00000000000E+00 -0.00000000000E+00 -0.17289102151E+04  0.17289102151E+04  0.00000000000E+00 0.  1.
         23    2    1    2    0    0 -0.40828448626E+03 -0.19912210307E+04 -0.40233063635E+03  0.20738627996E+04  0.85904340426E+02 0.  0.
         11    1    3    3    0    0 -0.13483236586E+03 -0.83722227942E+03 -0.14514855802E+03  0.86034238297E+03  0.00000000000E+00 0.  1.
        -11    1    3    3    0    0 -0.27345212040E+03 -0.11539987513E+04 -0.25718207833E+03  0.12135204166E+04  0.00000000000E+00 0. -1.
         22    1    1    2    0    0  0.40828448626E+03  0.19912210307E+04  0.16136811013E+04  0.25953080956E+04  0.00000000000E+00 0. -1.
<mgrwt>
<rscale>  0 0.45093000E+04</rscale>
<asrwt>0</asrwt>
<pdfrwt beam="1">  1        2 0.45234780E+00 0.45093000E+04</pdfrwt>
<pdfrwt beam="2">  1       -2 0.26598619E+00 0.45093000E+04</pdfrwt>
<totfact> 0.73633018E-02</totfact>
</mgrwt>
</event>
<event>
 6    1  0.1014650E-006  0.2707115E+04  0.7818608E-02  0.8332700E-01
          2   -1    0    0  501    0  0.00000000000E+00  0.00000000000E+00  0.26535039504E+04  0.26535039504E+04  0.00000000000E+00 0. -1.
         -2   -1    0    0    0  501 -0.00000000000E+00 -0.00000000000E+00 -0.69045227638E+03  0.69045227638E+03  0.00000000000E+00 0.  1.
         23    2    1    2    0    0  0.66369407969E+03 -0.92443608040E+03  0.79396666380E+02  0.11432226932E+04  0.74715442607E+02 0.  0.
         11    1    3    3    0    0  0.13619873536E+03 -0.14156296644E+03  0.15928808339E+02  0.19708854841E+03  0.00000000000E+00 0.  1.
        -11    1    3    3    0    0  0.52749534434E+03 -0.78287311396E+03  0.63467858042E+02  0.94613414475E+03  0.00000000000E+00 0. -1.
         22    1    1    2    0    0 -0.66369407969E+03  0.92443608040E+03  0.18836550076E+04  0.22007335336E+04  0.00000000000E+00 0. -1.
<mgrwt>
<rscale>  0 0.27071150E+04</rscale>
<asrwt>0</asrwt>
<pdfrwt beam="1">  1        2 0.40823137E+00 0.27071150E+04</pdfrwt>
<pdfrwt beam="2">  1       -2 0.10622343E+00 0.27071150E+04</pdfrwt>
<totfact> 0.17732627E+00</totfact>
</mgrwt>
</event>
<event>
 6    1  0.1014650E-006  0.3196076E+04  0.7818608E-02  0.8189854E-01
          2   -1    0    0  501    0  0.00000000000E+00  0.00000000000E+00  0.13785311871E+04  0.13785311871E+04  0.00000000000E+00 0. -1.
         -2   -1    0    0    0  501 -0.00000000000E+00 -0.00000000000E+00 -0.18524978902E+04  0.18524978902E+04  0.00000000000E+00 0.  1.
         23    2    1    2    0    0  0.90343853532E+03  0.11373010565E+04  0.43220315785E+03  0.15190715145E+04  0.10546950446E+03 0.  0.
         11    1    3    3    0    0  0.59882883103E+03  0.68595578303E+03  0.24047419096E+03  0.94178508252E+03  0.00000000000E+00 0. -1.
        -11    1    3    3    0    0  0.30460970429E+03  0.45134527344E+03  0.19172896688E+03  0.57728643198E+03  0.00000000000E+00 0.  1.
         22    1    1    2    0    0 -0.90343853532E+03 -0.11373010565E+04 -0.90616986093E+03  0.17119575629E+04  0.00000000000E+00 0.  1.
<mgrwt>
<rscale>  0 0.31960764E+04</rscale>
<asrwt>0</asrwt>
<pdfrwt beam="1">  1        2 0.21208172E+00 0.31960764E+04</pdfrwt>
<pdfrwt beam="2">  1       -2 0.28499968E+00 0.31960764E+04</pdfrwt>
<totfact> 0.49223778E-01</totfact>
</mgrwt>
</event>
<event>
 6    1  0.1014650E-006  0.5136575E+03  0.7818608E-02  0.1010274E+00
         -1   -1    0    0    0  501 -0.00000000000E+00  0.00000000000E+00  0.30570945874E+02  0.30570945874E+02  0.00000000000E+00 0.  1.
          1   -1    0    0  501    0  0.00000000000E+00 -0.00000000000E+00 -0.21576374792E+04  0.21576374792E+04  0.00000000000E+00 0. -1.
         23    2    1    2    0    0 -0.21958184627E+03  0.10341187847E+03 -0.87401029400E+03  0.91186202118E+03  0.93210234562E+02 0.  0.
         11    1    3    3    0    0 -0.19055056004E+03  0.11261797323E+03 -0.82485477852E+03  0.85403614062E+03  0.00000000000E+00 0.  1.
        -11    1    3    3    0    0 -0.29031286230E+02 -0.92060947593E+01 -0.49155515477E+02  0.57825880561E+02  0.00000000000E+00 0. -1.
         22    1    1    2    0    0  0.21958184627E+03 -0.10341187847E+03 -0.12530562393E+04  0.12763464039E+04  0.00000000000E+00 0. -1.
<mgrwt>
<rscale>  0 0.51365755E+03</rscale>
<asrwt>0</asrwt>
<pdfrwt beam="1">  1        1 0.33194424E+00 0.51365755E+03</pdfrwt>
<pdfrwt beam="2">  1       -1 0.47032222E-02 0.51365755E+03</pdfrwt>
<totfact> 0.49971250E+02</totfact>
</mgrwt>
</event>
<event>
 6    1  0.1014650E-006  0.1365566E+04  0.7818608E-02  0.8979128E-01
          2   -1    0    0  501    0  0.00000000000E+00  0.00000000000E+00  0.85661951891E+03  0.85661951891E+03  0.00000000000E+00 0. -1.
         -2   -1    0    0    0  501 -0.00000000000E+00 -0.00000000000E+00 -0.54422328238E+03  0.54422328238E+03  0.00000000000E+00 0.  1.
         23    2    1    2    0    0  0.48160792133E+03 -0.22987364561E+03  0.58905059057E+03  0.79973905447E+03  0.88396120697E+02 0.  0.
         11    1    3    3    0    0  0.23588274283E+03 -0.13177496199E+03  0.23742851973E+03  0.35969099371E+03  0.00000000000E+00 0. -1.
        -11    1    3    3    0    0  0.24572517850E+03 -0.98098683622E+02  0.35162207084E+03  0.44004806076E+03  0.00000000000E+00 0.  1.
         22    1    1    2    0    0 -0.48160792133E+03  0.22987364561E+03 -0.27665435404E+03  0.60110374682E+03  0.00000000000E+00 0.  1.
<mgrwt>
<rscale>  0 0.13655655E+04</rscale>
<asrwt>0</asrwt>
<pdfrwt beam="1">  1        2 0.13178762E+00 0.13655655E+04</pdfrwt>
<pdfrwt beam="2">  1       -2 0.83726658E-01 0.13655655E+04</pdfrwt>
<totfact> 0.38222084E+01</totfact>
</mgrwt>
</event>
<event>
 6    1  0.1014650E-006  0.5434687E+04  0.7818608E-02  0.7764741E-01
          1   -1    0    0  501    0  0.00000000000E+00  0.00000000000E+00  0.36031314405E+04  0.36031314405E+04  0.00000000000E+00 0. -1.
         -1   -1    0    0    0  501 -0.00000000000E+00 -0.00000000000E+00 -0.20493163600E+04  0.20493163600E+04  0.00000000000E+00 0.  1.
         23    2    1    2    0    0 -0.12041800866E+04  0.22059856235E+04  0.18495013768E+04  0.31218643425E+04  0.94653991092E+02 0.  0.
         11    1    3    3    0    0 -0.53562382619E+03  0.89770102146E+03  0.73918195623E+03  0.12802929241E+04  0.00000000000E+00 0.  1.
        -11    1    3    3    0    0 -0.66855626041E+03  0.13082846021E+04  0.11103194206E+04  0.18415714184E+04  0.00000000000E+00 0. -1.
         22    1    1    2    0    0  0.12041800866E+04 -0.22059856235E+04 -0.29568629631E+03  0.25305834580E+04  0.00000000000E+00 0.  1.
<mgrwt>
<rscale>  0 0.54346872E+04</rscale>
<asrwt>0</asrwt>
<pdfrwt beam="1">  1        1 0.55432792E+00 0.54346872E+04</pdfrwt>
<pdfrwt beam="2">  1       -1 0.31527944E+00 0.54346872E+04</pdfrwt>
<totfact> 0.37856195E-03</totfact>
</mgrwt>
</event>
<event>
 6    1  0.1014650E-006  0.1443348E+04  0.7818608E-02  0.8923025E-01
         -1   -1    0    0    0  501 -0.00000000000E+00  0.00000000000E+00  0.28114243595E+03  0.28114243595E+03  0.00000000000E+00 0.  1.
          1   -1    0    0  501    0  0.00000000000E+00 -0.00000000000E+00 -0.18524903747E+04  0.18524903747E+04  0.00000000000E+00 0. -1.
         23    2    1    2    0    0  0.13041311317E+03 -0.14014169178E+03 -0.18129171508E+04  0.18254073119E+04  0.93786912341E+02 0.  0.
         11    1    3    3    0    0  0.31808706095E+02  0.59882345461E+01 -0.44539300913E+03  0.44656755964E+03  0.00000000000E+00 0. -1.
        -11    1    3    3    0    0  0.98604407071E+02 -0.14612992633E+03 -0.13675241416E+04  0.13788397523E+04  0.00000000000E+00 0.  1.
         22    1    1    2    0    0 -0.13041311317E+03  0.14014169178E+03  0.24156921204E+03  0.30822549873E+03  0.00000000000E+00 0.  1.
<mgrwt>
<rscale>  0 0.14433484E+04</rscale>
<asrwt>0</asrwt>
<pdfrwt beam="1">  1        1 0.28499852E+00 0.14433484E+04</pdfrwt>
<pdfrwt beam="2">  1       -1 0.43252682E-01 0.14433484E+04</pdfrwt>
<totfact> 0.19235205E+01</totfact>
</mgrwt>
</event>
<event>
 6    1  0.1014650E-006  0.3645615E+04  0.7818608E-02  0.8080122E-01
         -1   -1    0    0    0  501 -0.00000000000E+00  0.00000000000E+00  0.12577595139E+04  0.12577595139E+04  0.00000000000E+00 0.  1.
          1   -1    0    0  501    0  0.00000000000E+00 -0.00000000000E+00 -0.26417037727E+04  0.26417037727E+04  0.00000000000E+00 0. -1.
         23    2    1    2    0    0 -0.11498985413E+04  0.10765116693E+04  0.28673509382E+03  0.16033113908E+04  0.85125627109E+02 0.  0.
         13    1    3    3    0    0 -0.16561848934E+03  0.13056486415E+03  0.15356268017E+02  0.21145326370E+03  0.00000000000E+00 0. -1.
        -13    1    3    3    0    0 -0.98428005199E+03  0.94594680512E+03  0.27137882580E+03  0.13918581271E+04  0.00000000000E+00 0.  1.
         22    1    1    2    0    0  0.11498985413E+04 -0.10765116693E+04 -0.16706793526E+04  0.22961518958E+04  0.00000000000E+00 0. -1.
<mgrwt>
<rscale>  0 0.36456155E+04</rscale>
<asrwt>0</asrwt>
<pdfrwt beam="1">  1        1 0.40641596E+00 0.36456155E+04</pdfrwt>
<pdfrwt beam="2">  1       -1 0.19350147E+00 0.36456155E+04</pdfrwt>
<totfact> 0.14515231E-01</totfact>
</mgrwt>
</event>
<event>
 6    1  0.1014650E-006  0.1281270E+04  0.7818608E-02  0.9044552E-01
          2   -1    0    0  501    0  0.00000000000E+00  0.00000000000E+00  0.69426849343E+03  0.69426849343E+03  0.00000000000E+00 0. -1.
         -2   -1    0    0    0  501 -0.00000000000E+00 -0.00000000000E+00 -0.59114437471E+03  0.59114437471E+03  0.00000000000E+00 0.  1.
         23    2    1    2    0    0  0.35768729733E+03 -0.32127945270E+03  0.47152733980E+03  0.67970532922E+03  0.92198768965E+02 0.  0.
         13    1    3    3    0    0  0.20137253915E+03 -0.16433572434E+03  0.31543237353E+03  0.40872327080E+03  0.00000000000E+00 0. -1.
        -13    1    3    3    0    0  0.15631475818E+03 -0.15694372836E+03  0.15609496627E+03  0.27098205842E+03  0.00000000000E+00 0.  1.
         22    1    1    2    0    0 -0.35768729733E+03  0.32127945270E+03 -0.36840322108E+03  0.60570753892E+03  0.00000000000E+00 0.  1.
<mgrwt>
<rscale>  0 0.12812695E+04</rscale>
<asrwt>0</asrwt>
<pdfrwt beam="1">  1        2 0.10681054E+00 0.12812695E+04</pdfrwt>
<pdfrwt beam="2">  1       -2 0.90945289E-01 0.12812695E+04</pdfrwt>
<totfact> 0.41932559E+01</totfact>
</mgrwt>
</event>
<event>
 6    1  0.1014650E-006  0.1988229E+04  0.7818608E-02  0.8612144E-01
          1   -1    0    0  501    0  0.00000000000E+00  0.00000000000E+00  0.48453764126E+03  0.48453764126E+03  0.00000000000E+00 0. -1.
         -1   -1    0    0    0  501 -0.00000000000E+00 -0.00000000000E+00 -0.20396023970E+04  0.20396023970E+04  0.00000000000E+00 0.  1.
         23    2    1    2    0    0 -0.78202421968E+03  0.54899263438E+03 -0.44082647986E+03  0.10563247474E+04  0.92407758196E+02 0.  0.
         13    1    3    3    0    0 -0.63628550651E+03  0.41063896759E+03 -0.32227499549E+03  0.82300958696E+03  0.00000000000E+00 0. -1.
        -13    1    3    3    0    0 -0.14573871317E+03  0.13835366679E+03 -0.11855148437E+03  0.23331516041E+03  0.00000000000E+00 0.  1.
         22    1    1    2    0    0  0.78202421968E+03 -0.54899263438E+03 -0.11142382759E+04  0.14678152909E+04  0.00000000000E+00 0.  1.
<mgrwt>
<rscale>  0 0.19882295E+04</rscale>
<asrwt>0</asrwt>
<pdfrwt beam="1">  1        1 0.74544252E-01 0.19882295E+04</pdfrwt>
<pdfrwt beam="2">  1       -1 0.31378499E+00 0.19882295E+04</pdfrwt>
<totfact> 0.11559120E+00</totfact>
</mgrwt>
</event>
<event>
 6    1  0.1014650E-006  0.2952294E+04  0.7818608E-02  0.8257486E-01
         -2   -1    0    0    0  501 -0.00000000000E+00  0.00000000000E+00  0.86090064071E+03  0.86090064071E+03  0.00000000000E+00 0.  1.
          2   -1    0    0  501    0  0.00000000000E+00 -0.00000000000E+00 -0.25310814460E+04  0.25310814460E+04  0.00000000000E+00 0. -1.
         23    2    1    2    0    0 -0.37087927687E+02  0.99540083961E+03  0.41372336511E+03  0.10822515965E+04  0.88899659466E+02 0.  0.
         11    1    3    3    0    0  0.29458876895E+02  0.27990574546E+03  0.11918947452E+03  0.30564878963E+03  0.00000000000E+00 0. -1.
        -11    1    3    3    0    0 -0.66546804582E+02  0.71549509415E+03  0.29453389059E+03  0.77660280689E+03  0.00000000000E+00 0.  1.
         22    1    1    2    0    0  0.37087927687E+02 -0.99540083961E+03 -0.20839041704E+04  0.23097304902E+04  0.00000000000E+00 0. -1.
<mgrwt>
<rscale>  0 0.29522938E+04</rscale>
<asrwt>0</asrwt>
<pdfrwt beam="1">  1        2 0.38939714E+00 0.29522938E+04</pdfrwt>
<pdfrwt beam="2">  1       -2 0.13244625E+00 0.29522938E+04</pdfrwt>
<totfact> 0.11883816E+00</totfact>
</mgrwt>
</event>
<event>
 6    1  0.1014650E-006  0.7917411E+03  0.7818608E-02  0.9572049E-01
         -1   -1    0    0    0  501 -0.00000000000E+00  0.00000000000E+00  0.18481212299E+03  0.18481212299E+03  0.00000000000E+00 0.  1.
          1   -1    0    0  501    0  0.00000000000E+00 -0.00000000000E+00 -0.84796111739E+03  0.84796111739E+03  0.00000000000E+00 0. -1.
         23    2    1    2    0    0 -0.25267957348E+03  0.15423420091E+03 -0.66839166341E+03  0.73669446512E+03  0.91302593778E+02 0.  0.
         11    1    3    3    0    0 -0.16144337606E+03  0.45550792087E+02 -0.35086463826E+03  0.38890208628E+03  0.00000000000E+00 0.  1.
        -11    1    3    3    0    0 -0.91236197412E+02  0.10868340882E+03 -0.31752702515E+03  0.34779237883E+03  0.00000000000E+00 0. -1.
         22    1    1    2    0    0  0.25267957348E+03 -0.15423420091E+03  0.52426690099E+01  0.29607877526E+03  0.00000000000E+00 0.  1.
<mgrwt>
<rscale>  0 0.79174110E+03</rscale>
<asrwt>0</asrwt>
<pdfrwt beam="1">  1        1 0.13045555E+00 0.79174110E+03</pdfrwt>
<pdfrwt beam="2">  1       -1 0.28432635E-01 0.79174110E+03</pdfrwt>
<totfact> 0.22761004E+02</totfact>
</mgrwt>
</event>
<event>
 6    1  0.1014650E-006  0.1653727E+04  0.7818608E-02  0.8788205E-01
         -1   -1    0    0    0  501 -0.00000000000E+00  0.00000000000E+00  0.66405344805E+03  0.66405344805E+03  0.00000000000E+00 0.  1.
          1   -1    0    0  501    0  0.00000000000E+00 -0.00000000000E+00 -0.10295908549E+04  0.10295908549E+04  0.00000000000E+00 0. -1.
         23    2    1    2    0    0  0.10814653362E+03 -0.51828133225E+03 -0.83024939168E+03  0.98918107394E+03  0.94095337611E+02 0.  0.
         11    1    3    3    0    0  0.60896189215E+02 -0.25523127264E+03 -0.32598465681E+03  0.41847024370E+03  0.00000000000E+00 0.  1.
        -11    1    3    3    0    0  0.47250344403E+02 -0.26305005961E+03 -0.50426473488E+03  0.57071083023E+03  0.00000000000E+00 0. -1.
         22    1    1    2    0    0 -0.10814653362E+03  0.51828133225E+03  0.46471198488E+03  0.70446322897E+03  0.00000000000E+00 0.  1.
<mgrwt>
<rscale>  0 0.16537271E+04</rscale>
<asrwt>0</asrwt>
<pdfrwt beam="1">  1        1 0.15839859E+00 0.16537271E+04</pdfrwt>
<pdfrwt beam="2">  1       -1 0.10216207E+00 0.16537271E+04</pdfrwt>
<totfact> 0.12439844E+01</totfact>
</mgrwt>
</event>
<event>
 6    1  0.1014650E-006  0.1928078E+04  0.7818608E-02  0.8641005E-01
          1   -1    0    0  501    0  0.00000000000E+00  0.00000000000E+00  0.43504684818E+03  0.43504684818E+03  0.00000000000E+00 0. -1.
         -1   -1    0    0    0  501 -0.00000000000E+00 -0.00000000000E+00 -0.21362556731E+04  0.21362556731E+04  0.00000000000E+00 0.  1.
         23    2    1    2    0    0 -0.31253983735E+03 -0.89940902645E+03 -0.67095923975E+03  0.11684368989E+04  0.91873491660E+02 0.  0.
         11    1    3    3    0    0 -0.99535732771E+02 -0.27344238589E+03 -0.15476187007E+03  0.32958964931E+03  0.00000000000E+00 0.  1.
        -11    1    3    3    0    0 -0.21300410458E+03 -0.62596664055E+03 -0.51619736968E+03  0.83884724957E+03  0.00000000000E+00 0. -1.
         22    1    1    2    0    0  0.31253983735E+03  0.89940902645E+03 -0.10302495852E+04  0.14028656224E+04  0.00000000000E+00 0.  1.
<mgrwt>
<rscale>  0 0.19280781E+04</rscale>
<asrwt>0</asrwt>
<pdfrwt beam="1">  1        1 0.66930284E-01 0.19280781E+04</pdfrwt>
<pdfrwt beam="2">  1       -1 0.32865472E+00 0.19280781E+04</pdfrwt>
<totfact> 0.10763452E+00</totfact>
</mgrwt>
</event>
<event>
 6    1  0.1014650E-006  0.2214999E+04  0.7818608E-02  0.8512211E-01
         -2   -1    0    0    0  501 -0.00000000000E+00  0.00000000000E+00  0.69004724951E+03  0.69004724951E+03  0.00000000000E+00 0.  1.
          2   -1    0    0  501    0  0.00000000000E+00 -0.00000000000E+00 -0.17774936731E+04  0.17774936731E+04  0.00000000000E+00 0. -1.
         23    2    1    2    0    0  0.42342749056E+03  0.92403640618E+03 -0.60076438343E+02  0.10223339456E+04  0.91779073136E+02 0.  0.
         11    1    3    3    0    0  0.20589478928E+03  0.55595676234E+03 -0.43678964234E+02  0.59446483308E+03  0.00000000000E+00 0.  1.
        -11    1    3    3    0    0  0.21753270128E+03  0.36807964384E+03 -0.16397474109E+02  0.42786911257E+03  0.00000000000E+00 0. -1.
         22    1    1    2    0    0 -0.42342749056E+03 -0.92403640618E+03 -0.10273699853E+04  0.14452069770E+04  0.00000000000E+00 0. -1.
<mgrwt>
<rscale>  0 0.22149985E+04</rscale>
<asrwt>0</asrwt>
<pdfrwt beam="1">  1        2 0.27346056E+00 0.22149985E+04</pdfrwt>
<pdfrwt beam="2">  1       -2 0.10616112E+00 0.22149985E+04</pdfrwt>
<totfact> 0.58042067E+00</totfact>
</mgrwt>
</event>
<event>
 6    1  0.1014650E-006  0.9755269E+03  0.7818608E-02  0.9335801E-01
         -1   -1    0    0    0  501 -0.00000000000E+00  0.00000000000E+00  0.64796661017E+03  0.64796661017E+03  0.00000000000E+00 0.  1.
          1   -1    0    0  501    0  0.00000000000E+00 -0.00000000000E+00 -0.36716892094E+03  0.36716892094E+03  0.00000000000E+00 0. -1.
         23    2    1    2    0    0 -0.23564645461E+03 -0.42121170396E+03  0.16754825648E+03  0.51937955774E+03  0.93456704547E+02 0.  0.
         13    1    3    3    0    0 -0.10835695571E+03 -0.18421835379E+03  0.25711650319E+02  0.21526430426E+03  0.00000000000E+00 0. -1.
        -13    1    3    3    0    0 -0.12728949889E+03 -0.23699335017E+03  0.14183660616E+03  0.30411525348E+03  0.00000000000E+00 0.  1.
         22    1    1    2    0    0  0.23564645461E+03  0.42121170396E+03  0.11324943275E+03  0.49575597337E+03  0.00000000000E+00 0. -1.
<mgrwt>
<rscale>  0 0.97552694E+03</rscale>
<asrwt>0</asrwt>
<pdfrwt beam="1">  1        1 0.56487526E-01 0.97552694E+03</pdfrwt>
<pdfrwt beam="2">  1       -1 0.99687171E-01 0.97552694E+03</pdfrwt>
<totfact> 0.64834432E+01</totfact>
</mgrwt>
</event>
<event>
 6    1  0.1014650E-006  0.2920648E+04  0.7818608E-02  0.8266760E-01
         -2   -1    0    0    0  501 -0.00000000000E+00  0.00000000000E+00  0.85774633599E+03  0.85774633599E+03  0.00000000000E+00 0.  1.
          2   -1    0    0  501    0  0.00000000000E+00 -0.00000000000E+00 -0.24862200651E+04  0.24862200651E+04  0.00000000000E+00 0. -1.
         23    2    1    2    0    0  0.66670217984E+03  0.10527868915E+04  0.53680897478E+02  0.12505251616E+04  0.89886069538E+02 0.  0.
         13    1    3    3    0    0  0.55290020278E+02  0.12010915514E+03  0.27196956200E+02  0.13499211057E+03  0.00000000000E+00 0. -1.
        -13    1    3    3    0    0  0.61141215956E+03  0.93267773636E+03  0.26483941279E+02  0.11155330510E+04  0.00000000000E+00 0.  1.
         22    1    1    2    0    0 -0.66670217984E+03 -0.10527868915E+04 -0.16821546266E+04  0.20934412395E+04  0.00000000000E+00 0. -1.
<mgrwt>
<rscale>  0 0.29206480E+04</rscale>
<asrwt>0</asrwt>
<pdfrwt beam="1">  1        2 0.38249539E+00 0.29206480E+04</pdfrwt>
<pdfrwt beam="2">  1       -2 0.13196098E+00 0.29206480E+04</pdfrwt>
<totfact> 0.12770406E+00</totfact>
</mgrwt>
</event>
<event>
 6    1  0.1014650E-006  0.2368836E+04  0.7818608E-02  0.8451264E-01
         -2   -1    0    0    0  501 -0.00000000000E+00  0.00000000000E+00  0.51621143823E+03  0.51621143823E+03  0.00000000000E+00 0.  1.
          2   -1    0    0  501    0  0.00000000000E+00 -0.00000000000E+00 -0.27175804580E+04  0.27175804580E+04  0.00000000000E+00 0. -1.
         23    2    1    2    0    0  0.19869164288E+03 -0.14391953966E+03 -0.26817064202E+04  0.26944263235E+04  0.90513455917E+02 0.  0.
         11    1    3    3    0    0  0.10289082508E+03 -0.40978650710E+02 -0.82471485336E+03  0.83211799707E+03  0.00000000000E+00 0. -1.
        -11    1    3    3    0    0  0.95800817791E+02 -0.10294088895E+03 -0.18569915669E+04  0.18623083264E+04  0.00000000000E+00 0.  1.
         22    1    1    2    0    0 -0.19869164288E+03  0.14391953966E+03  0.48033740042E+03  0.53936557276E+03  0.00000000000E+00 0.  1.
<mgrwt>
<rscale>  0 0.23688361E+04</rscale>
<asrwt>0</asrwt>
<pdfrwt beam="1">  1        2 0.41808930E+00 0.23688361E+04</pdfrwt>
<pdfrwt beam="2">  1       -2 0.79417145E-01 0.23688361E+04</pdfrwt>
<totfact> 0.32841210E+00</totfact>
</mgrwt>
</event>
<event>
 6    1  0.1014650E-006  0.1917373E+04  0.7818608E-02  0.8646257E-01
          1   -1    0    0  501    0  0.00000000000E+00  0.00000000000E+00  0.13125965875E+04  0.13125965875E+04  0.00000000000E+00 0. -1.
         -1   -1    0    0    0  501 -0.00000000000E+00 -0.00000000000E+00 -0.70019940786E+03  0.70019940786E+03  0.00000000000E+00 0.  1.
         23    2    1    2    0    0 -0.72395288766E+02 -0.86609802927E+03  0.72629262290E+03  0.11362464838E+04  0.90488804907E+02 0.  0.
         13    1    3    3    0    0 -0.12367693325E+02 -0.18009453755E+03  0.20084991164E+03  0.27005127162E+03  0.00000000000E+00 0. -1.
        -13    1    3    3    0    0 -0.60027595441E+02 -0.68600349171E+03  0.52544271125E+03  0.86619521222E+03  0.00000000000E+00 0.  1.
         22    1    1    2    0    0  0.72395288766E+02  0.86609802927E+03 -0.11389544326E+03  0.87654951151E+03  0.00000000000E+00 0. -1.
<mgrwt>
<rscale>  0 0.19173725E+04</rscale>
<asrwt>0</asrwt>
<pdfrwt beam="1">  1        1 0.20193794E+00 0.19173725E+04</pdfrwt>
<pdfrwt beam="2">  1       -1 0.10772299E+00 0.19173725E+04</pdfrwt>
<totfact> 0.66371025E+00</totfact>
</mgrwt>
</event>
<event>
 6    1  0.1014650E-006  0.1790546E+04  0.7818608E-02  0.8711343E-01
         -1   -1    0    0    0  501 -0.00000000000E+00  0.00000000000E+00  0.66218805007E+03  0.66218805007E+03  0.00000000000E+00 0.  1.
          1   -1    0    0  501    0  0.00000000000E+00 -0.00000000000E+00 -0.12104019035E+04  0.12104019035E+04  0.00000000000E+00 0. -1.
         23    2    1    2    0    0  0.56841680178E+03  0.14640148606E+03  0.42877410453E+03  0.73283711822E+03  0.93123323949E+02 0.  0.
         11    1    3    3    0    0  0.29558645943E+03  0.10906935619E+03  0.27026123576E+03  0.41510072875E+03  0.00000000000E+00 0. -1.
        -11    1    3    3    0    0  0.27283034235E+03  0.37332129873E+02  0.15851286878E+03  0.31773638947E+03  0.00000000000E+00 0.  1.
         22    1    1    2    0    0 -0.56841680178E+03 -0.14640148606E+03 -0.97698795799E+03  0.11397528354E+04  0.00000000000E+00 0.  1.
<mgrwt>
<rscale>  0 0.17905459E+04</rscale>
<asrwt>0</asrwt>
<pdfrwt beam="1">  1        1 0.18621568E+00 0.17905459E+04</pdfrwt>
<pdfrwt beam="2">  1       -1 0.10187509E+00 0.17905459E+04</pdfrwt>
<totfact> 0.90563570E+00</totfact>
</mgrwt>
</event>
<event>
 6    1  0.1014650E-006  0.4254322E+04  0.7818608E-02  0.7955119E-01
          3   -1    0    0  501    0  0.00000000000E+00  0.00000000000E+00  0.20398093729E+04  0.20398093729E+04  0.00000000000E+00 0. -1.
         -3   -1    0    0    0  501 -0.00000000000E+00 -0.00000000000E+00 -0.22182536864E+04  0.22182536864E+04  0.00000000000E+00 0.  1.
         23    2    1    2    0    0  0.10566875990E+04  0.16865686070E+04 -0.83809341229E+03  0.21613419807E+04  0.88860797988E+02 0.  0.
         13    1    3    3    0    0  0.40732392473E+03  0.72413182341E+03 -0.32857599522E+03  0.89344382139E+03  0.00000000000E+00 0.  1.
        -13    1    3    3    0    0  0.64936367431E+03  0.96243678361E+03 -0.50951741707E+03  0.12678981593E+04  0.00000000000E+00 0. -1.
         22    1    1    2    0    0 -0.10566875990E+04 -0.16865686070E+04  0.65964909876E+03  0.20967210787E+04  0.00000000000E+00 0. -1.
<mgrwt>
<rscale>  0 0.42543223E+04</rscale>
<asrwt>0</asrwt>
<pdfrwt beam="1">  1        3 0.31381683E+00 0.42543223E+04</pdfrwt>
<pdfrwt beam="2">  1       -3 0.34126980E+00 0.42543223E+04</pdfrwt>
<totfact> 0.14420340E-03</totfact>
</mgrwt>
</event>
<event>
 6    1  0.1014650E-006  0.4978362E+04  0.7818608E-02  0.7831854E-01
          1   -1    0    0  501    0  0.00000000000E+00  0.00000000000E+00  0.34794677980E+04  0.34794677980E+04  0.00000000000E+00 0. -1.
         -1   -1    0    0    0  501 -0.00000000000E+00 -0.00000000000E+00 -0.17807382333E+04  0.17807382333E+04  0.00000000000E+00 0.  1.
         23    2    1    2    0    0  0.19132819249E+04 -0.15635718134E+04  0.53905420424E+03  0.25306911511E+04  0.91726369695E+02 0.  0.
         11    1    3    3    0    0  0.89087734884E+03 -0.75545577264E+03  0.29633445289E+03  0.12050684558E+04  0.00000000000E+00 0.  1.
        -11    1    3    3    0    0  0.10224045761E+04 -0.80811604080E+03  0.24271975135E+03  0.13256226953E+04  0.00000000000E+00 0. -1.
         22    1    1    2    0    0 -0.19132819249E+04  0.15635718134E+04  0.11596753604E+04  0.27295148803E+04  0.00000000000E+00 0.  1.
<mgrwt>
<rscale>  0 0.49783617E+04</rscale>
<asrwt>0</asrwt>
<pdfrwt beam="1">  1        1 0.53530274E+00 0.49783617E+04</pdfrwt>
<pdfrwt beam="2">  1       -1 0.27395973E+00 0.49783617E+04</pdfrwt>
<totfact> 0.91256033E-03</totfact>
</mgrwt>
</event>
<event>
 6    1  0.1635135E-006  0.3473927E+04  0.7818608E-02  0.8119997E-01
         -1   -1    0    0    0  501 -0.00000000000E+00  0.00000000000E+00  0.18770043160E+04  0.18770043160E+04  0.00000000000E+00 0.  1.
          1   -1    0    0  501    0  0.00000000000E+00 -0.00000000000E+00 -0.16073711548E+04  0.16073711548E+04  0.00000000000E+00 0. -1.
         23    2    1    2    0    0  0.28519882754E+03  0.16912149010E+04  0.40253923684E+03  0.17641399527E+04  0.92767036658E+02 0.  0.
         11    1    3    3    0    0  0.15867785479E+03  0.87977214408E+03  0.25621566507E+03  0.92995922175E+03  0.00000000000E+00 0.  1.
        -11    1    3    3    0    0  0.12652097275E+03  0.81144275692E+03  0.14632357177E+03  0.83418073099E+03  0.00000000000E+00 0. -1.
         22    1    1    2    0    0 -0.28519882754E+03 -0.16912149010E+04 -0.13290607562E+03  0.17202355180E+04  0.00000000000E+00 0. -1.
<mgrwt>
<rscale>  0 0.34739272E+04</rscale>
<asrwt>0</asrwt>
<pdfrwt beam="1">  1        1 0.24728787E+00 0.34739272E+04</pdfrwt>
<pdfrwt beam="2">  1       -1 0.28876990E+00 0.34739272E+04</pdfrwt>
<totfact> 0.17608567E-01</totfact>
</mgrwt>
</event>
<event>
 6    1  0.1014650E-006  0.2199871E+04  0.7818608E-02  0.8518482E-01
         -2   -1    0    0    0  501 -0.00000000000E+00  0.00000000000E+00  0.71271561474E+03  0.71271561474E+03  0.00000000000E+00 0.  1.
          2   -1    0    0  501    0  0.00000000000E+00 -0.00000000000E+00 -0.16975333055E+04  0.16975333055E+04  0.00000000000E+00 0. -1.
         23    2    1    2    0    0  0.58070641876E+03  0.63305536207E+03  0.25600907759E+03  0.90106698777E+03  0.91662600826E+02 0.  0.
         13    1    3    3    0    0  0.17535153174E+03  0.14223148206E+03  0.43284294220E+02  0.22989450689E+03  0.00000000000E+00 0. -1.
        -13    1    3    3    0    0  0.40535488703E+03  0.49082388001E+03  0.21272478337E+03  0.67117248087E+03  0.00000000000E+00 0.  1.
         22    1    1    2    0    0 -0.58070641876E+03 -0.63305536207E+03 -0.12408267683E+04  0.15091819325E+04  0.00000000000E+00 0. -1.
<mgrwt>
<rscale>  0 0.21998714E+04</rscale>
<asrwt>0</asrwt>
<pdfrwt beam="1">  1        2 0.26115897E+00 0.21998714E+04</pdfrwt>
<pdfrwt beam="2">  1       -2 0.10964856E+00 0.21998714E+04</pdfrwt>
<totfact> 0.59546389E+00</totfact>
</mgrwt>
</event>
<event>
 6    1  0.1014650E-006  0.1907661E+04  0.7818608E-02  0.8651053E-01
          2   -1    0    0  501    0  0.00000000000E+00  0.00000000000E+00  0.13443242210E+04  0.13443242210E+04  0.00000000000E+00 0. -1.
         -2   -1    0    0    0  501 -0.00000000000E+00 -0.00000000000E+00 -0.67676556201E+03  0.67676556201E+03  0.00000000000E+00 0.  1.
         23    2    1    2    0    0  0.30674235178E+03 -0.26797663885E+02  0.12885306482E+04  0.13279698825E+04  0.91563051880E+02 0.  0.
         13    1    3    3    0    0  0.26153116664E+03 -0.38039493897E+01  0.93786613220E+03  0.97365594698E+03  0.00000000000E+00 0. -1.
        -13    1    3    3    0    0  0.45211185146E+02 -0.22993714495E+02  0.35066451595E+03  0.35431393554E+03  0.00000000000E+00 0.  1.
         22    1    1    2    0    0 -0.30674235178E+03  0.26797663885E+02 -0.62097198915E+03  0.69311990050E+03  0.00000000000E+00 0.  1.
<mgrwt>
<rscale>  0 0.19076607E+04</rscale>
<asrwt>0</asrwt>
<pdfrwt beam="1">  1        2 0.20681911E+00 0.19076607E+04</pdfrwt>
<pdfrwt beam="2">  1       -2 0.10411778E+00 0.19076607E+04</pdfrwt>
<totfact> 0.10940084E+01</totfact>
</mgrwt>
</event>
<event>
 6    1  0.1014650E-006  0.1876295E+04  0.7818608E-02  0.8666747E-01
          1   -1    0    0  501    0  0.00000000000E+00  0.00000000000E+00  0.98167695428E+03  0.98167695428E+03  0.00000000000E+00 0. -1.
         -1   -1    0    0    0  501 -0.00000000000E+00 -0.00000000000E+00 -0.89654792977E+03  0.89654792977E+03  0.00000000000E+00 0.  1.
         23    2    1    2    0    0 -0.68778907264E+03 -0.56809773393E+03 -0.24056796161E+03  0.92855790532E+03  0.92509435379E+02 0.  0.
         13    1    3    3    0    0 -0.72985254106E+02 -0.87761091057E+02 -0.79456969419E+01  0.11442023650E+03  0.00000000000E+00 0.  1.
        -13    1    3    3    0    0 -0.61480381853E+03 -0.48033664287E+03 -0.23262226467E+03  0.81413766882E+03  0.00000000000E+00 0. -1.
         22    1    1    2    0    0  0.68778907264E+03  0.56809773393E+03  0.32569698612E+03  0.94966697874E+03  0.00000000000E+00 0. -1.
<mgrwt>
<rscale>  0 0.18762947E+04</rscale>
<asrwt>0</asrwt>
<pdfrwt beam="1">  1        1 0.15102722E+00 0.18762947E+04</pdfrwt>
<pdfrwt beam="2">  1       -1 0.13793045E+00 0.18762947E+04</pdfrwt>
<totfact> 0.63908976E+00</totfact>
</mgrwt>
</event>
<event>
 6    1  0.1014650E-006  0.1176630E+04  0.7818608E-02  0.9133562E-01
         -2   -1    0    0    0  501 -0.00000000000E+00  0.00000000000E+00  0.13058703685E+04  0.13058703685E+04  0.00000000000E+00 0.  1.
          2   -1    0    0  501    0  0.00000000000E+00 -0.00000000000E+00 -0.26504494937E+03  0.26504494937E+03  0.00000000000E+00 0. -1.
         23    2    1    2    0    0  0.18689957082E+03  0.54279440891E+03  0.37416969073E+03  0.69114996273E+03  0.90155940440E+02 0.  0.
         11    1    3    3    0    0  0.13939748683E+03  0.27200503128E+03  0.21181891370E+03  0.37186778373E+03  0.00000000000E+00 0.  1.
        -11    1    3    3    0    0  0.47502083992E+02  0.27078937763E+03  0.16235077703E+03  0.31928217900E+03  0.00000000000E+00 0. -1.
         22    1    1    2    0    0 -0.18689957082E+03 -0.54279440891E+03  0.66665572844E+03  0.87976535518E+03  0.00000000000E+00 0.  1.
<mgrwt>
<rscale>  0 0.11766297E+04</rscale>
<asrwt>0</asrwt>
<pdfrwt beam="1">  1        2 0.40776147E-01 0.11766297E+04</pdfrwt>
<pdfrwt beam="2">  1       -2 0.20090313E+00 0.11766297E+04</pdfrwt>
<totfact> 0.16338737E+01</totfact>
</mgrwt>
</event>
<event>
 6    1  0.1014650E-006  0.1841301E+04  0.7818608E-02  0.8684639E-01
          1   -1    0    0  501    0  0.00000000000E+00  0.00000000000E+00  0.18490075961E+04  0.18490075961E+04  0.00000000000E+00 0. -1.
         -1   -1    0    0    0  501 -0.00000000000E+00 -0.00000000000E+00 -0.45840673961E+03  0.45840673961E+03  0.00000000000E+00 0.  1.
         23    2    1    2    0    0  0.16152548631E+03 -0.55773983266E+03 -0.19579409482E+03  0.61809105546E+03  0.80851849753E+02 0.  0.
         13    1    3    3    0    0  0.24069143999E+02 -0.18827137417E+03 -0.89231409142E+02  0.20973239712E+03  0.00000000000E+00 0.  1.
        -13    1    3    3    0    0  0.13745634231E+03 -0.36946845849E+03 -0.10656268568E+03  0.40835865834E+03  0.00000000000E+00 0. -1.
         22    1    1    2    0    0 -0.16152548631E+03  0.55773983266E+03  0.15863949514E+04  0.16893232803E+04  0.00000000000E+00 0. -1.
<mgrwt>
<rscale>  0 0.18413012E+04</rscale>
<asrwt>0</asrwt>
<pdfrwt beam="1">  1        1 0.28446270E+00 0.18413012E+04</pdfrwt>
<pdfrwt beam="2">  1       -1 0.70524115E-01 0.18413012E+04</pdfrwt>
<totfact> 0.72082771E+00</totfact>
</mgrwt>
</event>
<event>
 6    1  0.1155036E-006  0.3179029E+04  0.7818608E-02  0.8194378E-01
          1   -1    0    0  501    0  0.00000000000E+00  0.00000000000E+00  0.16444224361E+04  0.16444224361E+04  0.00000000000E+00 0. -1.
         -1   -1    0    0    0  501 -0.00000000000E+00 -0.00000000000E+00 -0.15364398649E+04  0.15364398649E+04  0.00000000000E+00 0.  1.
         23    2    1    2    0    0  0.64476454570E+03 -0.62200790229E+03 -0.12581942764E+04  0.15471382334E+04  0.89267722765E+02 0.  0.
         11    1    3    3    0    0  0.26466579662E+03 -0.29354363461E+03 -0.61418487008E+03  0.73036901903E+03  0.00000000000E+00 0. -1.
        -11    1    3    3    0    0  0.38009874907E+03 -0.32846426769E+03 -0.64400940628E+03  0.81676921439E+03  0.00000000000E+00 0.  1.
         22    1    1    2    0    0 -0.64476454570E+03  0.62200790229E+03  0.13661768476E+04  0.16337240675E+04  0.00000000000E+00 0. -1.
<mgrwt>
<rscale>  0 0.31790289E+04</rscale>
<asrwt>0</asrwt>
<pdfrwt beam="1">  1        1 0.25298807E+00 0.31790289E+04</pdfrwt>
<pdfrwt beam="2">  1       -1 0.23637536E+00 0.31790289E+04</pdfrwt>
<totfact> 0.37346905E-01</totfact>
</mgrwt>
</event>
<event>
 6    1  0.1014650E-006  0.3520760E+04  0.7818608E-02  0.8108888E-01
          1   -1    0    0  501    0  0.00000000000E+00  0.00000000000E+00  0.11445184849E+04  0.11445184849E+04  0.00000000000E+00 0. -1.
         -1   -1    0    0    0  501 -0.00000000000E+00 -0.00000000000E+00 -0.27076346932E+04  0.27076346932E+04  0.00000000000E+00 0.  1.
         23    2    1    2    0    0  0.11478084107E+04 -0.81275771944E+03  0.37392172752E+03  0.14583789150E+04  0.94933362391E+02 0.  0.
         13    1    3    3    0    0  0.20862662732E+03 -0.10523285416E+03  0.55518240108E+02  0.24016931154E+03  0.00000000000E+00 0.  1.
        -13    1    3    3    0    0  0.93918178335E+03 -0.70752486528E+03  0.31840348741E+03  0.12182096035E+04  0.00000000000E+00 0. -1.
         22    1    1    2    0    0 -0.11478084107E+04  0.81275771944E+03 -0.19370379358E+04  0.23937742631E+04  0.00000000000E+00 0.  1.
<mgrwt>
<rscale>  0 0.35207601E+04</rscale>
<asrwt>0</asrwt>
<pdfrwt beam="1">  1        1 0.17607977E+00 0.35207601E+04</pdfrwt>
<pdfrwt beam="2">  1       -1 0.41655918E+00 0.35207601E+04</pdfrwt>
<totfact> 0.52609463E-02</totfact>
</mgrwt>
</event>
<event>
 6    1  0.1014650E-006  0.3415918E+04  0.7818608E-02  0.8134011E-01
          1   -1    0    0  501    0  0.00000000000E+00  0.00000000000E+00  0.14550548789E+04  0.14550548789E+04  0.00000000000E+00 0. -1.
         -1   -1    0    0    0  501 -0.00000000000E+00 -0.00000000000E+00 -0.20048204832E+04  0.20048204832E+04  0.00000000000E+00 0.  1.
         23    2    1    2    0    0  0.10319242815E+04  0.12514140814E+04 -0.81337923268E+03  0.18165868693E+04  0.86586094080E+02 0.  0.
         13    1    3    3    0    0  0.91462727103E+03  0.11187114238E+04 -0.75320169947E+03  0.16295309431E+04  0.00000000000E+00 0.  1.
        -13    1    3    3    0    0  0.11729701047E+03  0.13270265760E+03 -0.60177533215E+02  0.18705592613E+03  0.00000000000E+00 0. -1.
         22    1    1    2    0    0 -0.10319242815E+04 -0.12514140814E+04  0.26361362838E+03  0.16432884929E+04  0.00000000000E+00 0. -1.
<mgrwt>
<rscale>  0 0.34159179E+04</rscale>
<asrwt>0</asrwt>
<pdfrwt beam="1">  1        1 0.22385460E+00 0.34159179E+04</pdfrwt>
<pdfrwt beam="2">  1       -1 0.30843392E+00 0.34159179E+04</pdfrwt>
<totfact> 0.16811553E-01</totfact>
</mgrwt>
</event>
<event>
 6    1  0.1014650E-006  0.3005872E+04  0.7818608E-02  0.8242056E-01
         -2   -1    0    0    0  501 -0.00000000000E+00  0.00000000000E+00  0.81389010719E+03  0.81389010719E+03  0.00000000000E+00 0.  1.
          2   -1    0    0  501    0  0.00000000000E+00 -0.00000000000E+00 -0.27753342680E+04  0.27753342680E+04  0.00000000000E+00 0. -1.
         23    2    1    2    0    0  0.47041367923E+02  0.14929474195E+04 -0.11609968717E+04  0.18945796483E+04  0.10204616649E+03 0.  0.
         13    1    3    3    0    0 -0.63653806961E+01  0.66724541621E+03 -0.57255105944E+03  0.87924494834E+03  0.00000000000E+00 0. -1.
        -13    1    3    3    0    0  0.53406748620E+02  0.82570200327E+03 -0.58844581226E+03  0.10153347000E+04  0.00000000000E+00 0.  1.
         22    1    1    2    0    0 -0.47041367923E+02 -0.14929474195E+04 -0.80044728909E+03  0.16946447269E+04  0.00000000000E+00 0.  1.
<mgrwt>
<rscale>  0 0.30058723E+04</rscale>
<asrwt>0</asrwt>
<pdfrwt beam="1">  1        2 0.42697451E+00 0.30058723E+04</pdfrwt>
<pdfrwt beam="2">  1       -2 0.12521386E+00 0.30058723E+04</pdfrwt>
<totfact> 0.97715939E-01</totfact>
</mgrwt>
</event>
<event>
 6    1  0.1014650E-006  0.6041113E+04  0.7818608E-02  0.7685325E-01
          1   -1    0    0  501    0  0.00000000000E+00  0.00000000000E+00  0.39653794031E+04  0.39653794031E+04  0.00000000000E+00 0. -1.
         -1   -1    0    0    0  501 -0.00000000000E+00 -0.00000000000E+00 -0.23008544878E+04  0.23008544878E+04  0.00000000000E+00 0.  1.
         23    2    1    2    0    0  0.17966493089E+04  0.36272912051E+03  0.33218938136E+04  0.37951222343E+04  0.91940798081E+02 0.  0.
         11    1    3    3    0    0  0.82678913758E+03  0.16414036171E+03  0.16226100529E+04  0.18284927455E+04  0.00000000000E+00 0.  1.
        -11    1    3    3    0    0  0.96986017135E+03  0.19858875880E+03  0.16992837607E+04  0.19666294889E+04  0.00000000000E+00 0. -1.
         22    1    1    2    0    0 -0.17966493089E+04 -0.36272912051E+03 -0.16573688983E+04  0.24711116566E+04  0.00000000000E+00 0.  1.
<mgrwt>
<rscale>  0 0.60411128E+04</rscale>
<asrwt>0</asrwt>
<pdfrwt beam="1">  1        1 0.61005837E+00 0.60411128E+04</pdfrwt>
<pdfrwt beam="2">  1       -1 0.35397761E+00 0.60411128E+04</pdfrwt>
<totfact> 0.99849343E-04</totfact>
</mgrwt>
</event>
<event>
 6    1  0.1014650E-006  0.1063418E+04  0.7818608E-02  0.9241600E-01
         -2   -1    0    0    0  501 -0.00000000000E+00  0.00000000000E+00  0.35643654400E+03  0.35643654400E+03  0.00000000000E+00 0.  1.
          2   -1    0    0  501    0  0.00000000000E+00 -0.00000000000E+00 -0.79316864568E+03  0.79316864568E+03  0.00000000000E+00 0. -1.
         23    2    1    2    0    0  0.36703462007E+03  0.27404793239E+03  0.63443882659E+02  0.47137757532E+03  0.91405747563E+02 0.  0.
         13    1    3    3    0    0  0.31919802404E+02  0.63727787844E+02  0.51695367755E+01  0.71462079731E+02  0.00000000000E+00 0. -1.
        -13    1    3    3    0    0  0.33511481767E+03  0.21032014454E+03  0.58274345883E+02  0.39991549558E+03  0.00000000000E+00 0.  1.
         22    1    1    2    0    0 -0.36703462007E+03 -0.27404793239E+03 -0.50017598434E+03  0.67822761437E+03  0.00000000000E+00 0. -1.
<mgrwt>
<rscale>  0 0.10634177E+04</rscale>
<asrwt>0</asrwt>
<pdfrwt beam="1">  1        2 0.12202595E+00 0.10634177E+04</pdfrwt>
<pdfrwt beam="2">  1       -2 0.54836391E-01 0.10634177E+04</pdfrwt>
<totfact> 0.10846914E+02</totfact>
</mgrwt>
</event>
<event>
 6    1  0.1014650E-006  0.2635473E+04  0.7818608E-02  0.8356251E-01
         -1   -1    0    0    0  501 -0.00000000000E+00  0.00000000000E+00  0.11359413496E+04  0.11359413496E+04  0.00000000000E+00 0.  1.
          1   -1    0    0  501    0  0.00000000000E+00 -0.00000000000E+00 -0.15286258792E+04  0.15286258792E+04  0.00000000000E+00 0. -1.
         23    2    1    2    0    0  0.25958781703E+02  0.11311880487E+04  0.48530708731E+03  0.12323907246E+04  0.54805741352E+02 0.  0.
         11    1    3    3    0    0  0.39792084006E+01  0.95704958236E+03  0.41910232405E+03  0.10447997393E+04  0.00000000000E+00 0. -1.
        -11    1    3    3    0    0  0.21979573303E+02  0.17413846634E+03  0.66204763261E+02  0.18759098534E+03  0.00000000000E+00 0.  1.
         22    1    1    2    0    0 -0.25958781703E+02 -0.11311880487E+04 -0.87799161694E+03  0.14321765042E+04  0.00000000000E+00 0. -1.
<mgrwt>
<rscale>  0 0.26354729E+04</rscale>
<asrwt>0</asrwt>
<pdfrwt beam="1">  1        1 0.23517321E+00 0.26354729E+04</pdfrwt>
<pdfrwt beam="2">  1       -1 0.17476021E+00 0.26354729E+04</pdfrwt>
<totfact> 0.12462530E+00</totfact>
</mgrwt>
</event>
<event>
 6    1  0.1014650E-006  0.2713422E+04  0.7818608E-02  0.8330663E-01
          2   -1    0    0  501    0  0.00000000000E+00  0.00000000000E+00  0.14081417986E+04  0.14081417986E+04  0.00000000000E+00 0. -1.
         -2   -1    0    0    0  501 -0.00000000000E+00 -0.00000000000E+00 -0.13071585629E+04  0.13071585629E+04  0.00000000000E+00 0.  1.
         23    2    1    2    0    0 -0.86606940474E+03 -0.88227170142E+03 -0.50505909707E+03  0.13384318572E+04  0.88518788969E+02 0.  0.
         13    1    3    3    0    0 -0.57334558106E+02 -0.86510217345E+02 -0.58426271100E+02  0.11910037117E+03  0.00000000000E+00 0. -1.
        -13    1    3    3    0    0 -0.80873484664E+03 -0.79576148407E+03 -0.44663282597E+03  0.12193314861E+04  0.00000000000E+00 0.  1.
         22    1    1    2    0    0  0.86606940474E+03  0.88227170142E+03  0.60604233270E+03  0.13768685042E+04  0.00000000000E+00 0. -1.
<mgrwt>
<rscale>  0 0.27134219E+04</rscale>
<asrwt>0</asrwt>
<pdfrwt beam="1">  1        2 0.21663720E+00 0.27134219E+04</pdfrwt>
<pdfrwt beam="2">  1       -2 0.20110132E+00 0.27134219E+04</pdfrwt>
<totfact> 0.16411741E+00</totfact>
</mgrwt>
</event>
<event>
 6    1  0.1014650E-006  0.2306776E+04  0.7818608E-02  0.8475254E-01
          1   -1    0    0  501    0  0.00000000000E+00  0.00000000000E+00  0.13160086423E+04  0.13160086423E+04  0.00000000000E+00 0. -1.
         -1   -1    0    0    0  501 -0.00000000000E+00 -0.00000000000E+00 -0.10108628743E+04  0.10108628743E+04  0.00000000000E+00 0.  1.
         23    2    1    2    0    0  0.58724316797E+03  0.98963660326E+03  0.10649362776E+03  0.11590967877E+04  0.89046761201E+02 0.  0.
         11    1    3    3    0    0  0.43011028787E+03  0.68838389532E+03  0.11123917243E+03  0.81929323234E+03  0.00000000000E+00 0. -1.
        -11    1    3    3    0    0  0.15713288010E+03  0.30125270794E+03 -0.47455446651E+01  0.33980355537E+03  0.00000000000E+00 0.  1.
         22    1    1    2    0    0 -0.58724316797E+03 -0.98963660326E+03  0.19865214023E+03  0.11677747290E+04  0.00000000000E+00 0.  1.
<mgrwt>
<rscale>  0 0.23067763E+04</rscale>
<asrwt>0</asrwt>
<pdfrwt beam="1">  1        1 0.20246287E+00 0.23067763E+04</pdfrwt>
<pdfrwt beam="2">  1       -1 0.15551736E+00 0.23067763E+04</pdfrwt>
<totfact> 0.25169350E+00</totfact>
</mgrwt>
</event>
<event>
 6    1  0.1700770E-006  0.4415464E+04  0.7818608E-02  0.7925606E-01
         -1   -1    0    0    0  501 -0.00000000000E+00  0.00000000000E+00  0.22561182384E+04  0.22561182384E+04  0.00000000000E+00 0.  1.
          1   -1    0    0  501    0  0.00000000000E+00 -0.00000000000E+00 -0.21603832655E+04  0.21603832655E+04  0.00000000000E+00 0. -1.
         23    2    1    2    0    0 -0.13351766263E+03 -0.22016218371E+04 -0.26086460628E+02  0.22074731787E+04  0.85391168673E+02 0.  0.
         13    1    3    3    0    0 -0.10378277668E+03 -0.13147893516E+04  0.18718588557E+02  0.13190118610E+04  0.00000000000E+00 0.  1.
        -13    1    3    3    0    0 -0.29734885947E+02 -0.88683248545E+03 -0.44805049185E+02  0.88846131775E+03  0.00000000000E+00 0. -1.
         22    1    1    2    0    0  0.13351766263E+03  0.22016218371E+04  0.12182143351E+03  0.22090283252E+04  0.00000000000E+00 0.  1.
<mgrwt>
<rscale>  0 0.44154638E+04</rscale>
<asrwt>0</asrwt>
<pdfrwt beam="1">  1        1 0.33236666E+00 0.44154638E+04</pdfrwt>
<pdfrwt beam="2">  1       -1 0.34709511E+00 0.44154638E+04</pdfrwt>
<totfact> 0.28486493E-02</totfact>
</mgrwt>
</event>
<event>
 6    1  0.1014650E-006  0.1249022E+04  0.7818608E-02  0.9070998E-01
          1   -1    0    0  501    0  0.00000000000E+00  0.00000000000E+00  0.34733097894E+03  0.34733097894E+03  0.00000000000E+00 0. -1.
         -1   -1    0    0    0  501 -0.00000000000E+00 -0.00000000000E+00 -0.11228880283E+04  0.11228880283E+04  0.00000000000E+00 0.  1.
         23    2    1    2    0    0  0.22807950964E+03 -0.19473708175E+03 -0.10293674559E+04  0.10773290529E+04  0.10534578811E+03 0.  0.
         13    1    3    3    0    0  0.21214436339E+03 -0.14258724938E+03 -0.74091178424E+03  0.78376439484E+03  0.00000000000E+00 0. -1.
        -13    1    3    3    0    0  0.15935146258E+02 -0.52149832365E+02 -0.28845567170E+03  0.29356465802E+03  0.00000000000E+00 0.  1.
         22    1    1    2    0    0 -0.22807950964E+03  0.19473708175E+03  0.25381040661E+03  0.39288995435E+03  0.00000000000E+00 0. -1.
<mgrwt>
<rscale>  0 0.12490217E+04</rscale>
<asrwt>0</asrwt>
<pdfrwt beam="1">  1        1 0.53435536E-01 0.12490217E+04</pdfrwt>
<pdfrwt beam="2">  1       -1 0.17275200E+00 0.12490217E+04</pdfrwt>
<totfact> 0.16758641E+01</totfact>
</mgrwt>
</event>
<event>
 6    1  0.1014650E-006  0.3165110E+04  0.7818608E-02  0.8198093E-01
         -2   -1    0    0    0  501 -0.00000000000E+00  0.00000000000E+00  0.87938058538E+03  0.87938058538E+03  0.00000000000E+00 0.  1.
          2   -1    0    0  501    0  0.00000000000E+00 -0.00000000000E+00 -0.28480056978E+04  0.28480056978E+04  0.00000000000E+00 0. -1.
         23    2    1    2    0    0  0.10900134764E+04  0.66667244591E+02 -0.23319259282E+04  0.25764903787E+04  0.88601560206E+02 0.  0.
         13    1    3    3    0    0  0.34165771292E+03  0.51473953069E+02 -0.67270820128E+03  0.75625120477E+03  0.00000000000E+00 0. -1.
        -13    1    3    3    0    0  0.74835576347E+03  0.15193291522E+02 -0.16592177269E+04  0.18202391739E+04  0.00000000000E+00 0.  1.
         22    1    1    2    0    0 -0.10900134764E+04 -0.66667244591E+02  0.36330081581E+03  0.11508959045E+04  0.00000000000E+00 0.  1.
<mgrwt>
<rscale>  0 0.31651104E+04</rscale>
<asrwt>0</asrwt>
<pdfrwt beam="1">  1        2 0.43815473E+00 0.31651104E+04</pdfrwt>
<pdfrwt beam="2">  1       -2 0.13528932E+00 0.31651104E+04</pdfrwt>
<totfact> 0.71601461E-01</totfact>
</mgrwt>
</event>
<event>
 6    1  0.1014650E-006  0.2338804E+04  0.7818608E-02  0.8462777E-01
         -2   -1    0    0    0  501 -0.00000000000E+00  0.00000000000E+00  0.60780105050E+03  0.60780105050E+03  0.00000000000E+00 0.  1.
          2   -1    0    0  501    0  0.00000000000E+00 -0.00000000000E+00 -0.22499147898E+04  0.22499147898E+04  0.00000000000E+00 0. -1.
         23    2    1    2    0    0  0.94979514320E+03  0.52252231371E+03 -0.29258944605E+03  0.11267172267E+04  0.93502633929E+02 0.  0.
         13    1    3    3    0    0  0.18550215432E+03  0.64201855721E+02 -0.67142109227E+02  0.20746322654E+03  0.00000000000E+00 0.  1.
        -13    1    3    3    0    0  0.76429298887E+03  0.45832045798E+03 -0.22544733682E+03  0.91925400011E+03  0.00000000000E+00 0. -1.
         22    1    1    2    0    0 -0.94979514320E+03 -0.52252231371E+03 -0.13495242933E+04  0.17309986137E+04  0.00000000000E+00 0. -1.
<mgrwt>
<rscale>  0 0.23388036E+04</rscale>
<asrwt>0</asrwt>
<pdfrwt beam="1">  1        2 0.34614074E+00 0.23388036E+04</pdfrwt>
<pdfrwt beam="2">  1       -2 0.93507852E-01 0.23388036E+04</pdfrwt>
<totfact> 0.42293613E+00</totfact>
</mgrwt>
</event>
<event>
 6    1  0.1014650E-006  0.8337188E+03  0.7818608E-02  0.9512453E-01
         -3   -1    0    0    0  501 -0.00000000000E+00  0.00000000000E+00  0.15830667457E+03  0.15830667457E+03  0.00000000000E+00 0.  1.
          3   -1    0    0  501    0  0.00000000000E+00 -0.00000000000E+00 -0.10976906944E+04  0.10976906944E+04  0.00000000000E+00 0. -1.
         23    2    1    2    0    0  0.14505841741E+03 -0.18483607635E+03  0.35052603835E+02  0.25363363603E+03  0.88853906543E+02 0.  0.
         11    1    3    3    0    0  0.74890452090E+02 -0.14728359771E+03 -0.33582429697E+01  0.16526438141E+03  0.00000000000E+00 0. -1.
        -11    1    3    3    0    0  0.70167965319E+02 -0.37552478645E+02  0.38410846804E+02  0.88369254618E+02  0.00000000000E+00 0.  1.
         22    1    1    2    0    0 -0.14505841741E+03  0.18483607635E+03 -0.97443662370E+03  0.10023637330E+04  0.00000000000E+00 0. -1.
<mgrwt>
<rscale>  0 0.83371881E+03</rscale>
<asrwt>0</asrwt>
<pdfrwt beam="1">  1        3 0.16887549E+00 0.83371881E+03</pdfrwt>
<pdfrwt beam="2">  1       -3 0.24354873E-01 0.83371881E+03</pdfrwt>
<totfact> 0.10005588E+01</totfact>
</mgrwt>
</event>
<event>
 6    1  0.1014650E-006  0.2082257E+04  0.7818608E-02  0.8569100E-01
         -1   -1    0    0    0  501 -0.00000000000E+00  0.00000000000E+00  0.13086479528E+04  0.13086479528E+04  0.00000000000E+00 0.  1.
          1   -1    0    0  501    0  0.00000000000E+00 -0.00000000000E+00 -0.82829651448E+03  0.82829651448E+03  0.00000000000E+00 0. -1.
         23    2    1    2    0    0 -0.51500530569E+03 -0.28484975836E+03 -0.63851671923E+03  0.87273095536E+03  0.87096899924E+02 0.  0.
         13    1    3    3    0    0 -0.18353434584E+03 -0.13883015401E+03 -0.28847269846E+03  0.36901919397E+03  0.00000000000E+00 0.  1.
        -13    1    3    3    0    0 -0.33147095985E+03 -0.14601960436E+03 -0.35004402077E+03  0.50371176139E+03  0.00000000000E+00 0. -1.
         22    1    1    2    0    0  0.51500530569E+03  0.28484975836E+03  0.11188681575E+04  0.12642135119E+04  0.00000000000E+00 0.  1.
<mgrwt>
<rscale>  0 0.20822570E+04</rscale>
<asrwt>0</asrwt>
<pdfrwt beam="1">  1        1 0.12743023E+00 0.20822570E+04</pdfrwt>
<pdfrwt beam="2">  1       -1 0.20133045E+00 0.20822570E+04</pdfrwt>
<totfact> 0.28362009E+00</totfact>
</mgrwt>
</event>
<event>
 6    1  0.1014650E-006  0.1606659E+04  0.7818608E-02  0.8816468E-01
          2   -1    0    0  501    0  0.00000000000E+00  0.00000000000E+00  0.27981234301E+04  0.27981234301E+04  0.00000000000E+00 0. -1.
         -2   -1    0    0    0  501 -0.00000000000E+00 -0.00000000000E+00 -0.23063251022E+03  0.23063251022E+03  0.00000000000E+00 0.  1.
         23    2    1    2    0    0  0.25826717393E+03 -0.33174297622E+03  0.25726382781E+04  0.26083016257E+04  0.89522763990E+02 0.  0.
         11    1    3    3    0    0  0.15381017385E+03 -0.21703320508E+03  0.13592156035E+04  0.13850010969E+04  0.00000000000E+00 0.  1.
        -11    1    3    3    0    0  0.10445700008E+03 -0.11470977114E+03  0.12134226746E+04  0.12233005288E+04  0.00000000000E+00 0. -1.
         22    1    1    2    0    0 -0.25826717393E+03  0.33174297622E+03 -0.51473582077E+01  0.42045431464E+03  0.00000000000E+00 0.  1.
<mgrwt>
<rscale>  0 0.16066589E+04</rscale>
<asrwt>0</asrwt>
<pdfrwt beam="1">  1        2 0.43048050E+00 0.16066589E+04</pdfrwt>
<pdfrwt beam="2">  1       -2 0.35481927E-01 0.16066589E+04</pdfrwt>
<totfact> 0.16651279E+01</totfact>
</mgrwt>
</event>
<event>
 6    1  0.1014650E-006  0.2907429E+04  0.7818608E-02  0.8270671E-01
         -2   -1    0    0    0  501 -0.00000000000E+00  0.00000000000E+00  0.28120736702E+04  0.28120736702E+04  0.00000000000E+00 0.  1.
          2   -1    0    0  501    0  0.00000000000E+00 -0.00000000000E+00 -0.75150428126E+03  0.75150428126E+03  0.00000000000E+00 0. -1.
         23    2    1    2    0    0  0.26404135340E+03 -0.78658698767E+03 -0.42949158134E+03  0.93891786657E+03  0.93095736919E+02 0.  0.
         11    1    3    3    0    0  0.16395294419E+03 -0.34842013878E+03 -0.18358469983E+03  0.42659172874E+03  0.00000000000E+00 0. -1.
        -11    1    3    3    0    0  0.10008840921E+03 -0.43816684889E+03 -0.24590688151E+03  0.51232613783E+03  0.00000000000E+00 0.  1.
         22    1    1    2    0    0 -0.26404135340E+03  0.78658698767E+03  0.24900609703E+04  0.26246600849E+04  0.00000000000E+00 0.  1.
<mgrwt>
<rscale>  0 0.29074287E+04</rscale>
<asrwt>0</asrwt>
<pdfrwt beam="1">  1        2 0.11561604E+00 0.29074287E+04</pdfrwt>
<pdfrwt beam="2">  1       -2 0.43262671E+00 0.29074287E+04</pdfrwt>
<totfact> 0.14577643E-01</totfact>
</mgrwt>
</event>
<event>
 6    1  0.1014650E-006  0.6730891E+04  0.7818608E-02  0.7605844E-01
         -1   -1    0    0    0  501 -0.00000000000E+00  0.00000000000E+00  0.43449887988E+04  0.43449887988E+04  0.00000000000E+00 0.  1.
          1   -1    0    0  501    0  0.00000000000E+00 -0.00000000000E+00 -0.26067326689E+04  0.26067326689E+04  0.00000000000E+00 0. -1.
         23    2    1    2    0    0  0.84753171495E+02 -0.74079833674E+03 -0.25195191368E+04  0.26291509943E+04  0.92157444546E+02 0.  0.
         11    1    3    3    0    0  0.55390472747E+02 -0.52267237024E+03 -0.16216790278E+04  0.17047279490E+04  0.00000000000E+00 0. -1.
        -11    1    3    3    0    0  0.29362698748E+02 -0.21812596650E+03 -0.89784010899E+03  0.92442304528E+03  0.00000000000E+00 0.  1.
         22    1    1    2    0    0 -0.84753171495E+02  0.74079833674E+03  0.42577752667E+04  0.43225704734E+04  0.00000000000E+00 0.  1.
<mgrwt>
<rscale>  0 0.67308912E+04</rscale>
<asrwt>0</asrwt>
<pdfrwt beam="1">  1        1 0.40103580E+00 0.67308912E+04</pdfrwt>
<pdfrwt beam="2">  1       -1 0.66845981E+00 0.67308912E+04</pdfrwt>
<totfact> 0.18899698E-04</totfact>
</mgrwt>
</event>
<event>
 6    1  0.1014650E-006  0.1733977E+04  0.7818608E-02  0.8742220E-01
          4   -1    0    0  501    0  0.00000000000E+00  0.00000000000E+00  0.88379492762E+03  0.88379492762E+03  0.00000000000E+00 0. -1.
         -4   -1    0    0    0  501 -0.00000000000E+00 -0.00000000000E+00 -0.85050185689E+03  0.85050185689E+03  0.00000000000E+00 0.  1.
         23    2    1    2    0    0 -0.76847610665E+03 -0.23511242083E+02  0.41210545510E+03  0.87720453303E+03  0.92458540163E+02 0.  0.
         13    1    3    3    0    0 -0.11058151665E+03 -0.15143000596E+02  0.96187746405E+02  0.14734199961E+03  0.00000000000E+00 0. -1.
        -13    1    3    3    0    0 -0.65789459000E+03 -0.83682414878E+01  0.31591770869E+03  0.72986253342E+03  0.00000000000E+00 0.  1.
         22    1    1    2    0    0  0.76847610665E+03  0.23511242083E+02 -0.37881238437E+03  0.85709225148E+03  0.00000000000E+00 0.  1.
<mgrwt>
<rscale>  0 0.17339772E+04</rscale>
<asrwt>0</asrwt>
<pdfrwt beam="1">  1        4 0.13596845E+00 0.17339772E+04</pdfrwt>
<pdfrwt beam="2">  1       -4 0.13084644E+00 0.17339772E+04</pdfrwt>
<totfact> 0.31153006E-01</totfact>
</mgrwt>
</event>
<event>
 6    1  0.1014650E-006  0.9983906E+03  0.7818608E-02  0.9310312E-01
          2   -1    0    0  501    0  0.00000000000E+00  0.00000000000E+00  0.24288120514E+04  0.24288120514E+04  0.00000000000E+00 0. -1.
         -2   -1    0    0    0  501 -0.00000000000E+00 -0.00000000000E+00 -0.10259992096E+03  0.10259992096E+03  0.00000000000E+00 0.  1.
         23    2    1    2    0    0 -0.40292641302E+03  0.22583740986E+03  0.71819833258E+03  0.85837264104E+03  0.87421484637E+02 0.  0.
         13    1    3    3    0    0 -0.34847640861E+03  0.15689012886E+03  0.59006340090E+03  0.70301147713E+03  0.00000000000E+00 0. -1.
        -13    1    3    3    0    0 -0.54450004409E+02  0.68947281002E+02  0.12813493168E+03  0.15536116392E+03  0.00000000000E+00 0.  1.
         22    1    1    2    0    0  0.40292641302E+03 -0.22583740986E+03  0.16080137979E+04  0.16730393313E+04  0.00000000000E+00 0. -1.
<mgrwt>
<rscale>  0 0.99839055E+03</rscale>
<asrwt>0</asrwt>
<pdfrwt beam="1">  1        2 0.37366335E+00 0.99839055E+03</pdfrwt>
<pdfrwt beam="2">  1       -2 0.15784605E-01 0.99839055E+03</pdfrwt>
<totfact> 0.12439275E+02</totfact>
</mgrwt>
</event>
<event>
 6    1  0.1014650E-006  0.4707503E+04  0.7818608E-02  0.7875283E-01
         -2   -1    0    0    0  501 -0.00000000000E+00  0.00000000000E+00  0.15345310510E+04  0.15345310510E+04  0.00000000000E+00 0.  1.
          2   -1    0    0  501    0  0.00000000000E+00 -0.00000000000E+00 -0.36103188494E+04  0.36103188494E+04  0.00000000000E+00 0. -1.
         23    2    1    2    0    0  0.13518611332E+04 -0.10237879928E+04 -0.28208408444E+04  0.32926149210E+04  0.92193117524E+02 0.  0.
         13    1    3    3    0    0  0.74751574458E+03 -0.54265412438E+03 -0.16171708665E+04  0.18623895668E+04  0.00000000000E+00 0.  1.
        -13    1    3    3    0    0  0.60434538860E+03 -0.48113386842E+03 -0.12036699780E+04  0.14302253542E+04  0.00000000000E+00 0. -1.
         22    1    1    2    0    0 -0.13518611332E+04  0.10237879928E+04  0.74505304603E+03  0.18522349794E+04  0.00000000000E+00 0.  1.
<mgrwt>
<rscale>  0 0.47075031E+04</rscale>
<asrwt>0</asrwt>
<pdfrwt beam="1">  1        2 0.55543367E+00 0.47075031E+04</pdfrwt>
<pdfrwt beam="2">  1       -2 0.23608170E+00 0.47075031E+04</pdfrwt>
<totfact> 0.39523403E-02</totfact>
</mgrwt>
</event>
<event>
 6    1  0.1014650E-006  0.7444890E+04  0.7818608E-02  0.7533216E-01
         -2   -1    0    0    0  501 -0.00000000000E+00  0.00000000000E+00  0.30740493346E+04  0.30740493346E+04  0.00000000000E+00 0.  1.
          2   -1    0    0  501    0  0.00000000000E+00 -0.00000000000E+00 -0.45076044598E+04  0.45076044598E+04  0.00000000000E+00 0. -1.
         23    2    1    2    0    0  0.47900979108E+03  0.32903019267E+03 -0.44606909107E+04  0.44992420257E+04  0.87773326949E+02 0.  0.
         11    1    3    3    0    0  0.12102949371E+03  0.45428917954E+02 -0.11351358211E+04  0.11424733071E+04  0.00000000000E+00 0. -1.
        -11    1    3    3    0    0  0.35798029737E+03  0.28360127471E+03 -0.33255550896E+04  0.33567687186E+04  0.00000000000E+00 0.  1.
         22    1    1    2    0    0 -0.47900979108E+03 -0.32903019267E+03  0.30271357855E+04  0.30824117687E+04  0.00000000000E+00 0.  1.
<mgrwt>
<rscale>  0 0.74448905E+04</rscale>
<asrwt>0</asrwt>
<pdfrwt beam="1">  1        2 0.69347761E+00 0.74448905E+04</pdfrwt>
<pdfrwt beam="2">  1       -2 0.47293067E+00 0.74448905E+04</pdfrwt>
<totfact> 0.17850810E-04</totfact>
</mgrwt>
</event>
<event>
 6    1  0.1014650E-006  0.1879825E+04  0.7818608E-02  0.8664964E-01
         -2   -1    0    0    0  501 -0.00000000000E+00  0.00000000000E+00  0.60633433543E+03  0.60633433543E+03  0.00000000000E+00 0.  1.
          2   -1    0    0  501    0  0.00000000000E+00 -0.00000000000E+00 -0.14570109033E+04  0.14570109033E+04  0.00000000000E+00 0. -1.
         23    2    1    2    0    0 -0.17860705088E+03 -0.49982948633E+03  0.42269021805E+03  0.68378263938E+03  0.84626730169E+02 0.  0.
         13    1    3    3    0    0 -0.16530917392E+03 -0.39129307377E+03  0.36550184550E+03  0.56038289733E+03  0.00000000000E+00 0. -1.
        -13    1    3    3    0    0 -0.13297876963E+02 -0.10853641256E+03  0.57188372550E+02  0.12339974205E+03  0.00000000000E+00 0.  1.
         22    1    1    2    0    0  0.17860705088E+03  0.49982948633E+03 -0.12733667859E+04  0.13795625993E+04  0.00000000000E+00 0. -1.
<mgrwt>
<rscale>  0 0.18798252E+04</rscale>
<asrwt>0</asrwt>
<pdfrwt beam="1">  1        2 0.22415552E+00 0.18798252E+04</pdfrwt>
<pdfrwt beam="2">  1       -2 0.93282205E-01 0.18798252E+04</pdfrwt>
<totfact> 0.12250333E+01</totfact>
</mgrwt>
</event>
<event>
 6    1  0.1014650E-006  0.1344402E+04  0.7818608E-02  0.8995076E-01
         -2   -1    0    0    0  501 -0.00000000000E+00  0.00000000000E+00  0.20265707682E+03  0.20265707682E+03  0.00000000000E+00 0.  1.
          2   -1    0    0  501    0  0.00000000000E+00 -0.00000000000E+00 -0.22296506195E+04  0.22296506195E+04  0.00000000000E+00 0. -1.
         23    2    1    2    0    0  0.28710848685E+03  0.73265897883E+02 -0.21034537486E+04  0.21262924384E+04  0.93822630213E+02 0.  0.
         13    1    3    3    0    0  0.76940267776E+02  0.16635621942E+02 -0.88974549539E+03  0.89322091068E+03  0.00000000000E+00 0. -1.
        -13    1    3    3    0    0  0.21016821907E+03  0.56630275942E+02 -0.12137082532E+04  0.12330715277E+04  0.00000000000E+00 0.  1.
         22    1    1    2    0    0 -0.28710848685E+03 -0.73265897883E+02  0.76460205909E+02  0.30601525796E+03  0.00000000000E+00 0.  1.
<mgrwt>
<rscale>  0 0.13444024E+04</rscale>
<asrwt>0</asrwt>
<pdfrwt beam="1">  1        2 0.34302318E+00 0.13444024E+04</pdfrwt>
<pdfrwt beam="2">  1       -2 0.31178011E-01 0.13444024E+04</pdfrwt>
<totfact> 0.46417061E+01</totfact>
</mgrwt>
</event>
<event>
 6    1  0.1014650E-006  0.1535711E+04  0.7818608E-02  0.8861047E-01
         -1   -1    0    0    0  501 -0.00000000000E+00  0.00000000000E+00  0.14787904757E+04  0.14787904757E+04  0.00000000000E+00 0.  1.
          1   -1    0    0  501    0  0.00000000000E+00 -0.00000000000E+00 -0.39870573355E+03  0.39870573355E+03  0.00000000000E+00 0. -1.
         23    2    1    2    0    0  0.22172207174E+03 -0.69149854981E+03  0.25112009344E+03  0.77544661404E+03  0.10452381742E+03 0.  0.
         11    1    3    3    0    0  0.79251156638E+02 -0.40642866494E+03  0.16076328210E+03  0.44419572081E+03  0.00000000000E+00 0.  1.
        -11    1    3    3    0    0  0.14247091510E+03 -0.28506988487E+03  0.90356811343E+02  0.33125089323E+03  0.00000000000E+00 0. -1.
         22    1    1    2    0    0 -0.22172207174E+03  0.69149854981E+03  0.82896464869E+03  0.11020495952E+04  0.00000000000E+00 0.  1.
<mgrwt>
<rscale>  0 0.15357112E+04</rscale>
<asrwt>0</asrwt>
<pdfrwt beam="1">  1        1 0.61339344E-01 0.15357112E+04</pdfrwt>
<pdfrwt beam="2">  1       -1 0.22750622E+00 0.15357112E+04</pdfrwt>
<totfact> 0.56998415E+00</totfact>
</mgrwt>
</event>
<event>
 6    1  0.1014650E-006  0.2103368E+04  0.7818608E-02  0.8559761E-01
         -1   -1    0    0    0  501 -0.00000000000E+00  0.00000000000E+00  0.13580592724E+04  0.13580592724E+04  0.00000000000E+00 0.  1.
          1   -1    0    0  501    0  0.00000000000E+00 -0.00000000000E+00 -0.81442628980E+03  0.81442628980E+03  0.00000000000E+00 0. -1.
         23    2    1    2    0    0  0.98337756496E+03  0.43105355893E+02 -0.10438508700E+03  0.99400479212E+03  0.90883295449E+02 0.  0.
         11    1    3    3    0    0  0.54895944360E+03  0.65066538709E+02 -0.39400728175E+02  0.55420442308E+03  0.00000000000E+00 0.  1.
        -11    1    3    3    0    0  0.43441812136E+03 -0.21961182816E+02 -0.64984358825E+02  0.43980036904E+03  0.00000000000E+00 0. -1.
         22    1    1    2    0    0 -0.98337756496E+03 -0.43105355893E+02  0.64801806965E+03  0.11784807701E+04  0.00000000000E+00 0.  1.
<mgrwt>
<rscale>  0 0.21033679E+04</rscale>
<asrwt>0</asrwt>
<pdfrwt beam="1">  1        1 0.12529635E+00 0.21033679E+04</pdfrwt>
<pdfrwt beam="2">  1       -1 0.20893220E+00 0.21033679E+04</pdfrwt>
<totfact> 0.25814548E+00</totfact>
</mgrwt>
</event>
<event>
 6    1  0.1014650E-006  0.1824711E+04  0.7818608E-02  0.8693268E-01
          2   -1    0    0  501    0  0.00000000000E+00  0.00000000000E+00  0.11482037559E+04  0.11482037559E+04  0.00000000000E+00 0. -1.
         -2   -1    0    0    0  501 -0.00000000000E+00 -0.00000000000E+00 -0.72495211999E+03  0.72495211999E+03  0.00000000000E+00 0.  1.
         23    2    1    2    0    0  0.22032677764E+03 -0.44848549784E+03  0.99322446421E+03  0.11151636888E+04  0.86093471470E+02 0.  0.
         13    1    3    3    0    0  0.12425828135E+03 -0.27969743636E+03  0.51607707465E+03  0.60000526945E+03  0.00000000000E+00 0. -1.
        -13    1    3    3    0    0  0.96068496289E+02 -0.16878806148E+03  0.47714738956E+03  0.51515841937E+03  0.00000000000E+00 0.  1.
         22    1    1    2    0    0 -0.22032677764E+03  0.44848549784E+03 -0.56997282828E+03  0.75799218709E+03  0.00000000000E+00 0.  1.
<mgrwt>
<rscale>  0 0.18247112E+04</rscale>
<asrwt>0</asrwt>
<pdfrwt beam="1">  1        2 0.17664673E+00 0.18247112E+04</pdfrwt>
<pdfrwt beam="2">  1       -2 0.11153110E+00 0.18247112E+04</pdfrwt>
<totfact> 0.12186148E+01</totfact>
</mgrwt>
</event>
<event>
 6    1  0.1014650E-006  0.3888700E+04  0.7818608E-02  0.8027383E-01
         -2   -1    0    0    0  501 -0.00000000000E+00  0.00000000000E+00  0.28180883388E+04  0.28180883388E+04  0.00000000000E+00 0.  1.
          2   -1    0    0  501    0  0.00000000000E+00 -0.00000000000E+00 -0.13415112155E+04  0.13415112155E+04  0.00000000000E+00 0. -1.
         23    2    1    2    0    0  0.23185872766E+03 -0.27709321909E+03  0.27811251099E+04  0.28059435525E+04  0.90128913666E+02 0.  0.
         13    1    3    3    0    0  0.10402050821E+03 -0.13112991724E+03  0.95686838142E+03  0.97139714879E+03  0.00000000000E+00 0. -1.
        -13    1    3    3    0    0  0.12783821945E+03 -0.14596330186E+03  0.18242567285E+04  0.18345464037E+04  0.00000000000E+00 0.  1.
         22    1    1    2    0    0 -0.23185872766E+03  0.27709321909E+03 -0.13045479867E+04  0.13536560018E+04  0.00000000000E+00 0. -1.
<mgrwt>
<rscale>  0 0.38887001E+04</rscale>
<asrwt>0</asrwt>
<pdfrwt beam="1">  1        2 0.20638634E+00 0.38887001E+04</pdfrwt>
<pdfrwt beam="2">  1       -2 0.43355205E+00 0.38887001E+04</pdfrwt>
<totfact> 0.55492508E-02</totfact>
</mgrwt>
</event>
<event>
 6    1  0.1014650E-006  0.2357387E+04  0.7818608E-02  0.8455632E-01
         -1   -1    0    0    0  501 -0.00000000000E+00  0.00000000000E+00  0.13089616061E+04  0.13089616061E+04  0.00000000000E+00 0.  1.
          1   -1    0    0  501    0  0.00000000000E+00 -0.00000000000E+00 -0.10613898170E+04  0.10613898170E+04  0.00000000000E+00 0. -1.
         23    2    1    2    0    0 -0.71185080353E+03 -0.57927516926E+03 -0.61597346392E+03  0.11101920314E+04  0.10397956625E+03 0.  0.
         13    1    3    3    0    0 -0.40143800159E+03 -0.39187474112E+03 -0.37939298130E+03  0.67724243525E+03  0.00000000000E+00 0.  1.
        -13    1    3    3    0    0 -0.31041280194E+03 -0.18740042814E+03 -0.23658048262E+03  0.43294959618E+03  0.00000000000E+00 0. -1.
         22    1    1    2    0    0  0.71185080353E+03  0.57927516926E+03  0.86354525304E+03  0.12601593916E+04  0.00000000000E+00 0.  1.
<mgrwt>
<rscale>  0 0.23573871E+04</rscale>
<asrwt>0</asrwt>
<pdfrwt beam="1">  1        1 0.16329074E+00 0.23573871E+04</pdfrwt>
<pdfrwt beam="2">  1       -1 0.20137871E+00 0.23573871E+04</pdfrwt>
<totfact> 0.17963396E+00</totfact>
</mgrwt>
</event>
<event>
 6    1  0.1014650E-006  0.1032514E+04  0.7818608E-02  0.9273586E-01
          2   -1    0    0  501    0  0.00000000000E+00  0.00000000000E+00  0.47691189902E+03  0.47691189902E+03  0.00000000000E+00 0. -1.
         -2   -1    0    0    0  501 -0.00000000000E+00 -0.00000000000E+00 -0.55884758537E+03  0.55884758537E+03  0.00000000000E+00 0.  1.
         23    2    1    2    0    0 -0.10099778649E+03 -0.36898983637E+03 -0.38277290128E+03  0.54907983399E+03  0.92841358920E+02 0.  0.
         13    1    3    3    0    0 -0.61855347387E+02 -0.31131049527E+03 -0.34860072497E+03  0.47144753039E+03  0.00000000000E+00 0. -1.
        -13    1    3    3    0    0 -0.39142439100E+02 -0.57679341108E+02 -0.34172176309E+02  0.77632303605E+02  0.00000000000E+00 0.  1.
         22    1    1    2    0    0  0.10099778649E+03  0.36898983637E+03  0.30083721493E+03  0.48667965039E+03  0.00000000000E+00 0. -1.
<mgrwt>
<rscale>  0 0.10325136E+04</rscale>
<asrwt>0</asrwt>
<pdfrwt beam="1">  1        2 0.73371062E-01 0.10325136E+04</pdfrwt>
<pdfrwt beam="2">  1       -2 0.85976551E-01 0.10325136E+04</pdfrwt>
<totfact> 0.76157002E+01</totfact>
</mgrwt>
</event>
<event>
 6    1  0.1042701E-006  0.1992236E+04  0.7818608E-02  0.8610259E-01
          3   -1    0    0  501    0  0.00000000000E+00  0.00000000000E+00  0.81422544966E+03  0.81422544966E+03  0.00000000000E+00 0. -1.
         -3   -1    0    0    0  501 -0.00000000000E+00 -0.00000000000E+00 -0.12186440107E+04  0.12186440107E+04  0.00000000000E+00 0.  1.
         23    2    1    2    0    0  0.35685997405E+02  0.37267260916E+03  0.73707244097E+03  0.83155348540E+03  0.89705361144E+02 0.  0.
         13    1    3    3    0    0 -0.20938991189E+02  0.20704788157E+03  0.35965850245E+03  0.41552557682E+03  0.00000000000E+00 0.  1.
        -13    1    3    3    0    0  0.56624988594E+02  0.16562472760E+03  0.37741393852E+03  0.41602790858E+03  0.00000000000E+00 0. -1.
         22    1    1    2    0    0 -0.35685997405E+02 -0.37267260916E+03 -0.11414910020E+04  0.12013159750E+04  0.00000000000E+00 0.  1.
<mgrwt>
<rscale>  0 0.19922359E+04</rscale>
<asrwt>0</asrwt>
<pdfrwt beam="1">  1        3 0.12526545E+00 0.19922359E+04</pdfrwt>
<pdfrwt beam="2">  1       -3 0.18748369E+00 0.19922359E+04</pdfrwt>
<totfact> 0.21835213E-01</totfact>
</mgrwt>
</event>
<event>
 6    1  0.1014650E-006  0.3421735E+04  0.7818608E-02  0.8132592E-01
         -1   -1    0    0    0  501 -0.00000000000E+00  0.00000000000E+00  0.93885579590E+03  0.93885579590E+03  0.00000000000E+00 0.  1.
          1   -1    0    0  501    0  0.00000000000E+00 -0.00000000000E+00 -0.31176968651E+04  0.31176968651E+04  0.00000000000E+00 0. -1.
         23    2    1    2    0    0 -0.16551580686E+04 -0.41640752492E+03 -0.99082996103E+03  0.19770541993E+04  0.11855731304E+03 0.  0.
         11    1    3    3    0    0 -0.90152576563E+03 -0.27652366143E+03 -0.58569743177E+03  0.11100700532E+04  0.00000000000E+00 0. -1.
        -11    1    3    3    0    0 -0.75363230301E+03 -0.13988386349E+03 -0.40513252926E+03  0.86698414615E+03  0.00000000000E+00 0.  1.
         22    1    1    2    0    0  0.16551580686E+04  0.41640752492E+03 -0.11880111082E+04  0.20794984617E+04  0.00000000000E+00 0.  1.
<mgrwt>
<rscale>  0 0.34217351E+04</rscale>
<asrwt>0</asrwt>
<pdfrwt beam="1">  1        1 0.47964568E+00 0.34217351E+04</pdfrwt>
<pdfrwt beam="2">  1       -1 0.14443935E+00 0.34217351E+04</pdfrwt>
<totfact> 0.15507782E-01</totfact>
</mgrwt>
</event>
<event>
 6    1  0.1014650E-006  0.3137584E+04  0.7818608E-02  0.8205498E-01
         -1   -1    0    0    0  501 -0.00000000000E+00  0.00000000000E+00  0.21714434756E+04  0.21714434756E+04  0.00000000000E+00 0.  1.
          1   -1    0    0  501    0  0.00000000000E+00 -0.00000000000E+00 -0.11333971831E+04  0.11333971831E+04  0.00000000000E+00 0. -1.
         23    2    1    2    0    0  0.82526093484E+03 -0.87599986695E+03 -0.53833196995E+03  0.13215605968E+04  0.91047919842E+02 0.  0.
         11    1    3    3    0    0  0.47638545007E+03 -0.44305192832E+03 -0.27416387900E+03  0.70597729480E+03  0.00000000000E+00 0. -1.
        -11    1    3    3    0    0  0.34887548476E+03 -0.43294793863E+03 -0.26416809096E+03  0.61558330201E+03  0.00000000000E+00 0.  1.
         22    1    1    2    0    0 -0.82526093484E+03  0.87599986695E+03  0.15763782625E+04  0.19832800619E+04  0.00000000000E+00 0.  1.
<mgrwt>
<rscale>  0 0.31375837E+04</rscale>
<asrwt>0</asrwt>
<pdfrwt beam="1">  1        1 0.17436880E+00 0.31375837E+04</pdfrwt>
<pdfrwt beam="2">  1       -1 0.33406822E+00 0.31375837E+04</pdfrwt>
<totfact> 0.19922039E-01</totfact>
</mgrwt>
</event>
<event>
 6    1  0.1014650E-006  0.2497093E+04  0.7818608E-02  0.8404022E-01
         -1   -1    0    0    0  501 -0.00000000000E+00  0.00000000000E+00  0.85445178525E+03  0.85445178525E+03  0.00000000000E+00 0.  1.
          1   -1    0    0  501    0  0.00000000000E+00 -0.00000000000E+00 -0.18244069115E+04  0.18244069115E+04  0.00000000000E+00 0. -1.
         23    2    1    2    0    0 -0.39172136993E+03 -0.98881139094E+03  0.21254569348E+03  0.10884179443E+04  0.91018410715E+02 0.  0.
         11    1    3    3    0    0 -0.28357765566E+03 -0.64653261459E+03  0.10541558605E+03  0.71381591065E+03  0.00000000000E+00 0.  1.
        -11    1    3    3    0    0 -0.10814371427E+03 -0.34227877635E+03  0.10713010743E+03  0.37460203362E+03  0.00000000000E+00 0. -1.
         22    1    1    2    0    0  0.39172136993E+03  0.98881139094E+03 -0.11825008198E+04  0.15904407525E+04  0.00000000000E+00 0. -1.
<mgrwt>
<rscale>  0 0.24970925E+04</rscale>
<asrwt>0</asrwt>
<pdfrwt beam="1">  1        1 0.28067798E+00 0.24970925E+04</pdfrwt>
<pdfrwt beam="2">  1       -1 0.13145412E+00 0.24970925E+04</pdfrwt>
<totfact> 0.17178998E+00</totfact>
</mgrwt>
</event>
<event>
 6    1  0.1014650E-006  0.3364647E+04  0.7818608E-02  0.8146638E-01
          1   -1    0    0  501    0  0.00000000000E+00  0.00000000000E+00  0.32595950109E+04  0.32595950109E+04  0.00000000000E+00 0. -1.
         -1   -1    0    0    0  501 -0.00000000000E+00 -0.00000000000E+00 -0.86827122760E+03  0.86827122760E+03  0.00000000000E+00 0.  1.
         23    2    1    2    0    0 -0.64265991893E+03  0.12155526111E+04  0.23831826370E+04  0.27528585294E+04  0.89948206647E+02 0.  0.
         11    1    3    3    0    0 -0.78500865908E+02  0.13096680494E+03  0.32241904052E+03  0.35674742835E+03  0.00000000000E+00 0. -1.
        -11    1    3    3    0    0 -0.56415905302E+03  0.10845858062E+04  0.20607635965E+04  0.23961111011E+04  0.00000000000E+00 0.  1.
         22    1    1    2    0    0  0.64265991893E+03 -0.12155526111E+04  0.81411462560E+01  0.13750077091E+04  0.00000000000E+00 0.  1.
<mgrwt>
<rscale>  0 0.33646471E+04</rscale>
<asrwt>0</asrwt>
<pdfrwt beam="1">  1        1 0.50147615E+00 0.33646471E+04</pdfrwt>
<pdfrwt beam="2">  1       -1 0.13358019E+00 0.33646471E+04</pdfrwt>
<totfact> 0.14951597E-01</totfact>
</mgrwt>
</event>
<event>
 6    1  0.1014650E-006  0.2765882E+04  0.7818608E-02  0.8313940E-01
         -2   -1    0    0    0  501 -0.00000000000E+00  0.00000000000E+00  0.90191310904E+03  0.90191310904E+03  0.00000000000E+00 0.  1.
          2   -1    0    0  501    0  0.00000000000E+00 -0.00000000000E+00 -0.21205206458E+04  0.21205206458E+04  0.00000000000E+00 0. -1.
         23    2    1    2    0    0 -0.50641757023E+03 -0.78710985601E+03 -0.17203207249E+04  0.19604936417E+04  0.89617195529E+02 0.  0.
         13    1    3    3    0    0 -0.48851668732E+03 -0.73714730059E+03 -0.15828239703E+04  0.18131095988E+04  0.00000000000E+00 0.  1.
        -13    1    3    3    0    0 -0.17900882915E+02 -0.49962555420E+02 -0.13749675464E+03  0.14738404286E+03  0.00000000000E+00 0. -1.
         22    1    1    2    0    0  0.50641757023E+03  0.78710985601E+03  0.50171318810E+03  0.10619401132E+04  0.00000000000E+00 0.  1.
<mgrwt>
<rscale>  0 0.27658817E+04</rscale>
<asrwt>0</asrwt>
<pdfrwt beam="1">  1        2 0.32623394E+00 0.27658817E+04</pdfrwt>
<pdfrwt beam="2">  1       -2 0.13875586E+00 0.27658817E+04</pdfrwt>
<totfact> 0.18355077E+00</totfact>
</mgrwt>
</event>
<event>
 6    1  0.1014650E-006  0.6336086E+04  0.7818608E-02  0.7650073E-01
         -2   -1    0    0    0  501 -0.00000000000E+00  0.00000000000E+00  0.30266802840E+04  0.30266802840E+04  0.00000000000E+00 0.  1.
          2   -1    0    0  501    0  0.00000000000E+00 -0.00000000000E+00 -0.33160084843E+04  0.33160084843E+04  0.00000000000E+00 0. -1.
         23    2    1    2    0    0 -0.40578719223E+02  0.31648791285E+04 -0.22573788458E+02  0.31663285169E+04  0.83786457990E+02 0.  0.
         11    1    3    3    0    0 -0.13909208078E+02  0.10082947702E+04 -0.46224123515E+02  0.10094495923E+04  0.00000000000E+00 0. -1.
        -11    1    3    3    0    0 -0.26669511145E+02  0.21565843582E+04  0.23650335057E+02  0.21568789246E+04  0.00000000000E+00 0.  1.
         22    1    1    2    0    0  0.40578719223E+02 -0.31648791285E+04 -0.26675441183E+03  0.31763602514E+04  0.00000000000E+00 0.  1.
<mgrwt>
<rscale>  0 0.63360863E+04</rscale>
<asrwt>0</asrwt>
<pdfrwt beam="1">  1        2 0.51015515E+00 0.63360863E+04</pdfrwt>
<pdfrwt beam="2">  1       -2 0.46564312E+00 0.63360863E+04</pdfrwt>
<totfact> 0.19632382E-03</totfact>
</mgrwt>
</event>
<event>
 6    1  0.1014650E-006  0.1053951E+04  0.7818608E-02  0.9251274E-01
         -1   -1    0    0    0  501 -0.00000000000E+00  0.00000000000E+00  0.17579780820E+03  0.17579780820E+03  0.00000000000E+00 0.  1.
          1   -1    0    0  501    0  0.00000000000E+00 -0.00000000000E+00 -0.15796741172E+04  0.15796741172E+04  0.00000000000E+00 0. -1.
         23    2    1    2    0    0  0.98471970285E+02 -0.39100529663E+03 -0.12615965172E+04  0.13278910440E+04  0.95325661313E+02 0.  0.
         11    1    3    3    0    0  0.36741253038E+02 -0.64287428881E+02 -0.14458514564E+03  0.16244278231E+03  0.00000000000E+00 0. -1.
        -11    1    3    3    0    0  0.61730717247E+02 -0.32671786775E+03 -0.11170113716E+04  0.11654482617E+04  0.00000000000E+00 0.  1.
         22    1    1    2    0    0 -0.98471970285E+02  0.39100529663E+03 -0.14227979175E+03  0.42758088131E+03  0.00000000000E+00 0.  1.
<mgrwt>
<rscale>  0 0.10539511E+04</rscale>
<asrwt>0</asrwt>
<pdfrwt beam="1">  1        1 0.24302678E+00 0.10539511E+04</pdfrwt>
<pdfrwt beam="2">  1       -1 0.27045818E-01 0.10539511E+04</pdfrwt>
<totfact> 0.70441899E+01</totfact>
</mgrwt>
</event>
<event>
 6    1  0.1014650E-006  0.2104928E+04  0.7818608E-02  0.8559076E-01
         -2   -1    0    0    0  501 -0.00000000000E+00  0.00000000000E+00  0.88192230522E+03  0.88192230522E+03  0.00000000000E+00 0.  1.
          2   -1    0    0  501    0  0.00000000000E+00 -0.00000000000E+00 -0.12559840117E+04  0.12559840117E+04  0.00000000000E+00 0. -1.
         23    2    1    2    0    0  0.88716721349E+03  0.56255358815E+03 -0.18134105362E+03  0.10698831645E+04  0.90737002623E+02 0.  0.
         13    1    3    3    0    0  0.55637152760E+03  0.38313857764E+03 -0.15200356259E+03  0.69242294116E+03  0.00000000000E+00 0. -1.
        -13    1    3    3    0    0  0.33079568589E+03  0.17941501051E+03 -0.29337491028E+02  0.37746022330E+03  0.00000000000E+00 0.  1.
         22    1    1    2    0    0 -0.88716721349E+03 -0.56255358815E+03 -0.19272065290E+03  0.10680231525E+04  0.00000000000E+00 0. -1.
<mgrwt>
<rscale>  0 0.21049279E+04</rscale>
<asrwt>0</asrwt>
<pdfrwt beam="1">  1        2 0.19322831E+00 0.21049279E+04</pdfrwt>
<pdfrwt beam="2">  1       -2 0.13568036E+00 0.21049279E+04</pdfrwt>
<totfact> 0.62953778E+00</totfact>
</mgrwt>
</event>
<event>
 6    1  0.1014650E-006  0.3516576E+04  0.7818608E-02  0.8109873E-01
         -2   -1    0    0    0  501 -0.00000000000E+00  0.00000000000E+00  0.75635581509E+03  0.75635581509E+03  0.00000000000E+00 0.  1.
          2   -1    0    0  501    0  0.00000000000E+00 -0.00000000000E+00 -0.40874623180E+04  0.40874623180E+04  0.00000000000E+00 0. -1.
         23    2    1    2    0    0  0.14132186063E+04  0.61339950691E+03 -0.50253061696E+03  0.16229040816E+04  0.88514704917E+02 0.  0.
         11    1    3    3    0    0  0.48242753626E+03  0.24093797284E+03 -0.20821715112E+03  0.57805001213E+03  0.00000000000E+00 0.  1.
        -11    1    3    3    0    0  0.93079107003E+03  0.37246153407E+03 -0.29431346583E+03  0.10448540695E+04  0.00000000000E+00 0. -1.
         22    1    1    2    0    0 -0.14132186063E+04 -0.61339950691E+03 -0.28285758859E+04  0.32209140514E+04  0.00000000000E+00 0. -1.
<mgrwt>
<rscale>  0 0.35165755E+04</rscale>
<asrwt>0</asrwt>
<pdfrwt beam="1">  1        2 0.62884036E+00 0.35165755E+04</pdfrwt>
<pdfrwt beam="2">  1       -2 0.11636243E+00 0.35165755E+04</pdfrwt>
<totfact> 0.13588653E-01</totfact>
</mgrwt>
</event>
<event>
 6    1  0.1014650E-006  0.1927864E+04  0.7818608E-02  0.8641110E-01
         -2   -1    0    0    0  501 -0.00000000000E+00  0.00000000000E+00  0.15720987279E+04  0.15720987279E+04  0.00000000000E+00 0.  1.
          2   -1    0    0  501    0  0.00000000000E+00 -0.00000000000E+00 -0.59103489792E+03  0.59103489792E+03  0.00000000000E+00 0. -1.
         23    2    1    2    0    0 -0.96127843010E+03  0.13826831366E+02  0.46980397829E+03  0.10742653889E+04  0.95304492719E+02 0.  0.
         13    1    3    3    0    0 -0.22064221096E+03 -0.31510254767E+02  0.13127614194E+03  0.25866833369E+03  0.00000000000E+00 0. -1.
        -13    1    3    3    0    0 -0.74063621914E+03  0.45337086133E+02  0.33852783636E+03  0.81559705521E+03  0.00000000000E+00 0.  1.
         22    1    1    2    0    0  0.96127843010E+03 -0.13826831366E+02  0.51125985170E+03  0.10888682369E+04  0.00000000000E+00 0.  1.
<mgrwt>
<rscale>  0 0.19278643E+04</rscale>
<asrwt>0</asrwt>
<pdfrwt beam="1">  1        2 0.90928446E-01 0.19278643E+04</pdfrwt>
<pdfrwt beam="2">  1       -2 0.24186134E+00 0.19278643E+04</pdfrwt>
<totfact> 0.34036186E+00</totfact>
</mgrwt>
</event>
<event>
 6    1  0.1014650E-006  0.3902113E+04  0.7818608E-02  0.8024590E-01
          2   -1    0    0  501    0  0.00000000000E+00  0.00000000000E+00  0.52054266941E+04  0.52054266941E+04  0.00000000000E+00 0. -1.
         -2   -1    0    0    0  501 -0.00000000000E+00 -0.00000000000E+00 -0.73127940126E+03  0.73127940126E+03  0.00000000000E+00 0.  1.
         23    2    1    2    0    0  0.89925883899E+03 -0.15251885810E+04  0.34804478388E+04  0.39063599988E+04  0.10613488869E+03 0.  0.
         11    1    3    3    0    0  0.21358339497E+03 -0.40899717000E+03  0.82049855916E+03  0.94133651648E+03  0.00000000000E+00 0.  1.
        -11    1    3    3    0    0  0.68567544402E+03 -0.11161914110E+04  0.26599492796E+04  0.29650234823E+04  0.00000000000E+00 0. -1.
         22    1    1    2    0    0 -0.89925883899E+03  0.15251885810E+04  0.99369945411E+03  0.20303460966E+04  0.00000000000E+00 0.  1.
<mgrwt>
<rscale>  0 0.39021129E+04</rscale>
<asrwt>0</asrwt>
<pdfrwt beam="1">  1        2 0.80083485E+00 0.39021129E+04</pdfrwt>
<pdfrwt beam="2">  1       -2 0.11250453E+00 0.39021129E+04</pdfrwt>
<totfact> 0.88350249E-03</totfact>
</mgrwt>
</event>
<event>
 6    1  0.1014650E-006  0.1635383E+04  0.7818608E-02  0.8799101E-01
         -1   -1    0    0    0  501 -0.00000000000E+00  0.00000000000E+00  0.52833614475E+03  0.52833614475E+03  0.00000000000E+00 0.  1.
          1   -1    0    0  501    0  0.00000000000E+00 -0.00000000000E+00 -0.12655193225E+04  0.12655193225E+04  0.00000000000E+00 0. -1.
         23    2    1    2    0    0 -0.47449817953E+03  0.66278324965E+03 -0.36067835033E+03  0.89597683211E+03  0.90859522781E+02 0.  0.
         11    1    3    3    0    0 -0.27323791571E+02  0.86112783258E+02 -0.35497656925E+02  0.97067423338E+02  0.00000000000E+00 0.  1.
        -11    1    3    3    0    0 -0.44717438796E+03  0.57667046639E+03 -0.32518069341E+03  0.79890940877E+03  0.00000000000E+00 0. -1.
         22    1    1    2    0    0  0.47449817953E+03 -0.66278324965E+03 -0.37650482743E+03  0.89787863516E+03  0.00000000000E+00 0.  1.
<mgrwt>
<rscale>  0 0.16353833E+04</rscale>
<asrwt>0</asrwt>
<pdfrwt beam="1">  1        1 0.19469528E+00 0.16353833E+04</pdfrwt>
<pdfrwt beam="2">  1       -1 0.81282484E-01 0.16353833E+04</pdfrwt>
<totfact> 0.13815124E+01</totfact>
</mgrwt>
</event>
<event>
 6    1  0.1014650E-006  0.2236705E+04  0.7818608E-02  0.8503304E-01
          2   -1    0    0  501    0  0.00000000000E+00  0.00000000000E+00  0.72880289838E+03  0.72880289838E+03  0.00000000000E+00 0. -1.
         -2   -1    0    0    0  501 -0.00000000000E+00 -0.00000000000E+00 -0.17161190676E+04  0.17161190676E+04  0.00000000000E+00 0.  1.
         23    2    1    2    0    0 -0.10964193071E+04 -0.31911167406E+02 -0.26604968092E+03  0.11321466742E+04  0.88430986866E+02 0.  0.
         11    1    3    3    0    0 -0.93994494315E+03  0.37653264289E+01 -0.22722170214E+03  0.96702656414E+03  0.00000000000E+00 0. -1.
        -11    1    3    3    0    0 -0.15647436400E+03 -0.35676493835E+02 -0.38827978781E+02  0.16512011003E+03  0.00000000000E+00 0.  1.
         22    1    1    2    0    0  0.10964193071E+04  0.31911167406E+02 -0.72126648832E+03  0.13127752918E+04  0.00000000000E+00 0. -1.
<mgrwt>
<rscale>  0 0.22367052E+04</rscale>
<asrwt>0</asrwt>
<pdfrwt beam="1">  1        2 0.11212352E+00 0.22367052E+04</pdfrwt>
<pdfrwt beam="2">  1       -2 0.26401831E+00 0.22367052E+04</pdfrwt>
<totfact> 0.18696969E+00</totfact>
</mgrwt>
</event>
<event>
 6    1  0.1014650E-006  0.1681241E+04  0.7818608E-02  0.8772136E-01
         -1   -1    0    0    0  501 -0.00000000000E+00  0.00000000000E+00  0.20237716427E+04  0.20237716427E+04  0.00000000000E+00 0.  1.
          1   -1    0    0  501    0  0.00000000000E+00 -0.00000000000E+00 -0.34917114014E+03  0.34917114014E+03  0.00000000000E+00 0. -1.
         23    2    1    2    0    0  0.20992046441E+03 -0.48351174341E+03 -0.79991959223E+02  0.54088249062E+03  0.91131485925E+02 0.  0.
         11    1    3    3    0    0  0.21716425930E+02 -0.10478935224E+03  0.13203244947E+02  0.10782734892E+03  0.00000000000E+00 0. -1.
        -11    1    3    3    0    0  0.18820403848E+03 -0.37872239117E+03 -0.93195204169E+02  0.43305514170E+03  0.00000000000E+00 0.  1.
         22    1    1    2    0    0 -0.20992046441E+03  0.48351174341E+03  0.17545924618E+04  0.18320602923E+04  0.00000000000E+00 0.  1.
<mgrwt>
<rscale>  0 0.16812408E+04</rscale>
<asrwt>0</asrwt>
<pdfrwt beam="1">  1        1 0.53718638E-01 0.16812408E+04</pdfrwt>
<pdfrwt beam="2">  1       -1 0.31134948E+00 0.16812408E+04</pdfrwt>
<totfact> 0.19120182E+00</totfact>
</mgrwt>
</event>
<event>
 6    1  0.1014650E-006  0.4439934E+04  0.7818608E-02  0.7921238E-01
          2   -1    0    0  501    0  0.00000000000E+00  0.00000000000E+00  0.22995628197E+04  0.22995628197E+04  0.00000000000E+00 0. -1.
         -2   -1    0    0    0  501 -0.00000000000E+00 -0.00000000000E+00 -0.21431258048E+04  0.21431258048E+04  0.00000000000E+00 0.  1.
         23    2    1    2    0    0  0.11414253230E+04 -0.18968243122E+04  0.23095035719E+03  0.22276612031E+04  0.91335254526E+02 0.  0.
         13    1    3    3    0    0  0.74284017726E+03 -0.12520308203E+04  0.19442721710E+03  0.14687391350E+04  0.00000000000E+00 0.  1.
        -13    1    3    3    0    0  0.39858514570E+03 -0.64479349193E+03  0.36523140092E+02  0.75892206805E+03  0.00000000000E+00 0. -1.
         22    1    1    2    0    0 -0.11414253230E+04  0.18968243122E+04 -0.74513342301E+02  0.22150274214E+04  0.00000000000E+00 0.  1.
<mgrwt>
<rscale>  0 0.44399335E+04</rscale>
<asrwt>0</asrwt>
<pdfrwt beam="1">  1        2 0.35377890E+00 0.44399335E+04</pdfrwt>
<pdfrwt beam="2">  1       -2 0.32971166E+00 0.44399335E+04</pdfrwt>
<totfact> 0.71992796E-02</totfact>
</mgrwt>
</event>
<event>
 6    1  0.1014650E-006  0.3110981E+04  0.7818608E-02  0.8212731E-01
          2   -1    0    0  501    0  0.00000000000E+00  0.00000000000E+00  0.25759240709E+04  0.25759240709E+04  0.00000000000E+00 0. -1.
         -2   -1    0    0    0  501 -0.00000000000E+00 -0.00000000000E+00 -0.93929406859E+03  0.93929406859E+03  0.00000000000E+00 0.  1.
         23    2    1    2    0    0  0.56117874454E+03  0.66362867902E+03  0.22748520424E+04  0.24369547304E+04  0.92043123568E+02 0.  0.
         11    1    3    3    0    0  0.48154625710E+03  0.59227808849E+03  0.20620387656E+04  0.21987914869E+04  0.00000000000E+00 0.  1.
        -11    1    3    3    0    0  0.79632487437E+02  0.71350590532E+02  0.21281327677E+03  0.23816324358E+03  0.00000000000E+00 0. -1.
         22    1    1    2    0    0 -0.56117874454E+03 -0.66362867902E+03 -0.63822204004E+03  0.10782634091E+04  0.00000000000E+00 0.  1.
<mgrwt>
<rscale>  0 0.31109807E+04</rscale>
<asrwt>0</asrwt>
<pdfrwt beam="1">  1        2 0.39629601E+00 0.31109807E+04</pdfrwt>
<pdfrwt beam="2">  1       -2 0.14450678E+00 0.31109807E+04</pdfrwt>
<totfact> 0.88145937E-01</totfact>
</mgrwt>
</event>
<event>
 6    1  0.1014650E-006  0.1181809E+04  0.7818608E-02  0.9128929E-01
         -2   -1    0    0    0  501 -0.00000000000E+00  0.00000000000E+00  0.48785910358E+03  0.48785910358E+03  0.00000000000E+00 0.  1.
          2   -1    0    0  501    0  0.00000000000E+00 -0.00000000000E+00 -0.71571555518E+03  0.71571555518E+03  0.00000000000E+00 0. -1.
         23    2    1    2    0    0  0.14169855089E+03  0.29816662021E+02 -0.69439240865E+03  0.71508380739E+03  0.90534643892E+02 0.  0.
         11    1    3    3    0    0  0.10452213600E+01  0.22882414971E+02 -0.19086461917E+03  0.19223423278E+03  0.00000000000E+00 0. -1.
        -11    1    3    3    0    0  0.14065332953E+03  0.69342470503E+01 -0.50352778948E+03  0.52284957461E+03  0.00000000000E+00 0.  1.
         22    1    1    2    0    0 -0.14169855089E+03 -0.29816662021E+02  0.46653595704E+03  0.48849085137E+03  0.00000000000E+00 0.  1.
<mgrwt>
<rscale>  0 0.11818094E+04</rscale>
<asrwt>0</asrwt>
<pdfrwt beam="1">  1        2 0.11011009E+00 0.11818094E+04</pdfrwt>
<pdfrwt beam="2">  1       -2 0.75055246E-01 0.11818094E+04</pdfrwt>
<totfact> 0.62762965E+01</totfact>
</mgrwt>
</event>
<event>
 6    1  0.1120142E-006  0.4344084E+04  0.7818608E-02  0.7938517E-01
          2   -1    0    0  501    0  0.00000000000E+00  0.00000000000E+00  0.29075662881E+04  0.29075662881E+04  0.00000000000E+00 0. -1.
         -2   -1    0    0    0  501 -0.00000000000E+00 -0.00000000000E+00 -0.16225823480E+04  0.16225823480E+04  0.00000000000E+00 0.  1.
         23    2    1    2    0    0  0.21365493946E+02 -0.14670125076E+04 -0.10261480204E+04  0.17926473812E+04  0.89569478928E+02 0.  0.
         11    1    3    3    0    0 -0.29937167905E+02 -0.74826144275E+03 -0.50052739065E+03  0.90073252940E+03  0.00000000000E+00 0. -1.
        -11    1    3    3    0    0  0.51302661852E+02 -0.71875106485E+03 -0.52562062980E+03  0.89191485177E+03  0.00000000000E+00 0.  1.
         22    1    1    2    0    0 -0.21365493946E+02  0.14670125076E+04  0.23111319605E+04  0.27375012549E+04  0.00000000000E+00 0. -1.
<mgrwt>
<rscale>  0 0.43440837E+04</rscale>
<asrwt>0</asrwt>
<pdfrwt beam="1">  1        2 0.44731789E+00 0.43440837E+04</pdfrwt>
<pdfrwt beam="2">  1       -2 0.24962805E+00 0.43440837E+04</pdfrwt>
<totfact> 0.98484436E-02</totfact>
</mgrwt>
</event>
<event>
 6    1  0.1014650E-006  0.5362195E+03  0.7818608E-02  0.1004735E+00
         -1   -1    0    0    0  501 -0.00000000000E+00  0.00000000000E+00  0.35041390649E+02  0.35041390649E+02  0.00000000000E+00 0.  1.
          1   -1    0    0  501    0  0.00000000000E+00 -0.00000000000E+00 -0.20513690873E+04  0.20513690873E+04  0.00000000000E+00 0. -1.
         23    2    1    2    0    0 -0.76408359908E+02 -0.20802091325E+03 -0.15686356158E+04  0.15868715534E+04  0.91829702490E+02 0.  0.
         11    1    3    3    0    0  0.84533186083E+01 -0.10661769140E+03 -0.64156982322E+03  0.65042342269E+03  0.00000000000E+00 0.  1.
        -11    1    3    3    0    0 -0.84861678516E+02 -0.10140322185E+03 -0.92706579254E+03  0.93644813075E+03  0.00000000000E+00 0. -1.
         22    1    1    2    0    0  0.76408359908E+02  0.20802091325E+03 -0.44769208092E+03  0.49953892454E+03  0.00000000000E+00 0.  1.
<mgrwt>
<rscale>  0 0.53621945E+03</rscale>
<asrwt>0</asrwt>
<pdfrwt beam="1">  1        1 0.31559526E+00 0.53621945E+03</pdfrwt>
<pdfrwt beam="2">  1       -1 0.53909829E-02 0.53621945E+03</pdfrwt>
<totfact> 0.47636051E+02</totfact>
</mgrwt>
</event>
<event>
 6    1  0.1014650E-006  0.3352842E+04  0.7818608E-02  0.8149578E-01
         -2   -1    0    0    0  501 -0.00000000000E+00  0.00000000000E+00  0.12907043075E+04  0.12907043075E+04  0.00000000000E+00 0.  1.
          2   -1    0    0  501    0  0.00000000000E+00 -0.00000000000E+00 -0.21774057600E+04  0.21774057600E+04  0.00000000000E+00 0. -1.
         23    2    1    2    0    0  0.15468711519E+04  0.27997531251E+03 -0.10423409756E+04  0.18884201619E+04  0.91975335397E+02 0.  0.
         13    1    3    3    0    0  0.13725187628E+04  0.25791485743E+03 -0.95756934190E+03  0.16933005854E+04  0.00000000000E+00 0.  1.
        -13    1    3    3    0    0  0.17435238917E+03  0.22060455082E+02 -0.84771633705E+02  0.19511957659E+03  0.00000000000E+00 0. -1.
         22    1    1    2    0    0 -0.15468711519E+04 -0.27997531251E+03  0.15563952310E+03  0.15796899055E+04  0.00000000000E+00 0.  1.
<mgrwt>
<rscale>  0 0.33528418E+04</rscale>
<asrwt>0</asrwt>
<pdfrwt beam="1">  1        2 0.33498550E+00 0.33528418E+04</pdfrwt>
<pdfrwt beam="2">  1       -2 0.19856989E+00 0.33528418E+04</pdfrwt>
<totfact> 0.60101369E-01</totfact>
</mgrwt>
</event>
<event>
 6    1  0.1014650E-006  0.9317045E+03  0.7818608E-02  0.9386795E-01
         -1   -1    0    0    0  501 -0.00000000000E+00  0.00000000000E+00  0.61933199339E+03  0.61933199339E+03  0.00000000000E+00 0.  1.
          1   -1    0    0  501    0  0.00000000000E+00 -0.00000000000E+00 -0.35040709820E+03  0.35040709820E+03  0.00000000000E+00 0. -1.
         23    2    1    2    0    0 -0.36910345166E+02  0.41020756029E+03  0.35218780678E+03  0.54954231800E+03  0.91257284264E+02 0.  0.
         11    1    3    3    0    0  0.95962176922E+01  0.28351057512E+02  0.31170502885E+01  0.30092953636E+02  0.00000000000E+00 0.  1.
        -11    1    3    3    0    0 -0.46506562858E+02  0.38185650277E+03  0.34907075649E+03  0.51944936436E+03  0.00000000000E+00 0. -1.
         22    1    1    2    0    0  0.36910345166E+02 -0.41020756029E+03 -0.83262911580E+02  0.42019677360E+03  0.00000000000E+00 0. -1.
<mgrwt>
<rscale>  0 0.93170452E+03</rscale>
<asrwt>0</asrwt>
<pdfrwt beam="1">  1        1 0.53908784E-01 0.93170452E+03</pdfrwt>
<pdfrwt beam="2">  1       -1 0.95281845E-01 0.93170452E+03</pdfrwt>
<totfact> 0.76589441E+01</totfact>
</mgrwt>
</event>
<event>
 6    1  0.1014650E-006  0.3720521E+04  0.7818608E-02  0.8063429E-01
          1   -1    0    0  501    0  0.00000000000E+00  0.00000000000E+00  0.17358875988E+04  0.17358875988E+04  0.00000000000E+00 0. -1.
         -1   -1    0    0    0  501 -0.00000000000E+00 -0.00000000000E+00 -0.19935448404E+04  0.19935448404E+04  0.00000000000E+00 0.  1.
         23    2    1    2    0    0  0.62397184626E+03 -0.53371930189E+03  0.15431652798E+04  0.17502510651E+04  0.88445190728E+02 0.  0.
         13    1    3    3    0    0  0.39809741751E+03 -0.32466626654E+03  0.10500610031E+04  0.11689815433E+04  0.00000000000E+00 0. -1.
        -13    1    3    3    0    0  0.22587442875E+03 -0.20905303535E+03  0.49310427676E+03  0.58126952175E+03  0.00000000000E+00 0.  1.
         22    1    1    2    0    0 -0.62397184626E+03  0.53371930189E+03 -0.18008225214E+04  0.19791813741E+04  0.00000000000E+00 0.  1.
<mgrwt>
<rscale>  0 0.37205213E+04</rscale>
<asrwt>0</asrwt>
<pdfrwt beam="1">  1        1 0.26705963E+00 0.37205213E+04</pdfrwt>
<pdfrwt beam="2">  1       -1 0.30669921E+00 0.37205213E+04</pdfrwt>
<totfact> 0.10778773E-01</totfact>
</mgrwt>
</event>
<event>
 6    1  0.1014650E-006  0.1680976E+04  0.7818608E-02  0.8772290E-01
         -2   -1    0    0    0  501 -0.00000000000E+00  0.00000000000E+00  0.26309052689E+03  0.26309052689E+03  0.00000000000E+00 0.  1.
          2   -1    0    0  501    0  0.00000000000E+00 -0.00000000000E+00 -0.26850825434E+04  0.26850825434E+04  0.00000000000E+00 0. -1.
         23    2    1    2    0    0 -0.54513644817E+03  0.58299050746E+02 -0.10285825908E+03  0.56511748738E+03  0.90583810076E+02 0.  0.
         11    1    3    3    0    0 -0.39819933175E+03  0.77211020647E+02 -0.95934956821E+02  0.41680662838E+03  0.00000000000E+00 0.  1.
        -11    1    3    3    0    0 -0.14693711641E+03 -0.18911969901E+02 -0.69233022637E+01  0.14831085901E+03  0.00000000000E+00 0. -1.
         22    1    1    2    0    0  0.54513644817E+03 -0.58299050746E+02 -0.23191337574E+04  0.23830555829E+04  0.00000000000E+00 0. -1.
<mgrwt>
<rscale>  0 0.16809756E+04</rscale>
<asrwt>0</asrwt>
<pdfrwt beam="1">  1        2 0.41308962E+00 0.16809756E+04</pdfrwt>
<pdfrwt beam="2">  1       -2 0.40475465E-01 0.16809756E+04</pdfrwt>
<totfact> 0.14966853E+01</totfact>
</mgrwt>
</event>
<event>
 6    1  0.1014650E-006  0.2064582E+04  0.7818608E-02  0.8577008E-01
         -2   -1    0    0    0  501 -0.00000000000E+00  0.00000000000E+00  0.75622637501E+03  0.75622637501E+03  0.00000000000E+00 0.  1.
          2   -1    0    0  501    0  0.00000000000E+00 -0.00000000000E+00 -0.14091343059E+04  0.14091343059E+04  0.00000000000E+00 0. -1.
         23    2    1    2    0    0  0.32983294571E+03  0.50134580707E+03  0.55122315495E+03  0.81997260967E+03  0.91491659336E+02 0.  0.
         13    1    3    3    0    0  0.88089779471E+02  0.20298011984E+03  0.17179815237E+03  0.28013450958E+03  0.00000000000E+00 0. -1.
        -13    1    3    3    0    0  0.24174316623E+03  0.29836568722E+03  0.37942500258E+03  0.53983810009E+03  0.00000000000E+00 0.  1.
         22    1    1    2    0    0 -0.32983294571E+03 -0.50134580707E+03 -0.12041310858E+04  0.13453880712E+04  0.00000000000E+00 0. -1.
<mgrwt>
<rscale>  0 0.20645818E+04</rscale>
<asrwt>0</asrwt>
<pdfrwt beam="1">  1        2 0.21678989E+00 0.20645818E+04</pdfrwt>
<pdfrwt beam="2">  1       -2 0.11634252E+00 0.20645818E+04</pdfrwt>
<totfact> 0.75746697E+00</totfact>
</mgrwt>
</event>
<event>
 6    1  0.1014650E-006  0.1888638E+04  0.7818608E-02  0.8660533E-01
          1   -1    0    0  501    0  0.00000000000E+00  0.00000000000E+00  0.11648431987E+04  0.11648431987E+04  0.00000000000E+00 0. -1.
         -1   -1    0    0    0  501 -0.00000000000E+00 -0.00000000000E+00 -0.76554340093E+03  0.76554340093E+03  0.00000000000E+00 0.  1.
         23    2    1    2    0    0  0.92338155531E+03  0.13298357424E+03  0.65464924875E+02  0.93954662768E+03  0.90244564825E+02 0.  0.
         13    1    3    3    0    0  0.50975446470E+03  0.38325403607E+02  0.71912466864E+01  0.51124374311E+03  0.00000000000E+00 0. -1.
        -13    1    3    3    0    0  0.41362709061E+03  0.94658170629E+02  0.58273678189E+02  0.42830288456E+03  0.00000000000E+00 0.  1.
         22    1    1    2    0    0 -0.92338155531E+03 -0.13298357424E+03  0.33383487292E+03  0.99083997199E+03  0.00000000000E+00 0. -1.
<mgrwt>
<rscale>  0 0.18886376E+04</rscale>
<asrwt>0</asrwt>
<pdfrwt beam="1">  1        1 0.17920665E+00 0.18886376E+04</pdfrwt>
<pdfrwt beam="2">  1       -1 0.11777591E+00 0.18886376E+04</pdfrwt>
<totfact> 0.68837175E+00</totfact>
</mgrwt>
</event>
<event>
 6    1  0.1014650E-006  0.4488229E+03  0.7818608E-02  0.1028074E+00
          2   -1    0    0  501    0  0.00000000000E+00  0.00000000000E+00  0.33536235799E+04  0.33536235799E+04  0.00000000000E+00 0. -1.
         -2   -1    0    0    0  501 -0.00000000000E+00 -0.00000000000E+00 -0.15016741026E+02  0.15016741026E+02  0.00000000000E+00 0.  1.
         23    2    1    2    0    0 -0.69834056378E+02 -0.66095530472E+02  0.31826178520E+04  0.31853973713E+04  0.91948933636E+02 0.  0.
         11    1    3    3    0    0 -0.74056769460E+02 -0.87706034504E+01  0.19862815594E+04  0.19876810010E+04  0.00000000000E+00 0. -1.
        -11    1    3    3    0    0  0.42227130815E+01 -0.57324927021E+02  0.11963362926E+04  0.11977163702E+04  0.00000000000E+00 0.  1.
         22    1    1    2    0    0  0.69834056378E+02  0.66095530472E+02  0.15598898692E+03  0.18324294972E+03  0.00000000000E+00 0.  1.
<mgrwt>
<rscale>  0 0.44882289E+03</rscale>
<asrwt>0</asrwt>
<pdfrwt beam="1">  1        2 0.51594149E+00 0.44882289E+03</pdfrwt>
<pdfrwt beam="2">  1       -2 0.23102705E-02 0.44882289E+03</pdfrwt>
<totfact> 0.76456171E+02</totfact>
</mgrwt>
</event>
<event>
 6    1  0.1301976E-006  0.3318845E+04  0.7818608E-02  0.8158117E-01
         -1   -1    0    0    0  501 -0.00000000000E+00  0.00000000000E+00  0.14875007566E+04  0.14875007566E+04  0.00000000000E+00 0.  1.
          1   -1    0    0  501    0  0.00000000000E+00 -0.00000000000E+00 -0.18512143111E+04  0.18512143111E+04  0.00000000000E+00 0. -1.
         23    2    1    2    0    0  0.15219304528E+04 -0.24201665235E+03  0.43379318954E+03  0.16035316855E+04  0.91065756564E+02 0.  0.
         11    1    3    3    0    0  0.44746906901E+03 -0.94116972292E+02  0.16509041846E+03  0.48614958445E+03  0.00000000000E+00 0. -1.
        -11    1    3    3    0    0  0.10744613838E+04 -0.14789968006E+03  0.26870277109E+03  0.11173821011E+04  0.00000000000E+00 0.  1.
         22    1    1    2    0    0 -0.15219304528E+04  0.24201665235E+03 -0.79750674403E+03  0.17351833822E+04  0.00000000000E+00 0. -1.
<mgrwt>
<rscale>  0 0.33188448E+04</rscale>
<asrwt>0</asrwt>
<pdfrwt beam="1">  1        1 0.28480220E+00 0.33188448E+04</pdfrwt>
<pdfrwt beam="2">  1       -1 0.22884627E+00 0.33188448E+04</pdfrwt>
<totfact> 0.29925341E-01</totfact>
</mgrwt>
</event>
<event>
 6    1  0.1014650E-006  0.1059150E+04  0.7818608E-02  0.9245948E-01
          1   -1    0    0  501    0  0.00000000000E+00  0.00000000000E+00  0.36371241610E+03  0.36371241610E+03  0.00000000000E+00 0. -1.
         -1   -1    0    0    0  501 -0.00000000000E+00 -0.00000000000E+00 -0.77107472015E+03  0.77107472015E+03  0.00000000000E+00 0.  1.
         23    2    1    2    0    0 -0.52464752830E+03 -0.65602492943E+01 -0.23216316920E+03  0.58162097435E+03  0.95316078651E+02 0.  0.
         11    1    3    3    0    0 -0.12800417518E+03 -0.35938509798E+02 -0.33865218305E+02  0.13719875496E+03  0.00000000000E+00 0. -1.
        -11    1    3    3    0    0 -0.39664335312E+03  0.29378260503E+02 -0.19829795089E+03  0.44442221940E+03  0.00000000000E+00 0.  1.
         22    1    1    2    0    0  0.52464752830E+03  0.65602492943E+01 -0.17519913485E+03  0.55316616191E+03  0.00000000000E+00 0.  1.
<mgrwt>
<rscale>  0 0.10591496E+04</rscale>
<asrwt>0</asrwt>
<pdfrwt beam="1">  1        1 0.55955757E-01 0.10591496E+04</pdfrwt>
<pdfrwt beam="2">  1       -1 0.11862688E+00 0.10591496E+04</pdfrwt>
<totfact> 0.43325249E+01</totfact>
</mgrwt>
</event>
<event>
 6    1  0.1014650E-006  0.2136686E+04  0.7818608E-02  0.8545253E-01
          2   -1    0    0  501    0  0.00000000000E+00  0.00000000000E+00  0.10209505521E+04  0.10209505521E+04  0.00000000000E+00 0. -1.
         -2   -1    0    0    0  501 -0.00000000000E+00 -0.00000000000E+00 -0.11179351303E+04  0.11179351303E+04  0.00000000000E+00 0.  1.
         23    2    1    2    0    0  0.73241031369E+03  0.71519082365E+03 -0.34772331980E+03  0.10849441762E+04  0.90937212129E+02 0.  0.
         11    1    3    3    0    0  0.29842388475E+03  0.34848554477E+03 -0.17584727823E+03  0.49134636985E+03  0.00000000000E+00 0.  1.
        -11    1    3    3    0    0  0.43398642894E+03  0.36670527887E+03 -0.17187604157E+03  0.59359780637E+03  0.00000000000E+00 0. -1.
         22    1    1    2    0    0 -0.73241031369E+03 -0.71519082365E+03  0.25073874162E+03  0.10539415062E+04  0.00000000000E+00 0.  1.
<mgrwt>
<rscale>  0 0.21366857E+04</rscale>
<asrwt>0</asrwt>
<pdfrwt beam="1">  1        2 0.15706932E+00 0.21366857E+04</pdfrwt>
<pdfrwt beam="2">  1       -2 0.17199002E+00 0.21366857E+04</pdfrwt>
<totfact> 0.46286933E+00</totfact>
</mgrwt>
</event>
<event>
 6    1  0.1014650E-006  0.1138775E+04  0.7818608E-02  0.9168202E-01
          2   -1    0    0  501    0  0.00000000000E+00  0.00000000000E+00  0.26215911050E+04  0.26215911050E+04  0.00000000000E+00 0. -1.
         -2   -1    0    0    0  501 -0.00000000000E+00 -0.00000000000E+00 -0.12366626155E+03  0.12366626155E+03  0.00000000000E+00 0.  1.
         23    2    1    2    0    0  0.51762705038E+03  0.21687807795E+03  0.10848292093E+04  0.12247925905E+04  0.91041816780E+02 0.  0.
         13    1    3    3    0    0  0.67753063646E+02  0.18414511733E+02  0.82349068866E+02  0.10821710132E+03  0.00000000000E+00 0.  1.
        -13    1    3    3    0    0  0.44987398674E+03  0.19846356622E+03  0.10024801404E+04  0.11165754892E+04  0.00000000000E+00 0. -1.
         22    1    1    2    0    0 -0.51762705038E+03 -0.21687807795E+03  0.14130956341E+04  0.15204647760E+04  0.00000000000E+00 0. -1.
<mgrwt>
<rscale>  0 0.11387754E+04</rscale>
<asrwt>0</asrwt>
<pdfrwt beam="1">  1        2 0.40332167E+00 0.11387754E+04</pdfrwt>
<pdfrwt beam="2">  1       -2 0.19025581E-01 0.11387754E+04</pdfrwt>
<totfact> 0.68970375E+01</totfact>
</mgrwt>
</event>
<event>
 6    1  0.1014650E-006  0.2120398E+04  0.7818608E-02  0.8552311E-01
          1   -1    0    0  501    0  0.00000000000E+00  0.00000000000E+00  0.17063838435E+04  0.17063838435E+04  0.00000000000E+00 0. -1.
         -1   -1    0    0    0  501 -0.00000000000E+00 -0.00000000000E+00 -0.65871596772E+03  0.65871596772E+03  0.00000000000E+00 0.  1.
         23    2    1    2    0    0  0.21133310463E+03 -0.77739169372E+03  0.12902095816E+04  0.15237758512E+04  0.90843567333E+02 0.  0.
         13    1    3    3    0    0  0.11399834388E+03 -0.37071910644E+03  0.70300279465E+03  0.80289551473E+03  0.00000000000E+00 0.  1.
        -13    1    3    3    0    0  0.97334760748E+02 -0.40667258728E+03  0.58720678694E+03  0.72088033648E+03  0.00000000000E+00 0. -1.
         22    1    1    2    0    0 -0.21133310463E+03  0.77739169372E+03 -0.24254170583E+03  0.84132395998E+03  0.00000000000E+00 0.  1.
<mgrwt>
<rscale>  0 0.21203983E+04</rscale>
<asrwt>0</asrwt>
<pdfrwt beam="1">  1        1 0.26252059E+00 0.21203983E+04</pdfrwt>
<pdfrwt beam="2">  1       -1 0.10134092E+00 0.21203983E+04</pdfrwt>
<totfact> 0.40037019E+00</totfact>
</mgrwt>
</event>
<event>
 6    1  0.1014650E-006  0.2746499E+04  0.7818608E-02  0.8320073E-01
          2   -1    0    0  501    0  0.00000000000E+00  0.00000000000E+00  0.12110169286E+04  0.12110169286E+04  0.00000000000E+00 0. -1.
         -2   -1    0    0    0  501 -0.00000000000E+00 -0.00000000000E+00 -0.15572159293E+04  0.15572159293E+04  0.00000000000E+00 0.  1.
         23    2    1    2    0    0 -0.31305465287E+03 -0.13217119501E+04 -0.36554691459E+03  0.14098146467E+04  0.95011034709E+02 0.  0.
         11    1    3    3    0    0 -0.20266245850E+03 -0.10165587108E+04 -0.29506124739E+03  0.10777406109E+04  0.00000000000E+00 0. -1.
        -11    1    3    3    0    0 -0.11039219437E+03 -0.30515323927E+03 -0.70485667197E+02  0.33207403586E+03  0.00000000000E+00 0.  1.
         22    1    1    2    0    0  0.31305465287E+03  0.13217119501E+04  0.19347913856E+02  0.13584182112E+04  0.00000000000E+00 0.  1.
<mgrwt>
<rscale>  0 0.27464995E+04</rscale>
<asrwt>0</asrwt>
<pdfrwt beam="1">  1        2 0.18631030E+00 0.27464995E+04</pdfrwt>
<pdfrwt beam="2">  1       -2 0.23957168E+00 0.27464995E+04</pdfrwt>
<totfact> 0.12151573E+00</totfact>
</mgrwt>
</event>
<event>
 6    1  0.1014650E-006  0.3618415E+04  0.7818608E-02  0.8086286E-01
         -2   -1    0    0    0  501 -0.00000000000E+00  0.00000000000E+00  0.14535214185E+04  0.14535214185E+04  0.00000000000E+00 0.  1.
          2   -1    0    0  501    0  0.00000000000E+00 -0.00000000000E+00 -0.22519325596E+04  0.22519325596E+04  0.00000000000E+00 0. -1.
         23    2    1    2    0    0 -0.15049134892E+04  0.50007796581E+03 -0.12888270893E+04  0.20455291653E+04  0.90948986750E+02 0.  0.
         13    1    3    3    0    0 -0.73425822521E+03  0.19632580889E+03 -0.62216549954E+03  0.98222648780E+03  0.00000000000E+00 0. -1.
        -13    1    3    3    0    0 -0.77065526402E+03  0.30375215693E+03 -0.66666158975E+03  0.10633026775E+04  0.00000000000E+00 0.  1.
         22    1    1    2    0    0  0.15049134892E+04 -0.50007796581E+03  0.49041594818E+03  0.16599248128E+04  0.00000000000E+00 0.  1.
<mgrwt>
<rscale>  0 0.36184152E+04</rscale>
<asrwt>0</asrwt>
<pdfrwt beam="1">  1        2 0.34645116E+00 0.36184152E+04</pdfrwt>
<pdfrwt beam="2">  1       -2 0.22361868E+00 0.36184152E+04</pdfrwt>
<totfact> 0.36833703E-01</totfact>
</mgrwt>
</event>
<event>
 6    1  0.1014650E-006  0.3325280E+04  0.7818608E-02  0.8156492E-01
          1   -1    0    0  501    0  0.00000000000E+00  0.00000000000E+00  0.14588875371E+04  0.14588875371E+04  0.00000000000E+00 0. -1.
         -1   -1    0    0    0  501 -0.00000000000E+00 -0.00000000000E+00 -0.18948495024E+04  0.18948495024E+04  0.00000000000E+00 0.  1.
         23    2    1    2    0    0 -0.93742909199E+03 -0.40878710051E+03  0.11024072316E+04  0.15064525509E+04  0.90649808321E+02 0.  0.
         13    1    3    3    0    0 -0.63370921794E+03 -0.27402712080E+03  0.80498206741E+03  0.10605066547E+04  0.00000000000E+00 0. -1.
        -13    1    3    3    0    0 -0.30371987405E+03 -0.13475997971E+03  0.29742516417E+03  0.44594589616E+03  0.00000000000E+00 0.  1.
         22    1    1    2    0    0  0.93742909199E+03  0.40878710051E+03 -0.15383691968E+04  0.18472844886E+04  0.00000000000E+00 0.  1.
<mgrwt>
<rscale>  0 0.33252803E+04</rscale>
<asrwt>0</asrwt>
<pdfrwt beam="1">  1        1 0.22444424E+00 0.33252803E+04</pdfrwt>
<pdfrwt beam="2">  1       -1 0.29151531E+00 0.33252803E+04</pdfrwt>
<totfact> 0.21678860E-01</totfact>
</mgrwt>
</event>
<event>
 6    1  0.1014650E-006  0.1332531E+04  0.7818608E-02  0.9004159E-01
          2   -1    0    0  501    0  0.00000000000E+00  0.00000000000E+00  0.40854988005E+03  0.40854988005E+03  0.00000000000E+00 0. -1.
         -2   -1    0    0    0  501 -0.00000000000E+00 -0.00000000000E+00 -0.10865489649E+04  0.10865489649E+04  0.00000000000E+00 0.  1.
         23    2    1    2    0    0 -0.61349327691E+03 -0.22695176028E+02 -0.62214945947E+03  0.87865075102E+03  0.89822717214E+02 0.  0.
         11    1    3    3    0    0 -0.39806033487E+03 -0.32123139261E+02 -0.34684901611E+03  0.52895006027E+03  0.00000000000E+00 0. -1.
        -11    1    3    3    0    0 -0.21543294204E+03  0.94279632326E+01 -0.27530044335E+03  0.34970069076E+03  0.00000000000E+00 0.  1.
         22    1    1    2    0    0  0.61349327691E+03  0.22695176028E+02 -0.55849625353E+02  0.61644809391E+03  0.00000000000E+00 0.  1.
<mgrwt>
<rscale>  0 0.13325306E+04</rscale>
<asrwt>0</asrwt>
<pdfrwt beam="1">  1        2 0.62853827E-01 0.13325306E+04</pdfrwt>
<pdfrwt beam="2">  1       -2 0.16716138E+00 0.13325306E+04</pdfrwt>
<totfact> 0.16938102E+01</totfact>
</mgrwt>
</event>
<event>
 6    1  0.1014650E-006  0.6951635E+03  0.7818608E-02  0.9725539E-01
         -2   -1    0    0    0  501 -0.00000000000E+00  0.00000000000E+00  0.85755101167E+02  0.85755101167E+02  0.00000000000E+00 0.  1.
          2   -1    0    0  501    0  0.00000000000E+00 -0.00000000000E+00 -0.14088150684E+04  0.14088150684E+04  0.00000000000E+00 0. -1.
         23    2    1    2    0    0  0.29012306896E+03  0.14107049262E+03 -0.43256791355E+03  0.54744379114E+03  0.92235706714E+02 0.  0.
         11    1    3    3    0    0  0.23019351854E+03  0.76351287351E+02 -0.27337834753E+03  0.36545081195E+03  0.00000000000E+00 0. -1.
        -11    1    3    3    0    0  0.59929550425E+02  0.64719205272E+02 -0.15918956602E+03  0.18199297919E+03  0.00000000000E+00 0.  1.
         22    1    1    2    0    0 -0.29012306896E+03 -0.14107049262E+03 -0.89049205367E+03  0.94712637841E+03  0.00000000000E+00 0.  1.
<mgrwt>
<rscale>  0 0.69516352E+03</rscale>
<asrwt>0</asrwt>
<pdfrwt beam="1">  1        2 0.21674077E+00 0.69516352E+03</pdfrwt>
<pdfrwt beam="2">  1       -2 0.13193093E-01 0.69516352E+03</pdfrwt>
<totfact> 0.63011833E+02</totfact>
</mgrwt>
</event>
<event>
 6    1  0.1014650E-006  0.7758115E+03  0.7818608E-02  0.9595704E-01
          2   -1    0    0  501    0  0.00000000000E+00  0.00000000000E+00  0.33862629095E+03  0.33862629095E+03  0.00000000000E+00 0. -1.
         -2   -1    0    0    0  501 -0.00000000000E+00 -0.00000000000E+00 -0.44435677408E+03  0.44435677408E+03  0.00000000000E+00 0.  1.
         23    2    1    2    0    0  0.62138676619E+02 -0.12710717396E+03 -0.41209523681E+03  0.44552668103E+03  0.93027364302E+02 0.  0.
         11    1    3    3    0    0  0.20185416109E+02 -0.51794484529E+02 -0.29458885892E+03  0.29978778403E+03  0.00000000000E+00 0. -1.
        -11    1    3    3    0    0  0.41953260511E+02 -0.75312689429E+02 -0.11750637788E+03  0.14573889700E+03  0.00000000000E+00 0.  1.
         22    1    1    2    0    0 -0.62138676619E+02  0.12710717396E+03  0.30636475368E+03  0.33745638400E+03  0.00000000000E+00 0. -1.
<mgrwt>
<rscale>  0 0.77581154E+03</rscale>
<asrwt>0</asrwt>
<pdfrwt beam="1">  1        2 0.52096353E-01 0.77581154E+03</pdfrwt>
<pdfrwt beam="2">  1       -2 0.68362580E-01 0.77581154E+03</pdfrwt>
<totfact> 0.18928329E+02</totfact>
</mgrwt>
</event>
<event>
 6    1  0.1014650E-006  0.5337060E+03  0.7818608E-02  0.1005337E+00
         -2   -1    0    0    0  501 -0.00000000000E+00  0.00000000000E+00  0.78807878840E+02  0.78807878840E+02  0.00000000000E+00 0.  1.
          2   -1    0    0  501    0  0.00000000000E+00 -0.00000000000E+00 -0.90359641214E+03  0.90359641214E+03  0.00000000000E+00 0. -1.
         23    2    1    2    0    0 -0.10217801150E+03 -0.11268909696E+03 -0.38273100586E+02  0.18131396867E+03  0.90943644068E+02 0.  0.
         13    1    3    3    0    0 -0.20748642272E+02 -0.12009968104E+02  0.27164725123E+02  0.36230757389E+02  0.00000000000E+00 0.  1.
        -13    1    3    3    0    0 -0.81429369226E+02 -0.10067912886E+03 -0.65437825709E+02  0.14508321128E+03  0.00000000000E+00 0. -1.
         22    1    1    2    0    0  0.10217801150E+03  0.11268909696E+03 -0.78651543271E+03  0.80109032231E+03  0.00000000000E+00 0. -1.
<mgrwt>
<rscale>  0 0.53370597E+03</rscale>
<asrwt>0</asrwt>
<pdfrwt beam="1">  1        2 0.13901483E+00 0.53370597E+03</pdfrwt>
<pdfrwt beam="2">  1       -2 0.12124289E-01 0.53370597E+03</pdfrwt>
<totfact> 0.14668632E+03</totfact>
</mgrwt>
</event>
<event>
 6    1  0.1014650E-006  0.3964072E+04  0.7818608E-02  0.8011834E-01
          1   -1    0    0  501    0  0.00000000000E+00  0.00000000000E+00  0.14067428824E+04  0.14067428824E+04  0.00000000000E+00 0. -1.
         -1   -1    0    0    0  501 -0.00000000000E+00 -0.00000000000E+00 -0.27925981174E+04  0.27925981174E+04  0.00000000000E+00 0.  1.
         23    2    1    2    0    0 -0.80381564575E+03  0.16050207511E+04 -0.15806066062E+04  0.23937554160E+04  0.97655231111E+02 0.  0.
         13    1    3    3    0    0 -0.64188661178E+03  0.12163934934E+04 -0.11705783987E+04  0.18060690299E+04  0.00000000000E+00 0.  1.
        -13    1    3    3    0    0 -0.16192903396E+03  0.38862725768E+03 -0.41002820749E+03  0.58768638609E+03  0.00000000000E+00 0. -1.
         22    1    1    2    0    0  0.80381564575E+03 -0.16050207511E+04  0.19475137126E+03  0.18055855838E+04  0.00000000000E+00 0. -1.
<mgrwt>
<rscale>  0 0.39640724E+04</rscale>
<asrwt>0</asrwt>
<pdfrwt beam="1">  1        1 0.21642198E+00 0.39640724E+04</pdfrwt>
<pdfrwt beam="2">  1       -1 0.42963048E+00 0.39640724E+04</pdfrwt>
<totfact> 0.26673773E-02</totfact>
</mgrwt>
</event>
<event>
 6    1  0.1014650E-006  0.2016994E+04  0.7818608E-02  0.8598716E-01
         -1   -1    0    0    0  501 -0.00000000000E+00  0.00000000000E+00  0.17435782206E+04  0.17435782206E+04  0.00000000000E+00 0.  1.
          1   -1    0    0  501    0  0.00000000000E+00 -0.00000000000E+00 -0.58332143528E+03  0.58332143528E+03  0.00000000000E+00 0. -1.
         23    2    1    2    0    0  0.84206936501E+03  0.37637428971E+03  0.10458853397E+04  0.13974808864E+04  0.91314087462E+02 0.  0.
         11    1    3    3    0    0  0.72360343416E+03  0.32252819764E+03  0.84652994273E+03  0.11594133483E+04  0.00000000000E+00 0.  1.
        -11    1    3    3    0    0  0.11846593085E+03  0.53846092063E+02  0.19935539700E+03  0.23806753814E+03  0.00000000000E+00 0. -1.
         22    1    1    2    0    0 -0.84206936501E+03 -0.37637428971E+03  0.11437144557E+03  0.92941876945E+03  0.00000000000E+00 0. -1.
<mgrwt>
<rscale>  0 0.20169943E+04</rscale>
<asrwt>0</asrwt>
<pdfrwt beam="1">  1        1 0.89741760E-01 0.20169943E+04</pdfrwt>
<pdfrwt beam="2">  1       -1 0.26824280E+00 0.20169943E+04</pdfrwt>
<totfact> 0.17529154E+00</totfact>
</mgrwt>
</event>
<event>
 6    1  0.1014650E-006  0.5024396E+04  0.7818608E-02  0.7824755E-01
         -2   -1    0    0    0  501 -0.00000000000E+00  0.00000000000E+00  0.21102958846E+04  0.21102958846E+04  0.00000000000E+00 0.  1.
          2   -1    0    0  501    0  0.00000000000E+00 -0.00000000000E+00 -0.29906416618E+04  0.29906416618E+04  0.00000000000E+00 0. -1.
         23    2    1    2    0    0 -0.14474337324E+04 -0.19998858738E+04 -0.90827716097E+03  0.26320535718E+04  0.90170317953E+02 0.  0.
         13    1    3    3    0    0 -0.50724194986E+03 -0.69638383446E+03 -0.36286253829E+03  0.93483370836E+03  0.00000000000E+00 0. -1.
        -13    1    3    3    0    0 -0.94019178249E+03 -0.13035020393E+04 -0.54541462268E+03  0.16972198635E+04  0.00000000000E+00 0.  1.
         22    1    1    2    0    0  0.14474337324E+04  0.19998858738E+04  0.27931383762E+02  0.24688839746E+04  0.00000000000E+00 0.  1.
<mgrwt>
<rscale>  0 0.50243960E+04</rscale>
<asrwt>0</asrwt>
<pdfrwt beam="1">  1        2 0.46009871E+00 0.50243960E+04</pdfrwt>
<pdfrwt beam="2">  1       -2 0.32466091E+00 0.50243960E+04</pdfrwt>
<totfact> 0.28718170E-02</totfact>
</mgrwt>
</event>
<event>
 6    1  0.1014650E-006  0.9060841E+03  0.7818608E-02  0.9418008E-01
         -2   -1    0    0    0  501 -0.00000000000E+00  0.00000000000E+00  0.33637628425E+03  0.33637628425E+03  0.00000000000E+00 0.  1.
          2   -1    0    0  501    0  0.00000000000E+00 -0.00000000000E+00 -0.61017113238E+03  0.61017113238E+03  0.00000000000E+00 0. -1.
         23    2    1    2    0    0 -0.91556375353E+02 -0.39073212294E+03 -0.34760495499E+03  0.53850073592E+03  0.89998200457E+02 0.  0.
         13    1    3    3    0    0 -0.59448554647E+01 -0.22181318556E+03 -0.18523631907E+03  0.28904830824E+03  0.00000000000E+00 0.  1.
        -13    1    3    3    0    0 -0.85611519888E+02 -0.16891893738E+03 -0.16236863592E+03  0.24945242768E+03  0.00000000000E+00 0. -1.
         22    1    1    2    0    0  0.91556375353E+02  0.39073212294E+03  0.73810106861E+02  0.40804668071E+03  0.00000000000E+00 0.  1.
<mgrwt>
<rscale>  0 0.90608410E+03</rscale>
<asrwt>0</asrwt>
<pdfrwt beam="1">  1        2 0.93872482E-01 0.90608410E+03</pdfrwt>
<pdfrwt beam="2">  1       -2 0.51750198E-01 0.90608410E+03</pdfrwt>
<totfact> 0.17191290E+02</totfact>
</mgrwt>
</event>
<event>
 6    1  0.1014650E-006  0.6063480E+03  0.7818608E-02  0.9892323E-01
         -3   -1    0    0    0  501 -0.00000000000E+00  0.00000000000E+00  0.87972347146E+03  0.87972347146E+03  0.00000000000E+00 0.  1.
          3   -1    0    0  501    0  0.00000000000E+00 -0.00000000000E+00 -0.10448109669E+03  0.10448109669E+03  0.00000000000E+00 0. -1.
         23    2    1    2    0    0 -0.87030270906E+01  0.23152067096E+03  0.69670557684E+03  0.73957098012E+03  0.88820099459E+02 0.  0.
         13    1    3    3    0    0 -0.36244878996E+02  0.11769767027E+03  0.44891490017E+03  0.46550082754E+03  0.00000000000E+00 0.  1.
        -13    1    3    3    0    0  0.27541851905E+02  0.11382300068E+03  0.24779067667E+03  0.27407015258E+03  0.00000000000E+00 0. -1.
         22    1    1    2    0    0  0.87030270906E+01 -0.23152067096E+03  0.78536797925E+02  0.24463358802E+03  0.00000000000E+00 0. -1.
<mgrwt>
<rscale>  0 0.60634800E+03</rscale>
<asrwt>0</asrwt>
<pdfrwt beam="1">  1        3 0.16074016E-01 0.60634800E+03</pdfrwt>
<pdfrwt beam="2">  1       -3 0.13534207E+00 0.60634800E+03</pdfrwt>
<totfact> 0.37507414E+01</totfact>
</mgrwt>
</event>
<event>
 6    1  0.1014650E-006  0.4700702E+04  0.7818608E-02  0.7876412E-01
         -1   -1    0    0    0  501 -0.00000000000E+00  0.00000000000E+00  0.18211317071E+04  0.18211317071E+04  0.00000000000E+00 0.  1.
          1   -1    0    0  501    0  0.00000000000E+00 -0.00000000000E+00 -0.30333615592E+04  0.30333615592E+04  0.00000000000E+00 0. -1.
         23    2    1    2    0    0 -0.79747563629E+03  0.15834826555E+04  0.98575493750E+03  0.20305736771E+04  0.90177328655E+02 0.  0.
         11    1    3    3    0    0 -0.56026109900E+03  0.11439919886E+04  0.75111454021E+03  0.14787776106E+04  0.00000000000E+00 0.  1.
        -11    1    3    3    0    0 -0.23721453729E+03  0.43949066693E+03  0.23464039729E+03  0.55179606655E+03  0.00000000000E+00 0. -1.
         22    1    1    2    0    0  0.79747563629E+03 -0.15834826555E+04 -0.21979847896E+04  0.28239195892E+04  0.00000000000E+00 0. -1.
<mgrwt>
<rscale>  0 0.47007025E+04</rscale>
<asrwt>0</asrwt>
<pdfrwt beam="1">  1        1 0.46667100E+00 0.47007025E+04</pdfrwt>
<pdfrwt beam="2">  1       -1 0.28017411E+00 0.47007025E+04</pdfrwt>
<totfact> 0.18540571E-02</totfact>
</mgrwt>
</event>
<event>
 6    1  0.1014650E-006  0.2323532E+04  0.7818608E-02  0.8468700E-01
          1   -1    0    0  501    0  0.00000000000E+00  0.00000000000E+00  0.16401400479E+04  0.16401400479E+04  0.00000000000E+00 0. -1.
         -1   -1    0    0    0  501 -0.00000000000E+00 -0.00000000000E+00 -0.82291795593E+03  0.82291795593E+03  0.00000000000E+00 0.  1.
         23    2    1    2    0    0 -0.27714238264E+03 -0.11168530842E+04  0.25745834138E+03  0.11834079859E+04  0.10000475851E+03 0.  0.
         13    1    3    3    0    0 -0.11867985646E+03 -0.33430911468E+03  0.48157580843E+02  0.35800369423E+03  0.00000000000E+00 0.  1.
        -13    1    3    3    0    0 -0.15846252618E+03 -0.78254396948E+03  0.20930076054E+03  0.82540429168E+03  0.00000000000E+00 0. -1.
         22    1    1    2    0    0  0.27714238264E+03  0.11168530842E+04  0.55976375054E+03  0.12796500179E+04  0.00000000000E+00 0. -1.
<mgrwt>
<rscale>  0 0.23235324E+04</rscale>
<asrwt>0</asrwt>
<pdfrwt beam="1">  1        1 0.25232924E+00 0.23235324E+04</pdfrwt>
<pdfrwt beam="2">  1       -1 0.12660276E+00 0.23235324E+04</pdfrwt>
<totfact> 0.25608816E+00</totfact>
</mgrwt>
</event>
<event>
 6    1  0.1014650E-006  0.2707630E+04  0.7818608E-02  0.8332534E-01
         -2   -1    0    0    0  501 -0.00000000000E+00  0.00000000000E+00  0.79412145918E+03  0.79412145918E+03  0.00000000000E+00 0.  1.
          2   -1    0    0  501    0  0.00000000000E+00 -0.00000000000E+00 -0.23079783160E+04  0.23079783160E+04  0.00000000000E+00 0. -1.
         23    2    1    2    0    0 -0.53332299714E+03 -0.12059099584E+04 -0.11011698904E+04  0.17204475833E+04  0.93340838799E+02 0.  0.
         13    1    3    3    0    0 -0.19259609754E+03 -0.48011312687E+03 -0.48680502393E+03  0.71033865353E+03  0.00000000000E+00 0. -1.
        -13    1    3    3    0    0 -0.34072689961E+03 -0.72579683154E+03 -0.61436486652E+03  0.10101089298E+04  0.00000000000E+00 0.  1.
         22    1    1    2    0    0  0.53332299714E+03  0.12059099584E+04 -0.41268696636E+03  0.13816521919E+04  0.00000000000E+00 0.  1.
<mgrwt>
<rscale>  0 0.27076300E+04</rscale>
<asrwt>0</asrwt>
<pdfrwt beam="1">  1        2 0.35507358E+00 0.27076300E+04</pdfrwt>
<pdfrwt beam="2">  1       -2 0.12217254E+00 0.27076300E+04</pdfrwt>
<totfact> 0.19970806E+00</totfact>
</mgrwt>
</event>
<event>
 6    1  0.1014650E-006  0.2403801E+04  0.7818608E-02  0.8438082E-01
          2   -1    0    0  501    0  0.00000000000E+00  0.00000000000E+00  0.16545545577E+04  0.16545545577E+04  0.00000000000E+00 0. -1.
         -2   -1    0    0    0  501 -0.00000000000E+00 -0.00000000000E+00 -0.87308348016E+03  0.87308348016E+03  0.00000000000E+00 0.  1.
         23    2    1    2    0    0 -0.46617705285E+03  0.48810934649E+03  0.14348405179E+04  0.15882428046E+04  0.90421876719E+02 0.  0.
         11    1    3    3    0    0 -0.28452725657E+03  0.27210429378E+03  0.73862647757E+03  0.83699795686E+03  0.00000000000E+00 0. -1.
        -11    1    3    3    0    0 -0.18164979628E+03  0.21600505271E+03  0.69621404032E+03  0.75124484772E+03  0.00000000000E+00 0.  1.
         22    1    1    2    0    0  0.46617705285E+03 -0.48810934649E+03 -0.65336944035E+03  0.93939523328E+03  0.00000000000E+00 0.  1.
<mgrwt>
<rscale>  0 0.24038005E+04</rscale>
<asrwt>0</asrwt>
<pdfrwt beam="1">  1        2 0.25454685E+00 0.24038005E+04</pdfrwt>
<pdfrwt beam="2">  1       -2 0.13432054E+00 0.24038005E+04</pdfrwt>
<totfact> 0.37353008E+00</totfact>
</mgrwt>
</event>
<event>
 6    1  0.1014650E-006  0.4311906E+04  0.7818608E-02  0.7944420E-01
         -2   -1    0    0    0  501 -0.00000000000E+00  0.00000000000E+00  0.15430438402E+04  0.15430438402E+04  0.00000000000E+00 0.  1.
          2   -1    0    0  501    0  0.00000000000E+00 -0.00000000000E+00 -0.30123149885E+04  0.30123149885E+04  0.00000000000E+00 0. -1.
         23    2    1    2    0    0  0.18475805134E+04  0.51043471226E+03  0.30528011210E+03  0.19432467475E+04  0.94417297771E+02 0.  0.
         13    1    3    3    0    0  0.83508777741E+03  0.22093369506E+03  0.91003206150E+02  0.86859937665E+03  0.00000000000E+00 0. -1.
        -13    1    3    3    0    0  0.10124927359E+04  0.28950101720E+03  0.21427690595E+03  0.10746473709E+04  0.00000000000E+00 0.  1.
         22    1    1    2    0    0 -0.18475805134E+04 -0.51043471226E+03 -0.17745512604E+04  0.26121120812E+04  0.00000000000E+00 0. -1.
<mgrwt>
<rscale>  0 0.43119063E+04</rscale>
<asrwt>0</asrwt>
<pdfrwt beam="1">  1        2 0.46343307E+00 0.43119063E+04</pdfrwt>
<pdfrwt beam="2">  1       -2 0.23739136E+00 0.43119063E+04</pdfrwt>
<totfact> 0.10111152E-01</totfact>
</mgrwt>
</event>
<event>
 6    1  0.1014650E-006  0.1184618E+04  0.7818608E-02  0.9126428E-01
          2   -1    0    0  501    0  0.00000000000E+00  0.00000000000E+00  0.14500262427E+04  0.14500262427E+04  0.00000000000E+00 0. -1.
         -2   -1    0    0    0  501 -0.00000000000E+00 -0.00000000000E+00 -0.24194724282E+03  0.24194724282E+03  0.00000000000E+00 0.  1.
         23    2    1    2    0    0 -0.48952067071E+03  0.28496877755E+03  0.83794481706E+03  0.10153369475E+04  0.88993872510E+02 0.  0.
         13    1    3    3    0    0 -0.23222814890E+03  0.87573109435E+02  0.39150423295E+03  0.46354560407E+03  0.00000000000E+00 0. -1.
        -13    1    3    3    0    0 -0.25729252182E+03  0.19739566811E+03  0.44644058410E+03  0.55179134345E+03  0.00000000000E+00 0.  1.
         22    1    1    2    0    0  0.48952067071E+03 -0.28496877755E+03  0.37013418278E+03  0.67663653796E+03  0.00000000000E+00 0.  1.
<mgrwt>
<rscale>  0 0.11846178E+04</rscale>
<asrwt>0</asrwt>
<pdfrwt beam="1">  1        2 0.22308095E+00 0.11846178E+04</pdfrwt>
<pdfrwt beam="2">  1       -2 0.37222654E-01 0.11846178E+04</pdfrwt>
<totfact> 0.91004936E+01</totfact>
</mgrwt>
</event>
<event>
 6    1  0.1014650E-006  0.5623637E+04  0.7818608E-02  0.7738902E-01
         -2   -1    0    0    0  501 -0.00000000000E+00  0.00000000000E+00  0.22442752286E+04  0.22442752286E+04  0.00000000000E+00 0.  1.
          2   -1    0    0  501    0  0.00000000000E+00 -0.00000000000E+00 -0.35228847317E+04  0.35228847317E+04  0.00000000000E+00 0. -1.
         23    2    1    2    0    0  0.38603681119E+03 -0.27461307212E+04 -0.11116173221E+04  0.29890050428E+04  0.90552292255E+02 0.  0.
         11    1    3    3    0    0  0.21114757281E+03 -0.16332814106E+04 -0.70368098800E+03  0.17909099354E+04  0.00000000000E+00 0. -1.
        -11    1    3    3    0    0  0.17488923838E+03 -0.11128493106E+04 -0.40793633410E+03  0.11980951074E+04  0.00000000000E+00 0.  1.
         22    1    1    2    0    0 -0.38603681119E+03  0.27461307212E+04 -0.16699218097E+03  0.27781549176E+04  0.00000000000E+00 0.  1.
<mgrwt>
<rscale>  0 0.56236369E+04</rscale>
<asrwt>0</asrwt>
<pdfrwt beam="1">  1        2 0.54198226E+00 0.56236369E+04</pdfrwt>
<pdfrwt beam="2">  1       -2 0.34527311E+00 0.56236369E+04</pdfrwt>
<totfact> 0.90272262E-03</totfact>
</mgrwt>
</event>
<event>
 6    1  0.1014650E-006  0.4163235E+03  0.7818608E-02  0.1038270E+00
          1   -1    0    0  501    0  0.00000000000E+00  0.00000000000E+00  0.92886450778E+02  0.92886450778E+02  0.00000000000E+00 0. -1.
         -1   -1    0    0    0  501 -0.00000000000E+00 -0.00000000000E+00 -0.46649769900E+03  0.46649769900E+03  0.00000000000E+00 0.  1.
         23    2    1    2    0    0  0.70566934933E+02  0.19730942138E+02 -0.44391113490E+03  0.45784067903E+03  0.84805597159E+02 0.  0.
         13    1    3    3    0    0 -0.11247812645E+02  0.75575215818E+01 -0.19654360254E+03  0.19701019547E+03  0.00000000000E+00 0. -1.
        -13    1    3    3    0    0  0.81814747578E+02  0.12173420556E+02 -0.24736753236E+03  0.26083048356E+03  0.00000000000E+00 0.  1.
         22    1    1    2    0    0 -0.70566934933E+02 -0.19730942138E+02  0.70299886678E+02  0.10154347074E+03  0.00000000000E+00 0. -1.
<mgrwt>
<rscale>  0 0.41632351E+03</rscale>
<asrwt>0</asrwt>
<pdfrwt beam="1">  1        1 0.14290223E-01 0.41632351E+03</pdfrwt>
<pdfrwt beam="2">  1       -1 0.71768878E-01 0.41632351E+03</pdfrwt>
<totfact> 0.81254153E+02</totfact>
</mgrwt>
</event>
<event>
 6    1  0.1014650E-006  0.1312557E+04  0.7818608E-02  0.9019666E-01
         -1   -1    0    0    0  501 -0.00000000000E+00  0.00000000000E+00  0.43371125112E+03  0.43371125112E+03  0.00000000000E+00 0.  1.
          1   -1    0    0  501    0  0.00000000000E+00 -0.00000000000E+00 -0.99306064352E+03  0.99306064352E+03  0.00000000000E+00 0. -1.
         23    2    1    2    0    0  0.64389319056E+03 -0.48845217994E+02 -0.17638571662E+03  0.67600863426E+03  0.94294519495E+02 0.  0.
         11    1    3    3    0    0  0.37756312878E+03 -0.24071544152E+02 -0.15091483102E+03  0.40731884522E+03  0.00000000000E+00 0. -1.
        -11    1    3    3    0    0  0.26633006178E+03 -0.24773673842E+02 -0.25470885596E+02  0.26868978905E+03  0.00000000000E+00 0.  1.
         22    1    1    2    0    0 -0.64389319056E+03  0.48845217994E+02 -0.38296367578E+03  0.75076326038E+03  0.00000000000E+00 0. -1.
<mgrwt>
<rscale>  0 0.13125572E+04</rscale>
<asrwt>0</asrwt>
<pdfrwt beam="1">  1        1 0.15277856E+00 0.13125572E+04</pdfrwt>
<pdfrwt beam="2">  1       -1 0.66724808E-01 0.13125572E+04</pdfrwt>
<totfact> 0.34230177E+01</totfact>
</mgrwt>
</event>
<event>
 6    1  0.1014650E-006  0.2422239E+04  0.7818608E-02  0.8431224E-01
          1   -1    0    0  501    0  0.00000000000E+00  0.00000000000E+00  0.25853296879E+04  0.25853296879E+04  0.00000000000E+00 0. -1.
         -1   -1    0    0    0  501 -0.00000000000E+00 -0.00000000000E+00 -0.56735922918E+03  0.56735922918E+03  0.00000000000E+00 0.  1.
         23    2    1    2    0    0 -0.61343786008E+03 -0.10393456722E+04  0.11126349123E+04  0.16439881892E+04  0.90527806260E+02 0.  0.
         13    1    3    3    0    0 -0.38050204111E+03 -0.72226128293E+03  0.77179774977E+03  0.11234388860E+04  0.00000000000E+00 0. -1.
        -13    1    3    3    0    0 -0.23293581897E+03 -0.31708438930E+03  0.34083716253E+03  0.52054930320E+03  0.00000000000E+00 0.  1.
         22    1    1    2    0    0  0.61343786008E+03  0.10393456722E+04  0.90533554642E+03  0.15087007278E+04  0.00000000000E+00 0.  1.
<mgrwt>
<rscale>  0 0.24222392E+04</rscale>
<asrwt>0</asrwt>
<pdfrwt beam="1">  1        1 0.39774302E+00 0.24222392E+04</pdfrwt>
<pdfrwt beam="2">  1       -1 0.87286037E-01 0.24222392E+04</pdfrwt>
<totfact> 0.13650487E+00</totfact>
</mgrwt>
</event>
<event>
 6    1  0.1014650E-006  0.1681490E+04  0.7818608E-02  0.8771992E-01
         -1   -1    0    0    0  501 -0.00000000000E+00  0.00000000000E+00  0.69286863310E+03  0.69286863310E+03  0.00000000000E+00 0.  1.
          1   -1    0    0  501    0  0.00000000000E+00 -0.00000000000E+00 -0.10201821766E+04  0.10201821766E+04  0.00000000000E+00 0. -1.
         23    2    1    2    0    0 -0.81615894824E+02 -0.78809464557E+03  0.11522135795E+03  0.80553140845E+03  0.88603408554E+02 0.  0.
         11    1    3    3    0    0 -0.49243263058E+02 -0.15445098165E+03  0.10234711189E+02  0.16243384500E+03  0.00000000000E+00 0.  1.
        -11    1    3    3    0    0 -0.32372631767E+02 -0.63364366392E+03  0.10498664676E+03  0.64309756345E+03  0.00000000000E+00 0. -1.
         22    1    1    2    0    0  0.81615894824E+02  0.78809464557E+03 -0.44253490146E+03  0.90751940127E+03  0.00000000000E+00 0. -1.
<mgrwt>
<rscale>  0 0.16814901E+04</rscale>
<asrwt>0</asrwt>
<pdfrwt beam="1">  1        1 0.15695110E+00 0.16814901E+04</pdfrwt>
<pdfrwt beam="2">  1       -1 0.10659517E+00 0.16814901E+04</pdfrwt>
<totfact> 0.11432830E+01</totfact>
</mgrwt>
</event>
<event>
 6    1  0.1014650E-006  0.1860539E+04  0.7818608E-02  0.8674752E-01
         -2   -1    0    0    0  501 -0.00000000000E+00  0.00000000000E+00  0.62123625669E+03  0.62123625669E+03  0.00000000000E+00 0.  1.
          2   -1    0    0  501    0  0.00000000000E+00 -0.00000000000E+00 -0.13930315608E+04  0.13930315608E+04  0.00000000000E+00 0. -1.
         23    2    1    2    0    0  0.36283553078E+03  0.65354314985E+03 -0.98229487606E+03  0.12376866299E+04  0.90535624034E+02 0.  0.
         11    1    3    3    0    0  0.40452107651E+02  0.13057364542E+03 -0.21454361630E+03  0.25439106349E+03  0.00000000000E+00 0.  1.
        -11    1    3    3    0    0  0.32238342313E+03  0.52296950443E+03 -0.76775125977E+03  0.98329556642E+03  0.00000000000E+00 0. -1.
         22    1    1    2    0    0 -0.36283553078E+03 -0.65354314985E+03  0.21049957195E+03  0.77658118758E+03  0.00000000000E+00 0.  1.
<mgrwt>
<rscale>  0 0.18605394E+04</rscale>
<asrwt>0</asrwt>
<pdfrwt beam="1">  1        2 0.21431255E+00 0.18605394E+04</pdfrwt>
<pdfrwt beam="2">  1       -2 0.95574809E-01 0.18605394E+04</pdfrwt>
<totfact> 0.12610324E+01</totfact>
</mgrwt>
</event>
<event>
 6    1  0.1014650E-006  0.7286550E+04  0.7818608E-02  0.7548584E-01
         -1   -1    0    0    0  501 -0.00000000000E+00  0.00000000000E+00  0.28856081228E+04  0.28856081228E+04  0.00000000000E+00 0.  1.
          1   -1    0    0  501    0  0.00000000000E+00 -0.00000000000E+00 -0.45998799974E+04  0.45998799974E+04  0.00000000000E+00 0. -1.
         23    2    1    2    0    0  0.11106188885E+04 -0.33078475636E+04 -0.19309324869E+04  0.39894515586E+04  0.10905801076E+03 0.  0.
         13    1    3    3    0    0  0.10018449219E+04 -0.28846705538E+04 -0.17090061842E+04  0.34993884594E+04  0.00000000000E+00 0.  1.
        -13    1    3    3    0    0  0.10877396662E+03 -0.42317700973E+03 -0.22192630268E+03  0.49006309920E+03  0.00000000000E+00 0. -1.
         22    1    1    2    0    0 -0.11106188885E+04  0.33078475636E+04  0.21666061232E+03  0.34960365616E+04  0.00000000000E+00 0.  1.
<mgrwt>
<rscale>  0 0.72865495E+04</rscale>
<asrwt>0</asrwt>
<pdfrwt beam="1">  1        1 0.70767385E+00 0.72865495E+04</pdfrwt>
<pdfrwt beam="2">  1       -1 0.44393971E+00 0.72865495E+04</pdfrwt>
<totfact> 0.54390651E-05</totfact>
</mgrwt>
</event>
<event>
 6    1  0.1014650E-006  0.1722755E+04  0.7818608E-02  0.8748492E-01
         -1   -1    0    0    0  501 -0.00000000000E+00  0.00000000000E+00  0.89548846500E+03  0.89548846500E+03  0.00000000000E+00 0.  1.
          1   -1    0    0  501    0  0.00000000000E+00 -0.00000000000E+00 -0.82856616579E+03  0.82856616579E+03  0.00000000000E+00 0. -1.
         23    2    1    2    0    0 -0.28672372944E+03 -0.74400650007E+03 -0.28614547850E+03  0.85203798827E+03  0.91287071561E+02 0.  0.
         11    1    3    3    0    0 -0.11994220652E+03 -0.19850851761E+03 -0.74188869725E+02  0.24350719262E+03  0.00000000000E+00 0. -1.
        -11    1    3    3    0    0 -0.16678152291E+03 -0.54549798246E+03 -0.21195660877E+03  0.60853079565E+03  0.00000000000E+00 0.  1.
         22    1    1    2    0    0  0.28672372944E+03  0.74400650007E+03  0.35306777770E+03  0.87201664251E+03  0.00000000000E+00 0. -1.
<mgrwt>
<rscale>  0 0.17227553E+04</rscale>
<asrwt>0</asrwt>
<pdfrwt beam="1">  1        1 0.12747172E+00 0.17227553E+04</pdfrwt>
<pdfrwt beam="2">  1       -1 0.13776746E+00 0.17227553E+04</pdfrwt>
<totfact> 0.86729808E+00</totfact>
</mgrwt>
</event>
<event>
 6    1  0.1014650E-006  0.3828747E+04  0.7818608E-02  0.8040014E-01
          2   -1    0    0  501    0  0.00000000000E+00  0.00000000000E+00  0.27945327144E+04  0.27945327144E+04  0.00000000000E+00 0. -1.
         -2   -1    0    0    0  501 -0.00000000000E+00 -0.00000000000E+00 -0.13114267449E+04  0.13114267449E+04  0.00000000000E+00 0.  1.
         23    2    1    2    0    0  0.15090897039E+04 -0.11655290814E+04  0.56779214662E+03  0.19908686414E+04  0.73213738497E+02 0.  0.
         13    1    3    3    0    0  0.37071096476E+03 -0.27498013574E+03  0.16899035443E+03  0.49152663645E+03  0.00000000000E+00 0. -1.
        -13    1    3    3    0    0  0.11383787391E+04 -0.89054894563E+03  0.39880179219E+03  0.14993420049E+04  0.00000000000E+00 0.  1.
         22    1    1    2    0    0 -0.15090897039E+04  0.11655290814E+04  0.91531382283E+03  0.21150908179E+04  0.00000000000E+00 0.  1.
<mgrwt>
<rscale>  0 0.38287465E+04</rscale>
<asrwt>0</asrwt>
<pdfrwt beam="1">  1        2 0.42992811E+00 0.38287465E+04</pdfrwt>
<pdfrwt beam="2">  1       -2 0.20175796E+00 0.38287465E+04</pdfrwt>
<totfact> 0.24132830E-01</totfact>
</mgrwt>
</event>
<event>
 6    1  0.1014650E-006  0.1222048E+04  0.7818608E-02  0.9093774E-01
          1   -1    0    0  501    0  0.00000000000E+00  0.00000000000E+00  0.10915151029E+04  0.10915151029E+04  0.00000000000E+00 0. -1.
         -1   -1    0    0    0  501 -0.00000000000E+00 -0.00000000000E+00 -0.34204764073E+03  0.34204764073E+03  0.00000000000E+00 0.  1.
         23    2    1    2    0    0 -0.53868993696E+03 -0.68916263672E+02  0.57005886769E+02  0.55354039561E+03  0.90669724109E+02 0.  0.
         11    1    3    3    0    0 -0.20171229979E+03 -0.39015608909E+02 -0.20508701866E+02  0.20647197505E+03  0.00000000000E+00 0.  1.
        -11    1    3    3    0    0 -0.33697763716E+03 -0.29900654763E+02  0.77514588635E+02  0.34706842057E+03  0.00000000000E+00 0. -1.
         22    1    1    2    0    0  0.53868993696E+03  0.68916263672E+02  0.69246157538E+03  0.88002234798E+03  0.00000000000E+00 0. -1.
<mgrwt>
<rscale>  0 0.12220477E+04</rscale>
<asrwt>0</asrwt>
<pdfrwt beam="1">  1        1 0.16792540E+00 0.12220477E+04</pdfrwt>
<pdfrwt beam="2">  1       -1 0.52622714E-01 0.12220477E+04</pdfrwt>
<totfact> 0.46263314E+01</totfact>
</mgrwt>
</event>
<event>
 6    1  0.1014650E-006  0.1119480E+04  0.7818608E-02  0.9186410E-01
         -1   -1    0    0    0  501 -0.00000000000E+00  0.00000000000E+00  0.74572188766E+03  0.74572188766E+03  0.00000000000E+00 0.  1.
          1   -1    0    0  501    0  0.00000000000E+00 -0.00000000000E+00 -0.42014190695E+03  0.42014190695E+03  0.00000000000E+00 0. -1.
         23    2    1    2    0    0  0.24091792237E+03  0.31094561951E+03  0.57310679873E+03  0.70110778415E+03  0.91499172857E+02 0.  0.
         11    1    3    3    0    0  0.18242092910E+03  0.16593170909E+03  0.32774879500E+03  0.41015850604E+03  0.00000000000E+00 0. -1.
        -11    1    3    3    0    0  0.58496993273E+02  0.14501391042E+03  0.24535800373E+03  0.29094927811E+03  0.00000000000E+00 0.  1.
         22    1    1    2    0    0 -0.24091792237E+03 -0.31094561951E+03 -0.24752681802E+03  0.46475601045E+03  0.00000000000E+00 0. -1.
<mgrwt>
<rscale>  0 0.11194803E+04</rscale>
<asrwt>0</asrwt>
<pdfrwt beam="1">  1        1 0.64637217E-01 0.11194803E+04</pdfrwt>
<pdfrwt beam="2">  1       -1 0.11472644E+00 0.11194803E+04</pdfrwt>
<totfact> 0.38612534E+01</totfact>
</mgrwt>
</event>
<event>
 6    1  0.1014650E-006  0.3167404E+04  0.7818608E-02  0.8197479E-01
         -2   -1    0    0    0  501 -0.00000000000E+00  0.00000000000E+00  0.91227649652E+03  0.91227649652E+03  0.00000000000E+00 0.  1.
          2   -1    0    0  501    0  0.00000000000E+00 -0.00000000000E+00 -0.27492884813E+04  0.27492884813E+04  0.00000000000E+00 0. -1.
         23    2    1    2    0    0  0.38671083532E+03 -0.13135522183E+04 -0.18359789636E+04  0.22922710841E+04  0.93398436412E+02 0.  0.
         13    1    3    3    0    0  0.15342767615E+03 -0.49898485279E+03 -0.62587394742E+03  0.81501173806E+03  0.00000000000E+00 0.  1.
        -13    1    3    3    0    0  0.23328315917E+03 -0.81456736548E+03 -0.12101050161E+04  0.14772593460E+04  0.00000000000E+00 0. -1.
         22    1    1    2    0    0 -0.38671083532E+03  0.13135522183E+04 -0.10330211970E+01  0.13692938937E+04  0.00000000000E+00 0.  1.
<mgrwt>
<rscale>  0 0.31674035E+04</rscale>
<asrwt>0</asrwt>
<pdfrwt beam="1">  1        2 0.42296746E+00 0.31674035E+04</pdfrwt>
<pdfrwt beam="2">  1       -2 0.14035023E+00 0.31674035E+04</pdfrwt>
<totfact> 0.74720707E-01</totfact>
</mgrwt>
</event>
<event>
 6    1  0.1014650E-006  0.2698071E+04  0.7818608E-02  0.8335631E-01
         -1   -1    0    0    0  501 -0.00000000000E+00  0.00000000000E+00  0.27981487326E+04  0.27981487326E+04  0.00000000000E+00 0.  1.
          1   -1    0    0  501    0  0.00000000000E+00 -0.00000000000E+00 -0.65039318631E+03  0.65039318631E+03  0.00000000000E+00 0. -1.
         23    2    1    2    0    0 -0.13393522426E+03 -0.41665384669E+03  0.27040608762E+04  0.27407180055E+04  0.89726758199E+02 0.  0.
         13    1    3    3    0    0 -0.36477982033E+02 -0.13652071081E+03  0.63697993648E+03  0.65246608121E+03  0.00000000000E+00 0.  1.
        -13    1    3    3    0    0 -0.97457242224E+02 -0.28013313588E+03  0.20670809398E+04  0.20882519243E+04  0.00000000000E+00 0. -1.
         22    1    1    2    0    0  0.13393522426E+03  0.41665384669E+03 -0.55630532995E+03  0.70782391340E+03  0.00000000000E+00 0. -1.
<mgrwt>
<rscale>  0 0.26980711E+04</rscale>
<asrwt>0</asrwt>
<pdfrwt beam="1">  1        1 0.10006049E+00 0.26980711E+04</pdfrwt>
<pdfrwt beam="2">  1       -1 0.43048441E+00 0.26980711E+04</pdfrwt>
<totfact> 0.11720068E-01</totfact>
</mgrwt>
</event>
<event>
 6    1  0.1014650E-006  0.1685571E+04  0.7818608E-02  0.8769637E-01
         -1   -1    0    0    0  501 -0.00000000000E+00  0.00000000000E+00  0.11469253558E+04  0.11469253558E+04  0.00000000000E+00 0.  1.
          1   -1    0    0  501    0  0.00000000000E+00 -0.00000000000E+00 -0.61929696615E+03  0.61929696615E+03  0.00000000000E+00 0. -1.
         23    2    1    2    0    0 -0.70991730343E+03  0.42021392021E+03  0.10777762595E+03  0.84056742932E+03  0.11989691455E+03 0.  0.
         13    1    3    3    0    0 -0.12048192617E+03  0.26992799659E+02 -0.24048200646E+01  0.12349206017E+03  0.00000000000E+00 0.  1.
        -13    1    3    3    0    0 -0.58943537726E+03  0.39322112056E+03  0.11018244602E+03  0.71707536914E+03  0.00000000000E+00 0. -1.
         22    1    1    2    0    0  0.70991730343E+03 -0.42021392021E+03  0.41985076367E+03  0.92565489260E+03  0.00000000000E+00 0. -1.
<mgrwt>
<rscale>  0 0.16855710E+04</rscale>
<asrwt>0</asrwt>
<pdfrwt beam="1">  1        1 0.95276456E-01 0.16855710E+04</pdfrwt>
<pdfrwt beam="2">  1       -1 0.17645005E+00 0.16855710E+04</pdfrwt>
<totfact> 0.68786745E+00</totfact>
</mgrwt>
</event>
<event>
 6    1  0.1014650E-006  0.2505544E+04  0.7818608E-02  0.8401013E-01
         -1   -1    0    0    0  501 -0.00000000000E+00  0.00000000000E+00  0.12769582849E+04  0.12769582849E+04  0.00000000000E+00 0.  1.
          1   -1    0    0  501    0  0.00000000000E+00 -0.00000000000E+00 -0.12290439944E+04  0.12290439944E+04  0.00000000000E+00 0. -1.
         23    2    1    2    0    0 -0.10960338433E+03 -0.46392966828E+03 -0.11329126925E+04  0.12325832584E+04  0.92340028882E+02 0.  0.
         11    1    3    3    0    0 -0.96935057657E+01 -0.16689152308E+03 -0.31352683072E+03  0.35531087531E+03  0.00000000000E+00 0. -1.
        -11    1    3    3    0    0 -0.99909878568E+02 -0.29703814520E+03 -0.81938586182E+03  0.87727238307E+03  0.00000000000E+00 0.  1.
         22    1    1    2    0    0  0.10960338433E+03  0.46392966828E+03  0.11808269831E+04  0.12734190209E+04  0.00000000000E+00 0.  1.
<mgrwt>
<rscale>  0 0.25055442E+04</rscale>
<asrwt>0</asrwt>
<pdfrwt beam="1">  1        1 0.18908369E+00 0.25055442E+04</pdfrwt>
<pdfrwt beam="2">  1       -1 0.19645512E+00 0.25055442E+04</pdfrwt>
<totfact> 0.14392395E+00</totfact>
</mgrwt>
</event>
<event>
 6    1  0.1014650E-006  0.3634564E+04  0.7818608E-02  0.8082620E-01
          1   -1    0    0  501    0  0.00000000000E+00  0.00000000000E+00  0.14066568754E+04  0.14066568754E+04  0.00000000000E+00 0. -1.
         -1   -1    0    0    0  501 -0.00000000000E+00 -0.00000000000E+00 -0.23477749589E+04  0.23477749589E+04  0.00000000000E+00 0.  1.
         23    2    1    2    0    0  0.95753468951E+03 -0.25040994113E+03  0.11021390723E+04  0.14840843664E+04  0.90653470191E+02 0.  0.
         13    1    3    3    0    0  0.55028365416E+03 -0.10197510009E+03  0.59205435768E+03  0.81470202131E+03  0.00000000000E+00 0.  1.
        -13    1    3    3    0    0  0.40725103535E+03 -0.14843484104E+03  0.51008471461E+03  0.66938234508E+03  0.00000000000E+00 0. -1.
         22    1    1    2    0    0 -0.95753468951E+03  0.25040994113E+03 -0.20432571558E+04  0.22703474679E+04  0.00000000000E+00 0.  1.
<mgrwt>
<rscale>  0 0.36345640E+04</rscale>
<asrwt>0</asrwt>
<pdfrwt beam="1">  1        1 0.21640875E+00 0.36345640E+04</pdfrwt>
<pdfrwt beam="2">  1       -1 0.36119614E+00 0.36345640E+04</pdfrwt>
<totfact> 0.80204861E-02</totfact>
</mgrwt>
</event>
<event>
 6    1  0.1014650E-006  0.1674622E+04  0.7818608E-02  0.8775972E-01
          1   -1    0    0  501    0  0.00000000000E+00  0.00000000000E+00  0.77035819056E+03  0.77035819056E+03  0.00000000000E+00 0. -1.
         -1   -1    0    0    0  501 -0.00000000000E+00 -0.00000000000E+00 -0.91008256789E+03  0.91008256789E+03  0.00000000000E+00 0.  1.
         23    2    1    2    0    0 -0.80301889672E+03 -0.20852011987E+03  0.22429055546E+02  0.83509247243E+03  0.92500735644E+02 0.  0.
         11    1    3    3    0    0 -0.16288002777E+03 -0.45937870767E+01  0.60255587047E+01  0.16305616727E+03  0.00000000000E+00 0.  1.
        -11    1    3    3    0    0 -0.64013886895E+03 -0.20392633279E+03  0.16403496841E+02  0.67203630516E+03  0.00000000000E+00 0. -1.
         22    1    1    2    0    0  0.80301889672E+03  0.20852011987E+03 -0.16215343288E+03  0.84534828602E+03  0.00000000000E+00 0.  1.
<mgrwt>
<rscale>  0 0.16746218E+04</rscale>
<asrwt>0</asrwt>
<pdfrwt beam="1">  1        1 0.11851664E+00 0.16746218E+04</pdfrwt>
<pdfrwt beam="2">  1       -1 0.14001270E+00 0.16746218E+04</pdfrwt>
<totfact> 0.93856432E+00</totfact>
</mgrwt>
</event>
<event>
 6    1  0.1014650E-006  0.5760239E+03  0.7818608E-02  0.9956437E-01
          2   -1    0    0  501    0  0.00000000000E+00  0.00000000000E+00  0.13488237588E+04  0.13488237588E+04  0.00000000000E+00 0. -1.
         -2   -1    0    0    0  501 -0.00000000000E+00 -0.00000000000E+00 -0.61498677585E+02  0.61498677585E+02  0.00000000000E+00 0.  1.
         23    2    1    2    0    0  0.23353607277E+03 -0.14831249866E+03  0.74810306823E+03  0.80427287255E+03  0.10325191659E+03 0.  0.
         11    1    3    3    0    0  0.13516657019E+03 -0.84751126419E+02  0.28526602922E+03  0.32684776664E+03  0.00000000000E+00 0.  1.
        -11    1    3    3    0    0  0.98369502579E+02 -0.63561372239E+02  0.46283703901E+03  0.47742510591E+03  0.00000000000E+00 0. -1.
         22    1    1    2    0    0 -0.23353607277E+03  0.14831249866E+03  0.53922201299E+03  0.60604956384E+03  0.00000000000E+00 0. -1.
<mgrwt>
<rscale>  0 0.57602388E+03</rscale>
<asrwt>0</asrwt>
<pdfrwt beam="1">  1        2 0.20751132E+00 0.57602388E+03</pdfrwt>
<pdfrwt beam="2">  1       -2 0.94613361E-02 0.57602388E+03</pdfrwt>
<totfact> 0.11808875E+03</totfact>
</mgrwt>
</event>
<event>
 6    1  0.1014650E-006  0.4744562E+03  0.7818608E-02  0.1020670E+00
          2   -1    0    0  501    0  0.00000000000E+00  0.00000000000E+00  0.24091487900E+03  0.24091487900E+03  0.00000000000E+00 0. -1.
         -2   -1    0    0    0  501 -0.00000000000E+00 -0.00000000000E+00 -0.23359778742E+03  0.23359778742E+03  0.00000000000E+00 0.  1.
         23    2    1    2    0    0  0.21493198175E+03  0.71852110755E+02 -0.26155309508E+02  0.24542996470E+03  0.90516765057E+02 0.  0.
         11    1    3    3    0    0  0.14177779451E+03  0.57856380003E+00 -0.11422666744E+02  0.14223837410E+03  0.00000000000E+00 0. -1.
        -11    1    3    3    0    0  0.73154187241E+02  0.71273546955E+02 -0.14732642764E+02  0.10319159059E+03  0.00000000000E+00 0.  1.
         22    1    1    2    0    0 -0.21493198175E+03 -0.71852110755E+02  0.33472401089E+02  0.22908270173E+03  0.00000000000E+00 0. -1.
<mgrwt>
<rscale>  0 0.47445625E+03</rscale>
<asrwt>0</asrwt>
<pdfrwt beam="1">  1        2 0.37063828E-01 0.47445625E+03</pdfrwt>
<pdfrwt beam="2">  1       -2 0.35938121E-01 0.47445625E+03</pdfrwt>
<totfact> 0.10220051E+03</totfact>
</mgrwt>
</event>
<event>
 6    1  0.1014650E-006  0.1552919E+04  0.7818608E-02  0.8850005E-01
          1   -1    0    0  501    0  0.00000000000E+00  0.00000000000E+00  0.13490438018E+04  0.13490438018E+04  0.00000000000E+00 0. -1.
         -1   -1    0    0    0  501 -0.00000000000E+00 -0.00000000000E+00 -0.44690134409E+03  0.44690134409E+03  0.00000000000E+00 0.  1.
         23    2    1    2    0    0 -0.93537988460E+02  0.67089534204E+03  0.20013555367E+02  0.68373953738E+03  0.90825642453E+02 0.  0.
         11    1    3    3    0    0 -0.72218703268E+02  0.63870675335E+03  0.31229501426E+02  0.64353487834E+03  0.00000000000E+00 0. -1.
        -11    1    3    3    0    0 -0.21319285192E+02  0.32188588683E+02 -0.11215946059E+02  0.40204659040E+02  0.00000000000E+00 0.  1.
         22    1    1    2    0    0  0.93537988460E+02 -0.67089534204E+03  0.88212890235E+03  0.11122056085E+04  0.00000000000E+00 0. -1.
<mgrwt>
<rscale>  0 0.15529192E+04</rscale>
<asrwt>0</asrwt>
<pdfrwt beam="1">  1        1 0.20754520E+00 0.15529192E+04</pdfrwt>
<pdfrwt beam="2">  1       -1 0.68754054E-01 0.15529192E+04</pdfrwt>
<totfact> 0.17209930E+01</totfact>
</mgrwt>
</event>
<event>
 6    1  0.1014650E-006  0.1200640E+04  0.7818608E-02  0.9112296E-01
         -1   -1    0    0    0  501 -0.00000000000E+00  0.00000000000E+00  0.29562542464E+03  0.29562542464E+03  0.00000000000E+00 0.  1.
          1   -1    0    0  501    0  0.00000000000E+00 -0.00000000000E+00 -0.12190573593E+04  0.12190573593E+04  0.00000000000E+00 0. -1.
         23    2    1    2    0    0 -0.31096923052E+03  0.46733847278E+02  0.17548161193E+03  0.37166183150E+03  0.91939143218E+02 0.  0.
         11    1    3    3    0    0 -0.25028230444E+03  0.28089282856E+01  0.11535055831E+03  0.27559911701E+03  0.00000000000E+00 0. -1.
        -11    1    3    3    0    0 -0.60686926080E+02  0.43924918992E+02  0.60131053622E+02  0.96062714490E+02  0.00000000000E+00 0.  1.
         22    1    1    2    0    0  0.31096923052E+03 -0.46733847278E+02 -0.10989135466E+04  0.11430209524E+04  0.00000000000E+00 0. -1.
<mgrwt>
<rscale>  0 0.12006404E+04</rscale>
<asrwt>0</asrwt>
<pdfrwt beam="1">  1        1 0.18754728E+00 0.12006404E+04</pdfrwt>
<pdfrwt beam="2">  1       -1 0.45480835E-01 0.12006404E+04</pdfrwt>
<totfact> 0.49150497E+01</totfact>
</mgrwt>
</event>
<event>
 6    1  0.1014650E-006  0.1061195E+04  0.7818608E-02  0.9243862E-01
          3   -1    0    0  501    0  0.00000000000E+00  0.00000000000E+00  0.62877857041E+03  0.62877857041E+03  0.00000000000E+00 0. -1.
         -3   -1    0    0    0  501 -0.00000000000E+00 -0.00000000000E+00 -0.44774704804E+03  0.44774704804E+03  0.00000000000E+00 0.  1.
         23    2    1    2    0    0  0.63619451346E+02  0.27978755310E+03 -0.35730201384E+03  0.46649979467E+03  0.87343115788E+02 0.  0.
         11    1    3    3    0    0  0.89732458375E+01 -0.47539349156E+01 -0.10887326243E+02  0.14888012318E+02  0.00000000000E+00 0. -1.
        -11    1    3    3    0    0  0.54646205508E+02  0.28454148801E+03 -0.34641468760E+03  0.45161178235E+03  0.00000000000E+00 0.  1.
         22    1    1    2    0    0 -0.63619451346E+02 -0.27978755310E+03  0.53833353621E+03  0.61002582377E+03  0.00000000000E+00 0. -1.
<mgrwt>
<rscale>  0 0.10611951E+04</rscale>
<asrwt>0</asrwt>
<pdfrwt beam="1">  1        3 0.96735165E-01 0.10611951E+04</pdfrwt>
<pdfrwt beam="2">  1       -3 0.68884161E-01 0.10611951E+04</pdfrwt>
<totfact> 0.49816209E+00</totfact>
</mgrwt>
</event>
<event>
 6    1  0.1014650E-006  0.1814311E+04  0.7818608E-02  0.8698726E-01
          2   -1    0    0  501    0  0.00000000000E+00  0.00000000000E+00  0.88134655562E+03  0.88134655562E+03  0.00000000000E+00 0. -1.
         -2   -1    0    0    0  501 -0.00000000000E+00 -0.00000000000E+00 -0.93371976444E+03  0.93371976444E+03  0.00000000000E+00 0.  1.
         23    2    1    2    0    0 -0.37517923637E+03 -0.40395284269E+02  0.79632273681E+03  0.88626276359E+03  0.94554463563E+02 0.  0.
         11    1    3    3    0    0 -0.13075347995E+03  0.22847731172E+02  0.21798488856E+03  0.25521736418E+03  0.00000000000E+00 0.  1.
        -11    1    3    3    0    0 -0.24442575642E+03 -0.63243015441E+02  0.57833784825E+03  0.63104539942E+03  0.00000000000E+00 0. -1.
         22    1    1    2    0    0  0.37517923637E+03  0.40395284269E+02 -0.84869594562E+03  0.92880355647E+03  0.00000000000E+00 0.  1.
<mgrwt>
<rscale>  0 0.18143106E+04</rscale>
<asrwt>0</asrwt>
<pdfrwt beam="1">  1        2 0.13559178E+00 0.18143106E+04</pdfrwt>
<pdfrwt beam="2">  1       -2 0.14364919E+00 0.18143106E+04</pdfrwt>
<totfact> 0.95592594E+00</totfact>
</mgrwt>
</event>
<event>
 6    1  0.1167584E-006  0.3185192E+04  0.7818608E-02  0.8192739E-01
         -1   -1    0    0    0  501 -0.00000000000E+00  0.00000000000E+00  0.17908816604E+04  0.17908816604E+04  0.00000000000E+00 0.  1.
          1   -1    0    0  501    0  0.00000000000E+00 -0.00000000000E+00 -0.14162645266E+04  0.14162645266E+04  0.00000000000E+00 0. -1.
         23    2    1    2    0    0  0.29385312588E+03 -0.11258327150E+04  0.12805268418E+04  0.17325203494E+04  0.89603609503E+02 0.  0.
         13    1    3    3    0    0  0.34601752567E+02 -0.28456986252E+03  0.30962048019E+03  0.42195038771E+03  0.00000000000E+00 0.  1.
        -13    1    3    3    0    0  0.25925137331E+03 -0.84126285250E+03  0.97090636157E+03  0.13105699617E+04  0.00000000000E+00 0. -1.
         22    1    1    2    0    0 -0.29385312588E+03  0.11258327150E+04 -0.90590970802E+03  0.14746258376E+04  0.00000000000E+00 0. -1.
<mgrwt>
<rscale>  0 0.31851921E+04</rscale>
<asrwt>0</asrwt>
<pdfrwt beam="1">  1        1 0.21788685E+00 0.31851921E+04</pdfrwt>
<pdfrwt beam="2">  1       -1 0.27552026E+00 0.31851921E+04</pdfrwt>
<totfact> 0.29826680E-01</totfact>
</mgrwt>
</event>
<event>
 6    1  0.1014650E-006  0.1328077E+04  0.7818608E-02  0.9007592E-01
         -1   -1    0    0    0  501 -0.00000000000E+00  0.00000000000E+00  0.30926021216E+03  0.30926021216E+03  0.00000000000E+00 0.  1.
          1   -1    0    0  501    0  0.00000000000E+00 -0.00000000000E+00 -0.14258119943E+04  0.14258119943E+04  0.00000000000E+00 0. -1.
         23    2    1    2    0    0  0.61651843047E+02 -0.47972264745E+03  0.27127839925E+02  0.49332430687E+03  0.93264054285E+02 0.  0.
         13    1    3    3    0    0  0.13110262137E+02 -0.33962721563E+03  0.49203334332E+02  0.34342319764E+03  0.00000000000E+00 0.  1.
        -13    1    3    3    0    0  0.48541580911E+02 -0.14009543182E+03 -0.22075494406E+02  0.14990110923E+03  0.00000000000E+00 0. -1.
         22    1    1    2    0    0 -0.61651843047E+02  0.47972264745E+03 -0.11436796221E+04  0.12417478996E+04  0.00000000000E+00 0. -1.
<mgrwt>
<rscale>  0 0.13280767E+04</rscale>
<asrwt>0</asrwt>
<pdfrwt beam="1">  1        1 0.21935569E+00 0.13280767E+04</pdfrwt>
<pdfrwt beam="2">  1       -1 0.47578494E-01 0.13280767E+04</pdfrwt>
<totfact> 0.31860066E+01</totfact>
</mgrwt>
</event>
<event>
 6    1  0.1014650E-006  0.1141284E+04  0.7818608E-02  0.9165863E-01
          1   -1    0    0  501    0  0.00000000000E+00  0.00000000000E+00  0.11435733218E+04  0.11435733218E+04  0.00000000000E+00 0. -1.
         -1   -1    0    0    0  501 -0.00000000000E+00 -0.00000000000E+00 -0.28474958465E+03  0.28474958465E+03  0.00000000000E+00 0.  1.
         23    2    1    2    0    0  0.34119446020E+02 -0.55454476259E+03  0.29019736752E+03  0.63332606461E+03  0.90572411291E+02 0.  0.
         11    1    3    3    0    0  0.62921116169E+02 -0.36023062250E+03  0.17250600948E+03  0.40433091838E+03  0.00000000000E+00 0.  1.
        -11    1    3    3    0    0 -0.28801670149E+02 -0.19431414008E+03  0.11769135804E+03  0.22899514623E+03  0.00000000000E+00 0. -1.
         22    1    1    2    0    0 -0.34119446020E+02  0.55454476259E+03  0.56862636964E+03  0.79499684185E+03  0.00000000000E+00 0. -1.
<mgrwt>
<rscale>  0 0.11412835E+04</rscale>
<asrwt>0</asrwt>
<pdfrwt beam="1">  1        1 0.17593435E+00 0.11412835E+04</pdfrwt>
<pdfrwt beam="2">  1       -1 0.43807629E-01 0.11412835E+04</pdfrwt>
<totfact> 0.60147993E+01</totfact>
</mgrwt>
</event>
<event>
 6    1  0.1014650E-006  0.1255109E+04  0.7818608E-02  0.9065941E-01
         -1   -1    0    0    0  501 -0.00000000000E+00  0.00000000000E+00  0.19640470119E+03  0.19640470119E+03  0.00000000000E+00 0.  1.
          1   -1    0    0  501    0  0.00000000000E+00 -0.00000000000E+00 -0.20051701519E+04  0.20051701519E+04  0.00000000000E+00 0. -1.
         23    2    1    2    0    0  0.42018452649E+03 -0.46077244226E+03 -0.93901982217E+03  0.11313768629E+04  0.96897366530E+02 0.  0.
         11    1    3    3    0    0  0.22679736181E+03 -0.30760230043E+03 -0.61608683303E+03  0.72499600301E+03  0.00000000000E+00 0. -1.
        -11    1    3    3    0    0  0.19338716468E+03 -0.15317014184E+03 -0.32293298914E+03  0.40638085989E+03  0.00000000000E+00 0.  1.
         22    1    1    2    0    0 -0.42018452649E+03  0.46077244226E+03 -0.86974562854E+03  0.10701979902E+04  0.00000000000E+00 0. -1.
<mgrwt>
<rscale>  0 0.12551093E+04</rscale>
<asrwt>0</asrwt>
<pdfrwt beam="1">  1        1 0.30848772E+00 0.12551093E+04</pdfrwt>
<pdfrwt beam="2">  1       -1 0.30216108E-01 0.12551093E+04</pdfrwt>
<totfact> 0.29406265E+01</totfact>
</mgrwt>
</event>
<event>
 6    1  0.1014650E-006  0.2300865E+04  0.7818608E-02  0.8477580E-01
          2   -1    0    0  501    0  0.00000000000E+00  0.00000000000E+00  0.51619998605E+03  0.51619998605E+03  0.00000000000E+00 0. -1.
         -2   -1    0    0    0  501 -0.00000000000E+00 -0.00000000000E+00 -0.25639184090E+04  0.25639184090E+04  0.00000000000E+00 0.  1.
         23    2    1    2    0    0 -0.32213318296E+03 -0.10430551128E+04 -0.15038446574E+04  0.18604740089E+04  0.89894540205E+02 0.  0.
         13    1    3    3    0    0 -0.23000176462E+03 -0.72504800515E+03 -0.11153603951E+04  0.13500460112E+04  0.00000000000E+00 0. -1.
        -13    1    3    3    0    0 -0.92131418340E+02 -0.31800710762E+03 -0.38848426230E+03  0.51042799767E+03  0.00000000000E+00 0.  1.
         22    1    1    2    0    0  0.32213318296E+03  0.10430551128E+04 -0.54387376558E+03  0.12196443862E+04  0.00000000000E+00 0. -1.
<mgrwt>
<rscale>  0 0.23008647E+04</rscale>
<asrwt>0</asrwt>
<pdfrwt beam="1">  1        2 0.79415385E-01 0.23008647E+04</pdfrwt>
<pdfrwt beam="2">  1       -2 0.39444898E+00 0.23008647E+04</pdfrwt>
<totfact> 0.43445843E-01</totfact>
</mgrwt>
</event>
<event>
 6    1  0.1014650E-006  0.4676123E+04  0.7818608E-02  0.7880508E-01
         -2   -1    0    0    0  501 -0.00000000000E+00  0.00000000000E+00  0.13134129883E+04  0.13134129883E+04  0.00000000000E+00 0.  1.
          2   -1    0    0  501    0  0.00000000000E+00 -0.00000000000E+00 -0.41620806808E+04  0.41620806808E+04  0.00000000000E+00 0. -1.
         23    2    1    2    0    0 -0.72091509336E+03  0.40723938110E+02 -0.40277122498E+04  0.40929152521E+04  0.90068215079E+02 0.  0.
         11    1    3    3    0    0 -0.32563366707E+03  0.24660933198E+02 -0.15745234037E+04  0.16080327719E+04  0.00000000000E+00 0.  1.
        -11    1    3    3    0    0 -0.39528142629E+03  0.16063004913E+02 -0.24531888460E+04  0.24848824802E+04  0.00000000000E+00 0. -1.
         22    1    1    2    0    0  0.72091509336E+03 -0.40723938110E+02  0.11790445573E+04  0.13825784170E+04  0.00000000000E+00 0.  1.
<mgrwt>
<rscale>  0 0.46761227E+04</rscale>
<asrwt>0</asrwt>
<pdfrwt beam="1">  1        2 0.64032010E+00 0.46761227E+04</pdfrwt>
<pdfrwt beam="2">  1       -2 0.20206354E+00 0.46761227E+04</pdfrwt>
<totfact> 0.24010082E-02</totfact>
</mgrwt>
</event>
<event>
 6    1  0.1014650E-006  0.1934890E+04  0.7818608E-02  0.8637682E-01
          1   -1    0    0  501    0  0.00000000000E+00  0.00000000000E+00  0.14690873564E+04  0.14690873564E+04  0.00000000000E+00 0. -1.
         -1   -1    0    0    0  501 -0.00000000000E+00 -0.00000000000E+00 -0.63709602938E+03  0.63709602938E+03  0.00000000000E+00 0.  1.
         23    2    1    2    0    0  0.89619922685E+03  0.15752032692E+03  0.66280597005E+02  0.91694050493E+03  0.91657320731E+02 0.  0.
         13    1    3    3    0    0  0.51507957518E+03  0.61117433005E+02  0.72713895819E+02  0.52376485184E+03  0.00000000000E+00 0. -1.
        -13    1    3    3    0    0  0.38111965167E+03  0.96402893917E+02 -0.64332988145E+01  0.39317565309E+03  0.00000000000E+00 0.  1.
         22    1    1    2    0    0 -0.89619922685E+03 -0.15752032692E+03  0.76571073004E+03  0.11892428809E+04  0.00000000000E+00 0. -1.
<mgrwt>
<rscale>  0 0.19348899E+04</rscale>
<asrwt>0</asrwt>
<pdfrwt beam="1">  1        1 0.22601344E+00 0.19348899E+04</pdfrwt>
<pdfrwt beam="2">  1       -1 0.98014774E-01 0.19348899E+04</pdfrwt>
<totfact> 0.63971823E+00</totfact>
</mgrwt>
</event>
<event>
 6    1  0.1014650E-006  0.2029173E+04  0.7818608E-02  0.8593102E-01
         -1   -1    0    0    0  501 -0.00000000000E+00  0.00000000000E+00  0.51576362858E+03  0.51576362858E+03  0.00000000000E+00 0.  1.
          1   -1    0    0  501    0  0.00000000000E+00 -0.00000000000E+00 -0.19958473650E+04  0.19958473650E+04  0.00000000000E+00 0. -1.
         23    2    1    2    0    0  0.77310805154E+03 -0.27783417456E+03 -0.90001503886E+01  0.82668523705E+03  0.91867244154E+02 0.  0.
         11    1    3    3    0    0  0.23296632460E+03 -0.92303686476E+02 -0.44328819455E+02  0.25447656704E+03  0.00000000000E+00 0. -1.
        -11    1    3    3    0    0  0.54014172693E+03 -0.18553048808E+03  0.35328669067E+02  0.57220867001E+03  0.00000000000E+00 0.  1.
         22    1    1    2    0    0 -0.77310805154E+03  0.27783417456E+03 -0.14710835860E+04  0.16849257565E+04  0.00000000000E+00 0. -1.
<mgrwt>
<rscale>  0 0.20291727E+04</rscale>
<asrwt>0</asrwt>
<pdfrwt beam="1">  1        1 0.30705344E+00 0.20291727E+04</pdfrwt>
<pdfrwt beam="2">  1       -1 0.79348250E-01 0.20291727E+04</pdfrwt>
<totfact> 0.44050906E+00</totfact>
</mgrwt>
</event>
<event>
 6    1  0.1014650E-006  0.2457347E+04  0.7818608E-02  0.8418340E-01
         -2   -1    0    0    0  501 -0.00000000000E+00  0.00000000000E+00  0.84283869542E+03  0.84283869542E+03  0.00000000000E+00 0.  1.
          2   -1    0    0  501    0  0.00000000000E+00 -0.00000000000E+00 -0.17911358383E+04  0.17911358383E+04  0.00000000000E+00 0. -1.
         23    2    1    2    0    0 -0.12363035133E+03 -0.11370090793E+04  0.14867241903E+01  0.11473126676E+04  0.90829712726E+02 0.  0.
         13    1    3    3    0    0 -0.86803555985E+02 -0.55300312503E+03 -0.36128394857E+02  0.56093901143E+03  0.00000000000E+00 0.  1.
        -13    1    3    3    0    0 -0.36826795345E+02 -0.58400595424E+03  0.37615119047E+02  0.58637365615E+03  0.00000000000E+00 0. -1.
         22    1    1    2    0    0  0.12363035133E+03  0.11370090793E+04 -0.94978386708E+03  0.14866618662E+04  0.00000000000E+00 0.  1.
<mgrwt>
<rscale>  0 0.24573470E+04</rscale>
<asrwt>0</asrwt>
<pdfrwt beam="1">  1        2 0.27555935E+00 0.24573470E+04</pdfrwt>
<pdfrwt beam="2">  1       -2 0.12966750E+00 0.24573470E+04</pdfrwt>
<totfact> 0.34147335E+00</totfact>
</mgrwt>
</event>
<event>
 6    1  0.1014650E-006  0.3561047E+04  0.7818608E-02  0.8099473E-01
         -2   -1    0    0    0  501 -0.00000000000E+00  0.00000000000E+00  0.12415607001E+04  0.12415607001E+04  0.00000000000E+00 0.  1.
          2   -1    0    0  501    0  0.00000000000E+00 -0.00000000000E+00 -0.25534500029E+04  0.25534500029E+04  0.00000000000E+00 0. -1.
         23    2    1    2    0    0 -0.11253209188E+03  0.12853190287E+04  0.64949401751E+03  0.14473026704E+04  0.90189045246E+02 0.  0.
         13    1    3    3    0    0 -0.60329447667E+02  0.40753440148E+03  0.16940145516E+03  0.44544447875E+03  0.00000000000E+00 0. -1.
        -13    1    3    3    0    0 -0.52202644215E+02  0.87778462720E+03  0.48009256235E+03  0.10018581917E+04  0.00000000000E+00 0.  1.
         22    1    1    2    0    0  0.11253209188E+03 -0.12853190287E+04 -0.19613833203E+04  0.23477080326E+04  0.00000000000E+00 0. -1.
<mgrwt>
<rscale>  0 0.35610466E+04</rscale>
<asrwt>0</asrwt>
<pdfrwt beam="1">  1        2 0.39283846E+00 0.35610466E+04</pdfrwt>
<pdfrwt beam="2">  1       -2 0.19100934E+00 0.35610466E+04</pdfrwt>
<totfact> 0.40426452E-01</totfact>
</mgrwt>
</event>
<event>
 6    1  0.1014650E-006  0.2632458E+04  0.7818608E-02  0.8357259E-01
          1   -1    0    0  501    0  0.00000000000E+00  0.00000000000E+00  0.14529590991E+04  0.14529590991E+04  0.00000000000E+00 0. -1.
         -1   -1    0    0    0  501 -0.00000000000E+00 -0.00000000000E+00 -0.11923656335E+04  0.11923656335E+04  0.00000000000E+00 0.  1.
         23    2    1    2    0    0 -0.71254301826E+03  0.18068885852E+03  0.12257680383E+04  0.14320943454E+04  0.89559554961E+02 0.  0.
         11    1    3    3    0    0 -0.59973785523E+03  0.16839615864E+03  0.97738240766E+03  0.11590164503E+04  0.00000000000E+00 0.  1.
        -11    1    3    3    0    0 -0.11280516304E+03  0.12292699875E+02  0.24838563068E+03  0.27307789513E+03  0.00000000000E+00 0. -1.
         22    1    1    2    0    0  0.71254301826E+03 -0.18068885852E+03 -0.96517457275E+03  0.12132303872E+04  0.00000000000E+00 0.  1.
<mgrwt>
<rscale>  0 0.26324578E+04</rscale>
<asrwt>0</asrwt>
<pdfrwt beam="1">  1        1 0.22353217E+00 0.26324578E+04</pdfrwt>
<pdfrwt beam="2">  1       -1 0.18344087E+00 0.26324578E+04</pdfrwt>
<totfact> 0.12182359E+00</totfact>
</mgrwt>
</event>
<event>
 6    1  0.1014650E-006  0.2965561E+04  0.7818608E-02  0.8253634E-01
         -2   -1    0    0    0  501 -0.00000000000E+00  0.00000000000E+00  0.11536534136E+04  0.11536534136E+04  0.00000000000E+00 0.  1.
          2   -1    0    0  501    0  0.00000000000E+00 -0.00000000000E+00 -0.19058040072E+04  0.19058040072E+04  0.00000000000E+00 0. -1.
         23    2    1    2    0    0  0.23497008151E+03 -0.41730149880E+03  0.10697866809E+04  0.11756296919E+04  0.91160023782E+02 0.  0.
         13    1    3    3    0    0  0.14457950525E+03 -0.28676531806E+03  0.61293494476E+03  0.69197314073E+03  0.00000000000E+00 0. -1.
        -13    1    3    3    0    0  0.90390576256E+02 -0.13053618073E+03  0.45685173610E+03  0.48365655121E+03  0.00000000000E+00 0.  1.
         22    1    1    2    0    0 -0.23497008151E+03  0.41730149880E+03 -0.18219372744E+04  0.18838277289E+04  0.00000000000E+00 0. -1.
<mgrwt>
<rscale>  0 0.29655605E+04</rscale>
<asrwt>0</asrwt>
<pdfrwt beam="1">  1        2 0.29320062E+00 0.29655605E+04</pdfrwt>
<pdfrwt beam="2">  1       -2 0.17748514E+00 0.29655605E+04</pdfrwt>
<totfact> 0.12215140E+00</totfact>
</mgrwt>
</event>
<event>
 6    1  0.1014650E-006  0.1016340E+04  0.7818608E-02  0.9290803E-01
         -2   -1    0    0    0  501 -0.00000000000E+00  0.00000000000E+00  0.81257208776E+03  0.81257208776E+03  0.00000000000E+00 0.  1.
          2   -1    0    0  501    0  0.00000000000E+00 -0.00000000000E+00 -0.31780158742E+03  0.31780158742E+03  0.00000000000E+00 0. -1.
         23    2    1    2    0    0 -0.37695908747E+03 -0.13870738765E+03 -0.89439546440E+02  0.42140310331E+03  0.90792345501E+02 0.  0.
         11    1    3    3    0    0 -0.68110272114E+02 -0.14139800707E+02 -0.50817816096E+02  0.86147510493E+02  0.00000000000E+00 0.  1.
        -11    1    3    3    0    0 -0.30884881536E+03 -0.12456758694E+03 -0.38621730344E+02  0.33525559282E+03  0.00000000000E+00 0. -1.
         22    1    1    2    0    0  0.37695908747E+03  0.13870738765E+03  0.58421004678E+03  0.70897057187E+03  0.00000000000E+00 0.  1.
<mgrwt>
<rscale>  0 0.10163399E+04</rscale>
<asrwt>0</asrwt>
<pdfrwt beam="1">  1        2 0.48892552E-01 0.10163399E+04</pdfrwt>
<pdfrwt beam="2">  1       -2 0.12501109E+00 0.10163399E+04</pdfrwt>
<totfact> 0.49200996E+01</totfact>
</mgrwt>
</event>
<event>
 6    1  0.1014650E-006  0.3321224E+04  0.7818608E-02  0.8157516E-01
          1   -1    0    0  501    0  0.00000000000E+00  0.00000000000E+00  0.17362112897E+04  0.17362112897E+04  0.00000000000E+00 0. -1.
         -1   -1    0    0    0  501 -0.00000000000E+00 -0.00000000000E+00 -0.15883048299E+04  0.15883048299E+04  0.00000000000E+00 0.  1.
         23    2    1    2    0    0  0.91190986498E+03  0.56540057335E+03 -0.11930083893E+04  0.16071605819E+04  0.91862446562E+02 0.  0.
         11    1    3    3    0    0  0.23153172346E+03  0.10745345555E+03 -0.24793832486E+03  0.35584631095E+03  0.00000000000E+00 0. -1.
        -11    1    3    3    0    0  0.68037814152E+03  0.45794711781E+03 -0.94507006441E+03  0.12513142710E+04  0.00000000000E+00 0.  1.
         22    1    1    2    0    0 -0.91190986498E+03 -0.56540057335E+03  0.13409148491E+04  0.17173555377E+04  0.00000000000E+00 0. -1.
<mgrwt>
<rscale>  0 0.33212243E+04</rscale>
<asrwt>0</asrwt>
<pdfrwt beam="1">  1        1 0.26710943E+00 0.33212243E+04</pdfrwt>
<pdfrwt beam="2">  1       -1 0.24435459E+00 0.33212243E+04</pdfrwt>
<totfact> 0.28305735E-01</totfact>
</mgrwt>
</event>
<event>
 6    1  0.1014650E-006  0.2583689E+04  0.7818608E-02  0.8373763E-01
         -2   -1    0    0    0  501 -0.00000000000E+00  0.00000000000E+00  0.13701085347E+04  0.13701085347E+04  0.00000000000E+00 0.  1.
          2   -1    0    0  501    0  0.00000000000E+00 -0.00000000000E+00 -0.12180506659E+04  0.12180506659E+04  0.00000000000E+00 0. -1.
         23    2    1    2    0    0 -0.85094099397E+03 -0.89528808681E+03 -0.29747359611E+03  0.12737316173E+04  0.90886517423E+02 0.  0.
         11    1    3    3    0    0 -0.24259642336E+03 -0.21640731405E+03 -0.10900788370E+03  0.34288171271E+03  0.00000000000E+00 0. -1.
        -11    1    3    3    0    0 -0.60834457060E+03 -0.67888077276E+03 -0.18846571241E+03  0.93084990463E+03  0.00000000000E+00 0.  1.
         22    1    1    2    0    0  0.85094099397E+03  0.89528808681E+03  0.44953146489E+03  0.13144275832E+04  0.00000000000E+00 0. -1.
<mgrwt>
<rscale>  0 0.25836885E+04</rscale>
<asrwt>0</asrwt>
<pdfrwt beam="1">  1        2 0.18739241E+00 0.25836885E+04</pdfrwt>
<pdfrwt beam="2">  1       -2 0.21078593E+00 0.25836885E+04</pdfrwt>
<totfact> 0.18522705E+00</totfact>
</mgrwt>
</event>
<event>
 6    1  0.1014650E-006  0.3696623E+04  0.7818608E-02  0.8068711E-01
         -2   -1    0    0    0  501 -0.00000000000E+00  0.00000000000E+00  0.11022400604E+04  0.11022400604E+04  0.00000000000E+00 0.  1.
          2   -1    0    0  501    0  0.00000000000E+00 -0.00000000000E+00 -0.30993744676E+04  0.30993744676E+04  0.00000000000E+00 0. -1.
         23    2    1    2    0    0  0.13836952979E+04 -0.78261185482E+03  0.70028892072E+02  0.15938840783E+04  0.92024001212E+02 0.  0.
         13    1    3    3    0    0  0.44351490051E+03 -0.20718545219E+03  0.40489957295E+02  0.49119315469E+03  0.00000000000E+00 0.  1.
        -13    1    3    3    0    0  0.94018039736E+03 -0.57542640263E+03  0.29538934777E+02  0.11026909236E+04  0.00000000000E+00 0. -1.
         22    1    1    2    0    0 -0.13836952979E+04  0.78261185482E+03 -0.20671632992E+04  0.26077304497E+04  0.00000000000E+00 0. -1.
<mgrwt>
<rscale>  0 0.36966226E+04</rscale>
<asrwt>0</asrwt>
<pdfrwt beam="1">  1        2 0.47682684E+00 0.36966226E+04</pdfrwt>
<pdfrwt beam="2">  1       -2 0.16957539E+00 0.36966226E+04</pdfrwt>
<totfact> 0.26118484E-01</totfact>
</mgrwt>
</event>
<event>
 6    1  0.1014650E-006  0.4261897E+04  0.7818608E-02  0.7953702E-01
          2   -1    0    0  501    0  0.00000000000E+00  0.00000000000E+00  0.40892307904E+04  0.40892307904E+04  0.00000000000E+00 0. -1.
         -2   -1    0    0    0  501 -0.00000000000E+00 -0.00000000000E+00 -0.11104634572E+04  0.11104634572E+04  0.00000000000E+00 0.  1.
         23    2    1    2    0    0  0.11319715891E+04  0.16866736936E+04  0.22718641504E+04  0.30488944110E+04  0.90347021030E+02 0.  0.
         11    1    3    3    0    0  0.20974121561E+03  0.37872092012E+03  0.48728662886E+03  0.65181989193E+03  0.00000000000E+00 0.  1.
        -11    1    3    3    0    0  0.92223037346E+03  0.13079527735E+04  0.17845775216E+04  0.23970745191E+04  0.00000000000E+00 0. -1.
         22    1    1    2    0    0 -0.11319715891E+04 -0.16866736936E+04  0.70690318280E+03  0.21507998366E+04  0.00000000000E+00 0.  1.
<mgrwt>
<rscale>  0 0.42618969E+04</rscale>
<asrwt>0</asrwt>
<pdfrwt beam="1">  1        2 0.62911242E+00 0.42618969E+04</pdfrwt>
<pdfrwt beam="2">  1       -2 0.17084053E+00 0.42618969E+04</pdfrwt>
<totfact> 0.46703430E-02</totfact>
</mgrwt>
</event>
<event>
 6    1  0.1014650E-006  0.2064742E+04  0.7818608E-02  0.8576936E-01
          1   -1    0    0  501    0  0.00000000000E+00  0.00000000000E+00  0.19887623006E+04  0.19887623006E+04  0.00000000000E+00 0. -1.
         -1   -1    0    0    0  501 -0.00000000000E+00 -0.00000000000E+00 -0.53590600477E+03  0.53590600477E+03  0.00000000000E+00 0.  1.
         23    2    1    2    0    0 -0.31751225414E+03  0.98003559106E+03  0.75599359518E+03  0.12809233899E+04  0.89188696226E+02 0.  0.
         13    1    3    3    0    0 -0.94855733641E+01  0.10762003086E+03  0.64024603835E+02  0.12558342662E+03  0.00000000000E+00 0.  1.
        -13    1    3    3    0    0 -0.30802668078E+03  0.87241556020E+03  0.69196899134E+03  0.11553399633E+04  0.00000000000E+00 0. -1.
         22    1    1    2    0    0  0.31751225414E+03 -0.98003559106E+03  0.69686270068E+03  0.12437449155E+04  0.00000000000E+00 0. -1.
<mgrwt>
<rscale>  0 0.20647418E+04</rscale>
<asrwt>0</asrwt>
<pdfrwt beam="1">  1        1 0.30596343E+00 0.20647418E+04</pdfrwt>
<pdfrwt beam="2">  1       -1 0.82447078E-01 0.20647418E+04</pdfrwt>
<totfact> 0.40909074E+00</totfact>
</mgrwt>
</event>
<event>
 6    1  0.1014650E-006  0.1669702E+04  0.7818608E-02  0.8778836E-01
          1   -1    0    0  501    0  0.00000000000E+00  0.00000000000E+00  0.23554414741E+04  0.23554414741E+04  0.00000000000E+00 0. -1.
         -1   -1    0    0    0  501 -0.00000000000E+00 -0.00000000000E+00 -0.29590032629E+03  0.29590032629E+03  0.00000000000E+00 0.  1.
         23    2    1    2    0    0  0.34240742658E+03  0.54741570128E+03  0.20140289281E+03  0.68421583327E+03  0.10335078853E+03 0.  0.
         13    1    3    3    0    0  0.26328047507E+03  0.46390943772E+03  0.13072127135E+03  0.54919634534E+03  0.00000000000E+00 0.  1.
        -13    1    3    3    0    0  0.79126951508E+02  0.83506263560E+02  0.70681621458E+02  0.13501948793E+03  0.00000000000E+00 0. -1.
         22    1    1    2    0    0 -0.34240742658E+03 -0.54741570128E+03  0.18581382550E+04  0.19671259671E+04  0.00000000000E+00 0. -1.
<mgrwt>
<rscale>  0 0.16697017E+04</rscale>
<asrwt>0</asrwt>
<pdfrwt beam="1">  1        1 0.36237560E+00 0.16697017E+04</pdfrwt>
<pdfrwt beam="2">  1       -1 0.45523129E-01 0.16697017E+04</pdfrwt>
<totfact> 0.78047047E+00</totfact>
</mgrwt>
</event>
<event>
 6    1  0.1014650E-006  0.7783891E+03  0.7818608E-02  0.9591836E-01
          1   -1    0    0  501    0  0.00000000000E+00  0.00000000000E+00  0.49287508541E+03  0.49287508541E+03  0.00000000000E+00 0. -1.
         -1   -1    0    0    0  501 -0.00000000000E+00 -0.00000000000E+00 -0.30732413306E+03  0.30732413306E+03  0.00000000000E+00 0.  1.
         23    2    1    2    0    0  0.10872870427E+03  0.29191460142E+03 -0.13606936826E+03  0.35245409423E+03  0.93128673932E+02 0.  0.
         11    1    3    3    0    0  0.35574083283E+02  0.36586680855E+02 -0.54380971919E+02  0.74574732479E+02  0.00000000000E+00 0. -1.
        -11    1    3    3    0    0  0.73154620984E+02  0.25532792056E+03 -0.81688396338E+02  0.27787936175E+03  0.00000000000E+00 0.  1.
         22    1    1    2    0    0 -0.10872870427E+03 -0.29191460142E+03  0.32162032061E+03  0.44774512424E+03  0.00000000000E+00 0. -1.
<mgrwt>
<rscale>  0 0.77838913E+03</rscale>
<asrwt>0</asrwt>
<pdfrwt beam="1">  1        1 0.75826936E-01 0.77838913E+03</pdfrwt>
<pdfrwt beam="2">  1       -1 0.47280636E-01 0.77838913E+03</pdfrwt>
<totfact> 0.20418595E+02</totfact>
</mgrwt>
</event>
<event>
 6    1  0.1014650E-006  0.9356276E+03  0.7818608E-02  0.9382109E-01
         -1   -1    0    0    0  501 -0.00000000000E+00  0.00000000000E+00  0.10667980792E+03  0.10667980792E+03  0.00000000000E+00 0.  1.
          1   -1    0    0  501    0  0.00000000000E+00 -0.00000000000E+00 -0.20514638681E+04  0.20514638681E+04  0.00000000000E+00 0. -1.
         23    2    1    2    0    0 -0.23047708413E+03 -0.29556531394E+03 -0.35326145856E+03  0.52308320845E+03  0.91344642699E+02 0.  0.
         11    1    3    3    0    0 -0.82068440755E+01 -0.16151162084E+02  0.33868713102E+01  0.18430497107E+02  0.00000000000E+00 0.  1.
        -11    1    3    3    0    0 -0.22227024005E+03 -0.27941415185E+03 -0.35664832987E+03  0.50465271134E+03  0.00000000000E+00 0. -1.
         22    1    1    2    0    0  0.23047708413E+03  0.29556531394E+03 -0.15915226016E+04  0.16350604676E+04  0.00000000000E+00 0. -1.
<mgrwt>
<rscale>  0 0.93562764E+03</rscale>
<asrwt>0</asrwt>
<pdfrwt beam="1">  1        1 0.31560983E+00 0.93562764E+03</pdfrwt>
<pdfrwt beam="2">  1       -1 0.16412278E-01 0.93562764E+03</pdfrwt>
<totfact> 0.79150730E+01</totfact>
</mgrwt>
</event>
<event>
 6    1  0.1014650E-006  0.6149813E+03  0.7818608E-02  0.9874803E-01
          2   -1    0    0  501    0  0.00000000000E+00  0.00000000000E+00  0.82279698991E+03  0.82279698991E+03  0.00000000000E+00 0. -1.
         -2   -1    0    0    0  501 -0.00000000000E+00 -0.00000000000E+00 -0.11491353708E+03  0.11491353708E+03  0.00000000000E+00 0.  1.
         23    2    1    2    0    0  0.39389830395E+02 -0.29760378434E+03  0.38831155609E+03  0.49925212717E+03  0.91363289652E+02 0.  0.
         11    1    3    3    0    0  0.58989193517E+02 -0.16735652216E+03  0.17975869265E+03  0.25258883198E+03  0.00000000000E+00 0. -1.
        -11    1    3    3    0    0 -0.19599363121E+02 -0.13024726218E+03  0.20855286345E+03  0.24666329519E+03  0.00000000000E+00 0.  1.
         22    1    1    2    0    0 -0.39389830395E+02  0.29760378434E+03  0.31957189674E+03  0.43845839982E+03  0.00000000000E+00 0.  1.
<mgrwt>
<rscale>  0 0.61498134E+03</rscale>
<asrwt>0</asrwt>
<pdfrwt beam="1">  1        2 0.12658415E+00 0.61498134E+03</pdfrwt>
<pdfrwt beam="2">  1       -2 0.17679006E-01 0.61498134E+03</pdfrwt>
<totfact> 0.88261268E+02</totfact>
</mgrwt>
</event>
<event>
 6    1  0.1014650E-006  0.5387014E+04  0.7818608E-02  0.7771430E-01
          2   -1    0    0  501    0  0.00000000000E+00  0.00000000000E+00  0.29121944500E+04  0.29121944500E+04  0.00000000000E+00 0. -1.
         -2   -1    0    0    0  501 -0.00000000000E+00 -0.00000000000E+00 -0.24912412307E+04  0.24912412307E+04  0.00000000000E+00 0.  1.
         23    2    1    2    0    0  0.18402001071E+04  0.14524676961E+04 -0.11185702923E+04  0.25987732260E+04  0.80149482251E+02 0.  0.
         11    1    3    3    0    0  0.58758604076E+03  0.50813422242E+03 -0.38657886331E+03  0.86769865786E+03  0.00000000000E+00 0. -1.
        -11    1    3    3    0    0  0.12526140663E+04  0.94433347363E+03 -0.73199142895E+03  0.17310745682E+04  0.00000000000E+00 0.  1.
         22    1    1    2    0    0 -0.18402001071E+04 -0.14524676961E+04  0.15395235115E+04  0.28046624547E+04  0.00000000000E+00 0. -1.
<mgrwt>
<rscale>  0 0.53870136E+04</rscale>
<asrwt>0</asrwt>
<pdfrwt beam="1">  1        2 0.44802992E+00 0.53870136E+04</pdfrwt>
<pdfrwt beam="2">  1       -2 0.38326788E+00 0.53870136E+04</pdfrwt>
<totfact> 0.13299635E-02</totfact>
</mgrwt>
</event>
<event>
 6    1  0.1014650E-006  0.1034598E+04  0.7818608E-02  0.9271392E-01
         -1   -1    0    0    0  501 -0.00000000000E+00  0.00000000000E+00  0.32263089637E+03  0.32263089637E+03  0.00000000000E+00 0.  1.
          1   -1    0    0  501    0  0.00000000000E+00 -0.00000000000E+00 -0.82942490483E+03  0.82942490483E+03  0.00000000000E+00 0. -1.
         23    2    1    2    0    0 -0.33077007491E+03 -0.19623535663E+03 -0.63395395625E+03  0.74697949978E+03  0.90352624782E+02 0.  0.
         13    1    3    3    0    0 -0.46772466398E+02 -0.18221079426E+02 -0.15089990170E+03  0.15902971949E+03  0.00000000000E+00 0.  1.
        -13    1    3    3    0    0 -0.28399760851E+03 -0.17801427721E+03 -0.48305405455E+03  0.58794978029E+03  0.00000000000E+00 0. -1.
         22    1    1    2    0    0  0.33077007491E+03  0.19623535663E+03  0.12715994779E+03  0.40507630142E+03  0.00000000000E+00 0.  1.
<mgrwt>
<rscale>  0 0.10345977E+04</rscale>
<asrwt>0</asrwt>
<pdfrwt beam="1">  1        1 0.12760383E+00 0.10345977E+04</pdfrwt>
<pdfrwt beam="2">  1       -1 0.49635523E-01 0.10345977E+04</pdfrwt>
<totfact> 0.84887249E+01</totfact>
</mgrwt>
</event>
<event>
 6    1  0.1014650E-006  0.3773889E+04  0.7818608E-02  0.8051782E-01
          1   -1    0    0  501    0  0.00000000000E+00  0.00000000000E+00  0.36470868935E+04  0.36470868935E+04  0.00000000000E+00 0. -1.
         -1   -1    0    0    0  501 -0.00000000000E+00 -0.00000000000E+00 -0.97627468891E+03  0.97627468891E+03  0.00000000000E+00 0.  1.
         23    2    1    2    0    0  0.55006302194E+03 -0.70366768014E+03  0.33709640739E+04  0.34884914700E+04  0.91958777721E+02 0.  0.
         13    1    3    3    0    0  0.32016850777E+03 -0.46594279337E+03  0.22324148109E+04  0.23028865469E+04  0.00000000000E+00 0. -1.
        -13    1    3    3    0    0  0.22989451417E+03 -0.23772488677E+03  0.11385492630E+04  0.11856049231E+04  0.00000000000E+00 0.  1.
         22    1    1    2    0    0 -0.55006302194E+03  0.70366768014E+03 -0.70015186922E+03  0.11348701125E+04  0.00000000000E+00 0.  1.
<mgrwt>
<rscale>  0 0.37738885E+04</rscale>
<asrwt>0</asrwt>
<pdfrwt beam="1">  1        1 0.56109028E+00 0.37738885E+04</pdfrwt>
<pdfrwt beam="2">  1       -1 0.15019611E+00 0.37738885E+04</pdfrwt>
<totfact> 0.52729138E-02</totfact>
</mgrwt>
</event>
<event>
 6    1  0.1014650E-006  0.1940878E+04  0.7818608E-02  0.8634772E-01
         -2   -1    0    0    0  501 -0.00000000000E+00  0.00000000000E+00  0.30946595934E+03  0.30946595934E+03  0.00000000000E+00 0.  1.
          2   -1    0    0  501    0  0.00000000000E+00 -0.00000000000E+00 -0.30431509680E+04  0.30431509680E+04  0.00000000000E+00 0. -1.
         23    2    1    2    0    0  0.29604309716E+03 -0.15401393183E+03 -0.29399932173E+04  0.29602843089E+04  0.91439955145E+02 0.  0.
         11    1    3    3    0    0  0.23402423797E+03 -0.77499077610E+02 -0.19957189432E+04  0.20108872548E+04  0.00000000000E+00 0. -1.
        -11    1    3    3    0    0  0.62018859197E+02 -0.76514854220E+02 -0.94427427404E+03  0.94939705415E+03  0.00000000000E+00 0.  1.
         22    1    1    2    0    0 -0.29604309716E+03  0.15401393183E+03  0.20630820858E+03  0.39233261846E+03  0.00000000000E+00 0.  1.
<mgrwt>
<rscale>  0 0.19408778E+04</rscale>
<asrwt>0</asrwt>
<pdfrwt beam="1">  1        2 0.46817706E+00 0.19408778E+04</pdfrwt>
<pdfrwt beam="2">  1       -2 0.47610148E-01 0.19408778E+04</pdfrwt>
<totfact> 0.64020704E+00</totfact>
</mgrwt>
</event>
<event>
 6    1  0.1014650E-006  0.1573723E+04  0.7818608E-02  0.8836855E-01
          1   -1    0    0  501    0  0.00000000000E+00  0.00000000000E+00  0.89130039713E+03  0.89130039713E+03  0.00000000000E+00 0. -1.
         -1   -1    0    0    0  501 -0.00000000000E+00 -0.00000000000E+00 -0.69466075906E+03  0.69466075906E+03  0.00000000000E+00 0.  1.
         23    2    1    2    0    0  0.64638911885E+03  0.37659449868E+03 -0.13823378456E+03  0.76633775574E+03  0.92318293304E+02 0.  0.
         13    1    3    3    0    0  0.46126591930E+03  0.23207901760E+03 -0.65594290505E+02  0.52050891411E+03  0.00000000000E+00 0. -1.
        -13    1    3    3    0    0  0.18512319955E+03  0.14451548108E+03 -0.72639494054E+02  0.24582884163E+03  0.00000000000E+00 0.  1.
         22    1    1    2    0    0 -0.64638911885E+03 -0.37659449868E+03  0.33487342263E+03  0.81962340046E+03  0.00000000000E+00 0.  1.
<mgrwt>
<rscale>  0 0.15737235E+04</rscale>
<asrwt>0</asrwt>
<pdfrwt beam="1">  1        1 0.13712314E+00 0.15737235E+04</pdfrwt>
<pdfrwt beam="2">  1       -1 0.10687089E+00 0.15737235E+04</pdfrwt>
<totfact> 0.14535887E+01</totfact>
</mgrwt>
</event>
<event>
 6    1  0.1606911E-006  0.2823833E+04  0.7818608E-02  0.8295907E-01
         -1   -1    0    0    0  501 -0.00000000000E+00  0.00000000000E+00  0.16907307256E+04  0.16907307256E+04  0.00000000000E+00 0.  1.
          1   -1    0    0  501    0  0.00000000000E+00 -0.00000000000E+00 -0.11790804806E+04  0.11790804806E+04  0.00000000000E+00 0. -1.
         23    2    1    2    0    0 -0.40627701215E+02 -0.11128671747E+04 -0.62361392999E+03  0.12795443400E+04  0.90638985008E+02 0.  0.
         11    1    3    3    0    0  0.20777736199E+01 -0.31815448361E+03 -0.13466470913E+03  0.34548686873E+03  0.00000000000E+00 0. -1.
        -11    1    3    3    0    0 -0.42705474835E+02 -0.79471269114E+03 -0.48894922087E+03  0.93405747126E+03  0.00000000000E+00 0.  1.
         22    1    1    2    0    0  0.40627701215E+02  0.11128671747E+04  0.11352641750E+04  0.15902668662E+04  0.00000000000E+00 0.  1.
<mgrwt>
<rscale>  0 0.28238326E+04</rscale>
<asrwt>0</asrwt>
<pdfrwt beam="1">  1        1 0.18139700E+00 0.28238326E+04</pdfrwt>
<pdfrwt beam="2">  1       -1 0.26011242E+00 0.28238326E+04</pdfrwt>
<totfact> 0.57288769E-01</totfact>
</mgrwt>
</event>
<event>
 6    1  0.1014650E-006  0.1496056E+04  0.7818608E-02  0.8887080E-01
         -1   -1    0    0    0  501 -0.00000000000E+00  0.00000000000E+00  0.30574495285E+03  0.30574495285E+03  0.00000000000E+00 0.  1.
          1   -1    0    0  501    0  0.00000000000E+00 -0.00000000000E+00 -0.18301070701E+04  0.18301070701E+04  0.00000000000E+00 0. -1.
         23    2    1    2    0    0 -0.56281136581E+03 -0.46270117993E+03 -0.98891692952E+03  0.12316669952E+04  0.90542134386E+02 0.  0.
         11    1    3    3    0    0 -0.35216586429E+03 -0.34272798921E+03 -0.68054036428E+03  0.83941554547E+03  0.00000000000E+00 0. -1.
        -11    1    3    3    0    0 -0.21064550152E+03 -0.11997319072E+03 -0.30837656524E+03  0.39225144970E+03  0.00000000000E+00 0.  1.
         22    1    1    2    0    0  0.56281136581E+03  0.46270117993E+03 -0.53544518774E+03  0.90418502778E+03  0.00000000000E+00 0. -1.
<mgrwt>
<rscale>  0 0.14960561E+04</rscale>
<asrwt>0</asrwt>
<pdfrwt beam="1">  1        1 0.28155494E+00 0.14960561E+04</pdfrwt>
<pdfrwt beam="2">  1       -1 0.47037684E-01 0.14960561E+04</pdfrwt>
<totfact> 0.16952921E+01</totfact>
</mgrwt>
</event>
<event>
 6    1  0.1014650E-006  0.1904499E+04  0.7818608E-02  0.8652620E-01
          2   -1    0    0  501    0  0.00000000000E+00  0.00000000000E+00  0.92188323764E+03  0.92188323764E+03  0.00000000000E+00 0. -1.
         -2   -1    0    0    0  501 -0.00000000000E+00 -0.00000000000E+00 -0.98361556121E+03  0.98361556121E+03  0.00000000000E+00 0.  1.
         23    2    1    2    0    0 -0.11193044538E+03  0.27592564274E+03 -0.93372645897E+03  0.98406667596E+03  0.88762253399E+02 0.  0.
         11    1    3    3    0    0 -0.17834770467E+02  0.13179999297E+03 -0.50129876012E+03  0.51864223129E+03  0.00000000000E+00 0. -1.
        -11    1    3    3    0    0 -0.94095674908E+02  0.14412564977E+03 -0.43242769885E+03  0.46542444467E+03  0.00000000000E+00 0.  1.
         22    1    1    2    0    0  0.11193044538E+03 -0.27592564274E+03  0.87199413540E+03  0.92143212289E+03  0.00000000000E+00 0. -1.
<mgrwt>
<rscale>  0 0.19044986E+04</rscale>
<asrwt>0</asrwt>
<pdfrwt beam="1">  1        2 0.14182819E+00 0.19044986E+04</pdfrwt>
<pdfrwt beam="2">  1       -2 0.15132547E+00 0.19044986E+04</pdfrwt>
<totfact> 0.77651705E+00</totfact>
</mgrwt>
</event>
<event>
 6    1  0.1014650E-006  0.2949288E+04  0.7818608E-02  0.8258362E-01
          2   -1    0    0  501    0  0.00000000000E+00  0.00000000000E+00  0.18197545129E+04  0.18197545129E+04  0.00000000000E+00 0. -1.
         -2   -1    0    0    0  501 -0.00000000000E+00 -0.00000000000E+00 -0.11949825431E+04  0.11949825431E+04  0.00000000000E+00 0.  1.
         23    2    1    2    0    0 -0.12643758507E+04  0.41598693606E+03 -0.33273059514E+03  0.13750716680E+04  0.91766117232E+02 0.  0.
         11    1    3    3    0    0 -0.27906733979E+03  0.65147846293E+02 -0.10059276800E+03  0.30371323150E+03  0.00000000000E+00 0. -1.
        -11    1    3    3    0    0 -0.98530851095E+03  0.35083908977E+03 -0.23213782714E+03  0.10713584365E+04  0.00000000000E+00 0.  1.
         22    1    1    2    0    0  0.12643758507E+04 -0.41598693606E+03  0.95750256492E+03  0.16396653880E+04  0.00000000000E+00 0.  1.
<mgrwt>
<rscale>  0 0.29492880E+04</rscale>
<asrwt>0</asrwt>
<pdfrwt beam="1">  1        2 0.27996223E+00 0.29492880E+04</pdfrwt>
<pdfrwt beam="2">  1       -2 0.18384347E+00 0.29492880E+04</pdfrwt>
<totfact> 0.12341479E+00</totfact>
</mgrwt>
</event>
<event>
 6    1  0.1014650E-006  0.3903999E+04  0.7818608E-02  0.8024198E-01
         -1   -1    0    0    0  501 -0.00000000000E+00  0.00000000000E+00  0.26163626247E+04  0.26163626247E+04  0.00000000000E+00 0.  1.
          1   -1    0    0  501    0  0.00000000000E+00 -0.00000000000E+00 -0.14563354149E+04  0.14563354149E+04  0.00000000000E+00 0. -1.
         23    2    1    2    0    0  0.18178551037E+04  0.61659978402E+03  0.94381594606E+03  0.21409786546E+04  0.90601256338E+02 0.  0.
         13    1    3    3    0    0  0.85086704228E+03  0.24194051721E+03  0.44482068945E+03  0.99013907269E+03  0.00000000000E+00 0. -1.
        -13    1    3    3    0    0  0.96698806146E+03  0.37465926681E+03  0.49899525661E+03  0.11508395819E+04  0.00000000000E+00 0.  1.
         22    1    1    2    0    0 -0.18178551037E+04 -0.61659978402E+03  0.21621126378E+03  0.19317193850E+04  0.00000000000E+00 0. -1.
<mgrwt>
<rscale>  0 0.39039987E+04</rscale>
<asrwt>0</asrwt>
<pdfrwt beam="1">  1        1 0.22405160E+00 0.39039987E+04</pdfrwt>
<pdfrwt beam="2">  1       -1 0.40251733E+00 0.39039987E+04</pdfrwt>
<totfact> 0.38020852E-02</totfact>
</mgrwt>
</event>
<event>
 6    1  0.1014650E-006  0.2690427E+04  0.7818608E-02  0.8338118E-01
          1   -1    0    0  501    0  0.00000000000E+00  0.00000000000E+00  0.17082793450E+04  0.17082793450E+04  0.00000000000E+00 0. -1.
         -1   -1    0    0    0  501 -0.00000000000E+00 -0.00000000000E+00 -0.10593114941E+04  0.10593114941E+04  0.00000000000E+00 0.  1.
         23    2    1    2    0    0  0.25258569679E+03 -0.11253523106E+04  0.10339410793E+04  0.15516871654E+04  0.92095312069E+02 0.  0.
         13    1    3    3    0    0  0.15880897514E+03 -0.88178526976E+03  0.79442946702E+03  0.11974488426E+04  0.00000000000E+00 0. -1.
        -13    1    3    3    0    0  0.93776721648E+02 -0.24356704085E+03  0.23951161231E+03  0.35423832280E+03  0.00000000000E+00 0.  1.
         22    1    1    2    0    0 -0.25258569679E+03  0.11253523106E+04 -0.38497322835E+03  0.12159036737E+04  0.00000000000E+00 0.  1.
<mgrwt>
<rscale>  0 0.26904274E+04</rscale>
<asrwt>0</asrwt>
<pdfrwt beam="1">  1        1 0.26281221E+00 0.26904274E+04</pdfrwt>
<pdfrwt beam="2">  1       -1 0.16297100E+00 0.26904274E+04</pdfrwt>
<totfact> 0.11409474E+00</totfact>
</mgrwt>
</event>
<event>
 6    1  0.1014650E-006  0.4386560E+04  0.7818608E-02  0.7930803E-01
         -1   -1    0    0    0  501 -0.00000000000E+00  0.00000000000E+00  0.13647991957E+04  0.13647991957E+04  0.00000000000E+00 0.  1.
          1   -1    0    0  501    0  0.00000000000E+00 -0.00000000000E+00 -0.35246769245E+04  0.35246769245E+04  0.00000000000E+00 0. -1.
         23    2    1    2    0    0  0.14280271280E+04  0.98037246194E+03 -0.25783107607E+04  0.31074890707E+04  0.91707708367E+02 0.  0.
         13    1    3    3    0    0  0.33653009517E+03  0.25357251841E+03 -0.56629555883E+03  0.70586272532E+03  0.00000000000E+00 0.  1.
        -13    1    3    3    0    0  0.10914970328E+04  0.72679994352E+03 -0.20120152018E+04  0.24016263454E+04  0.00000000000E+00 0. -1.
         22    1    1    2    0    0 -0.14280271280E+04 -0.98037246194E+03  0.41843303180E+03  0.17819870495E+04  0.00000000000E+00 0.  1.
<mgrwt>
<rscale>  0 0.43865596E+04</rscale>
<asrwt>0</asrwt>
<pdfrwt beam="1">  1        1 0.54225799E+00 0.43865596E+04</pdfrwt>
<pdfrwt beam="2">  1       -1 0.20996911E+00 0.43865596E+04</pdfrwt>
<totfact> 0.23270437E-02</totfact>
</mgrwt>
</event>
<event>
 6    1  0.1014650E-006  0.1952373E+04  0.7818608E-02  0.8629217E-01
          2   -1    0    0  501    0  0.00000000000E+00  0.00000000000E+00  0.94380732340E+03  0.94380732340E+03  0.00000000000E+00 0. -1.
         -2   -1    0    0    0  501 -0.00000000000E+00 -0.00000000000E+00 -0.10096768625E+04  0.10096768625E+04  0.00000000000E+00 0.  1.
         23    2    1    2    0    0 -0.62351222584E+03 -0.17257269353E+03  0.69543137642E+03  0.95442066726E+03  0.93515669606E+02 0.  0.
         11    1    3    3    0    0 -0.12809936902E+03 -0.30992191787E+02  0.20074235136E+03  0.24014049206E+03  0.00000000000E+00 0. -1.
        -11    1    3    3    0    0 -0.49541285682E+03 -0.14158050175E+03  0.49468902506E+03  0.71428017520E+03  0.00000000000E+00 0.  1.
         22    1    1    2    0    0  0.62351222584E+03  0.17257269353E+03 -0.76130091555E+03  0.99906351867E+03  0.00000000000E+00 0.  1.
<mgrwt>
<rscale>  0 0.19523733E+04</rscale>
<asrwt>0</asrwt>
<pdfrwt beam="1">  1        2 0.14520113E+00 0.19523733E+04</pdfrwt>
<pdfrwt beam="2">  1       -2 0.15533490E+00 0.19523733E+04</pdfrwt>
<totfact> 0.69749167E+00</totfact>
</mgrwt>
</event>
<event>
 6    1  0.1014650E-006  0.6506501E+03  0.7818608E-02  0.9805560E-01
         -1   -1    0    0    0  501 -0.00000000000E+00  0.00000000000E+00  0.96207457933E+02  0.96207457933E+02  0.00000000000E+00 0.  1.
          1   -1    0    0  501    0  0.00000000000E+00 -0.00000000000E+00 -0.11000849047E+04  0.11000849047E+04  0.00000000000E+00 0. -1.
         23    2    1    2    0    0  0.21071506958E+03  0.16954048709E+03 -0.20102698071E+03  0.34911251859E+03  0.91229854465E+02 0.  0.
         11    1    3    3    0    0  0.19884583411E+03  0.15666760169E+03 -0.21047407052E+03  0.32921685486E+03  0.00000000000E+00 0. -1.
        -11    1    3    3    0    0  0.11869235473E+02  0.12872885403E+02  0.94470898068E+01  0.19895663726E+02  0.00000000000E+00 0.  1.
         22    1    1    2    0    0 -0.21071506958E+03 -0.16954048709E+03 -0.80285046603E+03  0.84717984402E+03  0.00000000000E+00 0. -1.
<mgrwt>
<rscale>  0 0.65065005E+03</rscale>
<asrwt>0</asrwt>
<pdfrwt beam="1">  1        1 0.16924385E+00 0.65065005E+03</pdfrwt>
<pdfrwt beam="2">  1       -1 0.14801146E-01 0.65065005E+03</pdfrwt>
<totfact> 0.43276316E+02</totfact>
</mgrwt>
</event>
<event>
 6    1  0.1014650E-006  0.3008988E+04  0.7818608E-02  0.8241169E-01
         -2   -1    0    0    0  501 -0.00000000000E+00  0.00000000000E+00  0.12310020510E+04  0.12310020510E+04  0.00000000000E+00 0.  1.
          2   -1    0    0  501    0  0.00000000000E+00 -0.00000000000E+00 -0.18387477394E+04  0.18387477394E+04  0.00000000000E+00 0. -1.
         23    2    1    2    0    0  0.11512133032E+04  0.94906862760E+03 -0.49014591586E+03  0.15731359338E+04  0.92142921456E+02 0.  0.
         13    1    3    3    0    0  0.87277662042E+03  0.74665198109E+03 -0.41117556251E+03  0.12199563735E+04  0.00000000000E+00 0. -1.
        -13    1    3    3    0    0  0.27843668277E+03  0.20241664651E+03 -0.78970353352E+02  0.35317956028E+03  0.00000000000E+00 0.  1.
         22    1    1    2    0    0 -0.11512133032E+04 -0.94906862760E+03 -0.11759977258E+03  0.14966138566E+04  0.00000000000E+00 0. -1.
<mgrwt>
<rscale>  0 0.30089880E+04</rscale>
<asrwt>0</asrwt>
<pdfrwt beam="1">  1        2 0.28288427E+00 0.30089880E+04</pdfrwt>
<pdfrwt beam="2">  1       -2 0.18938493E+00 0.30089880E+04</pdfrwt>
<totfact> 0.10993126E+00</totfact>
</mgrwt>
</event>
<event>
 6    1  0.1014650E-006  0.4714098E+04  0.7818608E-02  0.7874190E-01
          2   -1    0    0  501    0  0.00000000000E+00  0.00000000000E+00  0.40715331991E+04  0.40715331991E+04  0.00000000000E+00 0. -1.
         -2   -1    0    0    0  501 -0.00000000000E+00 -0.00000000000E+00 -0.13645181900E+04  0.13645181900E+04  0.00000000000E+00 0.  1.
         23    2    1    2    0    0 -0.16127048080E+04  0.16645725394E+04  0.86415382582E+03  0.24750117275E+04  0.85455719514E+02 0.  0.
         13    1    3    3    0    0 -0.10401478974E+04  0.10211162198E+04  0.52259024841E+03  0.15484464958E+04  0.00000000000E+00 0. -1.
        -13    1    3    3    0    0 -0.57255691062E+03  0.64345631960E+03  0.34156357741E+03  0.92656523168E+03  0.00000000000E+00 0.  1.
         22    1    1    2    0    0  0.16127048080E+04 -0.16645725394E+04  0.18428611832E+04  0.29610396616E+04  0.00000000000E+00 0. -1.
<mgrwt>
<rscale>  0 0.47140985E+04</rscale>
<asrwt>0</asrwt>
<pdfrwt beam="1">  1        2 0.62638971E+00 0.47140985E+04</pdfrwt>
<pdfrwt beam="2">  1       -2 0.20992588E+00 0.47140985E+04</pdfrwt>
<totfact> 0.25391666E-02</totfact>
</mgrwt>
</event>
<event>
 6    1  0.1014650E-006  0.1556112E+04  0.7818608E-02  0.8847973E-01
         -1   -1    0    0    0  501 -0.00000000000E+00  0.00000000000E+00  0.46902748715E+03  0.46902748715E+03  0.00000000000E+00 0.  1.
          1   -1    0    0  501    0  0.00000000000E+00 -0.00000000000E+00 -0.12906939153E+04  0.12906939153E+04  0.00000000000E+00 0. -1.
         23    2    1    2    0    0 -0.27204697849E+03  0.22001814143E+03  0.37022666511E+03  0.51753514958E+03  0.91418304690E+02 0.  0.
         11    1    3    3    0    0 -0.14423512864E+03  0.16949690359E+03  0.25236796339E+03  0.33648560386E+03  0.00000000000E+00 0. -1.
        -11    1    3    3    0    0 -0.12781184985E+03  0.50521237839E+02  0.11785870172E+03  0.18104954572E+03  0.00000000000E+00 0.  1.
         22    1    1    2    0    0  0.27204697849E+03 -0.22001814143E+03 -0.11918930933E+04  0.12421862529E+04  0.00000000000E+00 0. -1.
<mgrwt>
<rscale>  0 0.15561117E+04</rscale>
<asrwt>0</asrwt>
<pdfrwt beam="1">  1        1 0.19856829E+00 0.15561117E+04</pdfrwt>
<pdfrwt beam="2">  1       -1 0.72158076E-01 0.15561117E+04</pdfrwt>
<totfact> 0.17141029E+01</totfact>
</mgrwt>
</event>
<event>
 6    1  0.1014650E-006  0.3947774E+04  0.7818608E-02  0.8015166E-01
          2   -1    0    0  501    0  0.00000000000E+00  0.00000000000E+00  0.20428757921E+04  0.20428757921E+04  0.00000000000E+00 0. -1.
         -2   -1    0    0    0  501 -0.00000000000E+00 -0.00000000000E+00 -0.19072281709E+04  0.19072281709E+04  0.00000000000E+00 0.  1.
         23    2    1    2    0    0 -0.14239136025E+04 -0.10187901235E+04 -0.84180662501E+03  0.19448907407E+04  0.92186422581E+02 0.  0.
         13    1    3    3    0    0 -0.10576090667E+04 -0.72591370468E+03 -0.58033245453E+03  0.14079323146E+04  0.00000000000E+00 0. -1.
        -13    1    3    3    0    0 -0.36630453577E+03 -0.29287641879E+03 -0.26147417049E+03  0.53695842618E+03  0.00000000000E+00 0.  1.
         22    1    1    2    0    0  0.14239136025E+04  0.10187901235E+04  0.97745424626E+03  0.20052132222E+04  0.00000000000E+00 0.  1.
<mgrwt>
<rscale>  0 0.39477742E+04</rscale>
<asrwt>0</asrwt>
<pdfrwt beam="1">  1        2 0.31428858E+00 0.39477742E+04</pdfrwt>
<pdfrwt beam="2">  1       -2 0.29341972E+00 0.39477742E+04</pdfrwt>
<totfact> 0.17469758E-01</totfact>
</mgrwt>
</event>
<event>
 6    1  0.1014650E-006  0.1143218E+04  0.7818608E-02  0.9164063E-01
         -1   -1    0    0    0  501 -0.00000000000E+00  0.00000000000E+00  0.20447979469E+03  0.20447979469E+03  0.00000000000E+00 0.  1.
          1   -1    0    0  501    0  0.00000000000E+00 -0.00000000000E+00 -0.15978927998E+04  0.15978927998E+04  0.00000000000E+00 0. -1.
         23    2    1    2    0    0 -0.41901430542E+01 -0.45146608483E+03 -0.15550152329E+03  0.48469887923E+03  0.83145034304E+02 0.  0.
         11    1    3    3    0    0 -0.21434271867E+02 -0.19036434787E+03 -0.27948172809E+02  0.19359523060E+03  0.00000000000E+00 0.  1.
        -11    1    3    3    0    0  0.17244128813E+02 -0.26110173696E+03 -0.12755335048E+03  0.29110364862E+03  0.00000000000E+00 0. -1.
         22    1    1    2    0    0  0.41901430542E+01  0.45146608483E+03 -0.12379114818E+04  0.13176737153E+04  0.00000000000E+00 0. -1.
<mgrwt>
<rscale>  0 0.11432179E+04</rscale>
<asrwt>0</asrwt>
<pdfrwt beam="1">  1        1 0.24582967E+00 0.11432179E+04</pdfrwt>
<pdfrwt beam="2">  1       -1 0.31458428E-01 0.11432179E+04</pdfrwt>
<totfact> 0.52209707E+01</totfact>
</mgrwt>
</event>
<event>
 6    1  0.1014650E-006  0.3392345E+04  0.7818608E-02  0.8139788E-01
         -2   -1    0    0    0  501 -0.00000000000E+00  0.00000000000E+00  0.11061769227E+04  0.11061769227E+04  0.00000000000E+00 0.  1.
          2   -1    0    0  501    0  0.00000000000E+00 -0.00000000000E+00 -0.26008503860E+04  0.26008503860E+04  0.00000000000E+00 0. -1.
         23    2    1    2    0    0 -0.40584980011E+03  0.57083855803E+03 -0.24345206375E+04  0.25348995724E+04  0.90853665374E+02 0.  0.
         13    1    3    3    0    0 -0.38883932561E+03  0.50058821980E+03 -0.21997286726E+04  0.22892336753E+04  0.00000000000E+00 0. -1.
        -13    1    3    3    0    0 -0.17010474502E+02  0.70250338229E+02 -0.23479196484E+03  0.24566589714E+03  0.00000000000E+00 0.  1.
         22    1    1    2    0    0  0.40584980011E+03 -0.57083855803E+03  0.93984717416E+03  0.11721277364E+04  0.00000000000E+00 0.  1.
<mgrwt>
<rscale>  0 0.33923447E+04</rscale>
<asrwt>0</asrwt>
<pdfrwt beam="1">  1        2 0.40013082E+00 0.33923447E+04</pdfrwt>
<pdfrwt beam="2">  1       -2 0.17018107E+00 0.33923447E+04</pdfrwt>
<totfact> 0.53533630E-01</totfact>
</mgrwt>
</event>
<event>
 6    1  0.1014650E-006  0.7060219E+03  0.7818608E-02  0.9706989E-01
          1   -1    0    0  501    0  0.00000000000E+00  0.00000000000E+00  0.33758005976E+03  0.33758005976E+03  0.00000000000E+00 0. -1.
         -1   -1    0    0    0  501 -0.00000000000E+00 -0.00000000000E+00 -0.36914714258E+03  0.36914714258E+03  0.00000000000E+00 0.  1.
         23    2    1    2    0    0 -0.78653468908E+02 -0.32662578025E+02  0.32088237141E+03  0.34413400058E+03  0.90606301650E+02 0.  0.
         11    1    3    3    0    0 -0.62870966767E+02  0.19405122372E+02  0.13077973582E+03  0.14639896358E+03  0.00000000000E+00 0. -1.
        -11    1    3    3    0    0 -0.15782502140E+02 -0.52067700398E+02  0.19010263559E+03  0.19773503700E+03  0.00000000000E+00 0.  1.
         22    1    1    2    0    0  0.78653468908E+02  0.32662578025E+02 -0.35244945423E+03  0.36259320176E+03  0.00000000000E+00 0.  1.
<mgrwt>
<rscale>  0 0.70602185E+03</rscale>
<asrwt>0</asrwt>
<pdfrwt beam="1">  1        1 0.51935394E-01 0.70602185E+03</pdfrwt>
<pdfrwt beam="2">  1       -1 0.56791868E-01 0.70602185E+03</pdfrwt>
<totfact> 0.23904468E+02</totfact>
</mgrwt>
</event>
<event>
 6    1  0.1014650E-006  0.2076355E+04  0.7818608E-02  0.8571731E-01
         -2   -1    0    0    0  501 -0.00000000000E+00  0.00000000000E+00  0.15883334951E+04  0.15883334951E+04  0.00000000000E+00 0.  1.
          2   -1    0    0  501    0  0.00000000000E+00 -0.00000000000E+00 -0.67858088271E+03  0.67858088271E+03  0.00000000000E+00 0. -1.
         23    2    1    2    0    0 -0.66583846117E+02  0.97497702398E+03  0.79729482443E+02  0.98474746117E+03  0.91417536910E+02 0.  0.
         13    1    3    3    0    0 -0.32457603758E+02  0.13160435403E+03 -0.10069342970E+02  0.13592127762E+03  0.00000000000E+00 0.  1.
        -13    1    3    3    0    0 -0.34126242359E+02  0.84337266995E+03  0.89798825413E+02  0.84882618355E+03  0.00000000000E+00 0. -1.
         22    1    1    2    0    0  0.66583846117E+02 -0.97497702398E+03  0.83002312995E+03  0.12821669166E+04  0.00000000000E+00 0. -1.
<mgrwt>
<rscale>  0 0.20763552E+04</rscale>
<asrwt>0</asrwt>
<pdfrwt beam="1">  1        2 0.10439706E+00 0.20763552E+04</pdfrwt>
<pdfrwt beam="2">  1       -2 0.24435900E+00 0.20763552E+04</pdfrwt>
<totfact> 0.27383537E+00</totfact>
</mgrwt>
</event>
<event>
 6    1  0.1014650E-006  0.2491443E+04  0.7818608E-02  0.8406040E-01
          2   -1    0    0  501    0  0.00000000000E+00  0.00000000000E+00  0.11690456357E+04  0.11690456357E+04  0.00000000000E+00 0. -1.
         -2   -1    0    0    0  501 -0.00000000000E+00 -0.00000000000E+00 -0.13274261808E+04  0.13274261808E+04  0.00000000000E+00 0.  1.
         23    2    1    2    0    0 -0.73357774258E+03  0.68046203112E+03  0.66169892005E+03  0.12027580888E+04  0.87273588193E+02 0.  0.
         11    1    3    3    0    0 -0.51347477871E+03  0.42136948744E+03  0.44853270728E+03  0.80149247209E+03  0.00000000000E+00 0.  1.
        -11    1    3    3    0    0 -0.22010296387E+03  0.25909254368E+03  0.21316621278E+03  0.40126561672E+03  0.00000000000E+00 0. -1.
         22    1    1    2    0    0  0.73357774258E+03 -0.68046203112E+03 -0.82007946509E+03  0.12937137277E+04  0.00000000000E+00 0.  1.
<mgrwt>
<rscale>  0 0.24914428E+04</rscale>
<asrwt>0</asrwt>
<pdfrwt beam="1">  1        2 0.17985318E+00 0.24914428E+04</pdfrwt>
<pdfrwt beam="2">  1       -2 0.20421941E+00 0.24914428E+04</pdfrwt>
<totfact> 0.22021610E+00</totfact>
</mgrwt>
</event>
<event>
 6    1  0.1014650E-006  0.2522255E+04  0.7818608E-02  0.8395100E-01
          1   -1    0    0  501    0  0.00000000000E+00  0.00000000000E+00  0.29860234598E+04  0.29860234598E+04  0.00000000000E+00 0. -1.
         -1   -1    0    0    0  501 -0.00000000000E+00 -0.00000000000E+00 -0.53262894756E+03  0.53262894756E+03  0.00000000000E+00 0.  1.
         23    2    1    2    0    0 -0.17788226087E+03 -0.98470224883E+03  0.16128304819E+03  0.10176414955E+04  0.91111877220E+02 0.  0.
         11    1    3    3    0    0 -0.50171764169E+02 -0.12227146290E+03  0.34885778561E+02  0.13669138271E+03  0.00000000000E+00 0. -1.
        -11    1    3    3    0    0 -0.12771049670E+03 -0.86243078593E+03  0.12639726963E+03  0.88095011281E+03  0.00000000000E+00 0.  1.
         22    1    1    2    0    0  0.17788226087E+03  0.98470224883E+03  0.22921114641E+04  0.25010109119E+04  0.00000000000E+00 0.  1.
<mgrwt>
<rscale>  0 0.25222550E+04</rscale>
<asrwt>0</asrwt>
<pdfrwt beam="1">  1        1 0.45938822E+00 0.25222550E+04</pdfrwt>
<pdfrwt beam="2">  1       -1 0.81942916E-01 0.25222550E+04</pdfrwt>
<totfact> 0.80396462E-01</totfact>
</mgrwt>
</event>
<event>
 6    1  0.1014650E-006  0.6777234E+03  0.7818608E-02  0.9756105E-01
          1   -1    0    0  501    0  0.00000000000E+00  0.00000000000E+00  0.33637173962E+03  0.33637173962E+03  0.00000000000E+00 0. -1.
         -1   -1    0    0    0  501 -0.00000000000E+00 -0.00000000000E+00 -0.34137008947E+03  0.34137008947E+03  0.00000000000E+00 0.  1.
         23    2    1    2    0    0  0.88700315822E+02 -0.10045065489E+03 -0.30724425411E+03  0.34712019226E+03  0.90195987168E+02 0.  0.
         13    1    3    3    0    0  0.50779489515E+02 -0.10843284340E+03 -0.20014579462E+03  0.23322645044E+03  0.00000000000E+00 0. -1.
        -13    1    3    3    0    0  0.37920826307E+02  0.79821885095E+01 -0.10709845949E+03  0.11389374182E+03  0.00000000000E+00 0.  1.
         22    1    1    2    0    0 -0.88700315822E+02  0.10045065489E+03  0.30224590426E+03  0.33062163682E+03  0.00000000000E+00 0. -1.
<mgrwt>
<rscale>  0 0.67772340E+03</rscale>
<asrwt>0</asrwt>
<pdfrwt beam="1">  1        1 0.51749499E-01 0.67772340E+03</pdfrwt>
<pdfrwt beam="2">  1       -1 0.52518475E-01 0.67772340E+03</pdfrwt>
<totfact> 0.27953507E+02</totfact>
</mgrwt>
</event>
<event>
 6    1  0.1014650E-006  0.7814896E+03  0.7818608E-02  0.9587203E-01
          2   -1    0    0  501    0  0.00000000000E+00  0.00000000000E+00  0.13823634004E+04  0.13823634004E+04  0.00000000000E+00 0. -1.
         -2   -1    0    0    0  501 -0.00000000000E+00 -0.00000000000E+00 -0.11044961134E+03  0.11044961134E+03  0.00000000000E+00 0.  1.
         23    2    1    2    0    0 -0.71636867077E+02 -0.21718705018E+03  0.51845993431E+02  0.25149617812E+03  0.90886000461E+02 0.  0.
         11    1    3    3    0    0 -0.41886890951E+02 -0.13009133998E+03  0.75951761539E+02  0.15635516765E+03  0.00000000000E+00 0. -1.
        -11    1    3    3    0    0 -0.29749976126E+02 -0.87095710209E+02 -0.24105768109E+02  0.95141010465E+02  0.00000000000E+00 0.  1.
         22    1    1    2    0    0  0.71636867077E+02  0.21718705018E+03  0.12200677957E+04  0.12413168337E+04  0.00000000000E+00 0. -1.
<mgrwt>
<rscale>  0 0.78148960E+03</rscale>
<asrwt>0</asrwt>
<pdfrwt beam="1">  1        2 0.21267128E+00 0.78148960E+03</pdfrwt>
<pdfrwt beam="2">  1       -2 0.16992249E-01 0.78148960E+03</pdfrwt>
<totfact> 0.42323762E+02</totfact>
</mgrwt>
</event>
<event>
 6    1  0.1014650E-006  0.7539966E+03  0.7818608E-02  0.9629101E-01
          1   -1    0    0  501    0  0.00000000000E+00  0.00000000000E+00  0.59229540572E+03  0.59229540572E+03  0.00000000000E+00 0. -1.
         -1   -1    0    0    0  501 -0.00000000000E+00 -0.00000000000E+00 -0.23996088008E+03  0.23996088008E+03  0.00000000000E+00 0.  1.
         23    2    1    2    0    0  0.22080120799E+03 -0.20255487089E+03 -0.62947253421E+02  0.32016195349E+03  0.93593111793E+02 0.  0.
         13    1    3    3    0    0  0.56761373221E+02 -0.16405279183E+02  0.13364594791E+02  0.60577215758E+02  0.00000000000E+00 0. -1.
        -13    1    3    3    0    0  0.16403983477E+03 -0.18614959171E+03 -0.76311848212E+02  0.25958473773E+03  0.00000000000E+00 0.  1.
         22    1    1    2    0    0 -0.22080120799E+03  0.20255487089E+03  0.41528177906E+03  0.51209433232E+03  0.00000000000E+00 0.  1.
<mgrwt>
<rscale>  0 0.75399662E+03</rscale>
<asrwt>0</asrwt>
<pdfrwt beam="1">  1        1 0.91122370E-01 0.75399662E+03</pdfrwt>
<pdfrwt beam="2">  1       -1 0.36917059E-01 0.75399662E+03</pdfrwt>
<totfact> 0.24878213E+02</totfact>
</mgrwt>
</event>
<event>
 6    1  0.1014650E-006  0.1667391E+04  0.7818608E-02  0.8780184E-01
         -1   -1    0    0    0  501 -0.00000000000E+00  0.00000000000E+00  0.16332685377E+04  0.16332685377E+04  0.00000000000E+00 0.  1.
          1   -1    0    0  501    0  0.00000000000E+00 -0.00000000000E+00 -0.42555669650E+03  0.42555669650E+03  0.00000000000E+00 0. -1.
         23    2    1    2    0    0  0.50114101206E+03 -0.22327374740E+02 -0.21255644120E+03  0.55257066753E+03  0.92267417302E+02 0.  0.
         13    1    3    3    0    0  0.36370475602E+03 -0.56615550507E+02 -0.16218894094E+03  0.40223341814E+03  0.00000000000E+00 0.  1.
        -13    1    3    3    0    0  0.13743625604E+03  0.34288175767E+02 -0.50367500256E+02  0.15033724939E+03  0.00000000000E+00 0. -1.
         22    1    1    2    0    0 -0.50114101206E+03  0.22327374740E+02  0.14202682824E+04  0.15062545667E+04  0.00000000000E+00 0.  1.
<mgrwt>
<rscale>  0 0.16673912E+04</rscale>
<asrwt>0</asrwt>
<pdfrwt beam="1">  1        1 0.65470262E-01 0.16673912E+04</pdfrwt>
<pdfrwt beam="2">  1       -1 0.25127208E+00 0.16673912E+04</pdfrwt>
<totfact> 0.36048890E+00</totfact>
</mgrwt>
</event>
<event>
 6    1  0.1014650E-006  0.4896814E+04  0.7818608E-02  0.7844625E-01
          2   -1    0    0  501    0  0.00000000000E+00  0.00000000000E+00  0.37694726320E+04  0.37694726320E+04  0.00000000000E+00 0. -1.
         -2   -1    0    0    0  501 -0.00000000000E+00 -0.00000000000E+00 -0.15903279810E+04  0.15903279810E+04  0.00000000000E+00 0.  1.
         23    2    1    2    0    0  0.26394106289E+03 -0.88136281073E+03 -0.13925667745E+04  0.16714964233E+04  0.90513992264E+02 0.  0.
         11    1    3    3    0    0  0.20665419307E+02 -0.19852103933E+03 -0.30040991669E+03  0.36067129170E+03  0.00000000000E+00 0. -1.
        -11    1    3    3    0    0  0.24327564359E+03 -0.68284177140E+03 -0.10921568579E+04  0.13108251316E+04  0.00000000000E+00 0.  1.
         22    1    1    2    0    0 -0.26394106289E+03  0.88136281073E+03  0.35717114255E+04  0.36883041897E+04  0.00000000000E+00 0. -1.
<mgrwt>
<rscale>  0 0.48968144E+04</rscale>
<asrwt>0</asrwt>
<pdfrwt beam="1">  1        2 0.57991886E+00 0.48968144E+04</pdfrwt>
<pdfrwt beam="2">  1       -2 0.24466584E+00 0.48968144E+04</pdfrwt>
<totfact> 0.26269548E-02</totfact>
</mgrwt>
</event>
<event>
 6    1  0.1014650E-006  0.3267275E+04  0.7818608E-02  0.8171273E-01
         -1   -1    0    0    0  501 -0.00000000000E+00  0.00000000000E+00  0.17847554689E+04  0.17847554689E+04  0.00000000000E+00 0.  1.
          1   -1    0    0  501    0  0.00000000000E+00 -0.00000000000E+00 -0.14953147046E+04  0.14953147046E+04  0.00000000000E+00 0. -1.
         23    2    1    2    0    0 -0.12236488927E+04  0.48834345395E+03 -0.82268528493E+03  0.15559413236E+04  0.91358540034E+02 0.  0.
         13    1    3    3    0    0 -0.44803781935E+03  0.13314003068E+03 -0.30352957188E+03  0.55730992844E+03  0.00000000000E+00 0. -1.
        -13    1    3    3    0    0 -0.77561107334E+03  0.35520342327E+03 -0.51915571305E+03  0.99863139515E+03  0.00000000000E+00 0.  1.
         22    1    1    2    0    0  0.12236488927E+04 -0.48834345395E+03  0.11121260492E+04  0.17241288499E+04  0.00000000000E+00 0.  1.
<mgrwt>
<rscale>  0 0.32672748E+04</rscale>
<asrwt>0</asrwt>
<pdfrwt beam="1">  1        1 0.23004841E+00 0.32672748E+04</pdfrwt>
<pdfrwt beam="2">  1       -1 0.27457777E+00 0.32672748E+04</pdfrwt>
<totfact> 0.26456646E-01</totfact>
</mgrwt>
</event>
<event>
 6    1  0.1014650E-006  0.3308184E+04  0.7818608E-02  0.8160816E-01
          2   -1    0    0  501    0  0.00000000000E+00  0.00000000000E+00  0.29414505984E+04  0.29414505984E+04  0.00000000000E+00 0. -1.
         -2   -1    0    0    0  501 -0.00000000000E+00 -0.00000000000E+00 -0.93016025410E+03  0.93016025410E+03  0.00000000000E+00 0.  1.
         23    2    1    2    0    0  0.39518726917E+03 -0.14717918268E+04  0.25755338088E+03  0.15482646673E+04  0.91899819614E+02 0.  0.
         11    1    3    3    0    0  0.15152902220E+03 -0.67387704728E+03  0.15304343873E+03  0.70745573258E+03  0.00000000000E+00 0.  1.
        -11    1    3    3    0    0  0.24365824697E+03 -0.79791477957E+03  0.10450994215E+03  0.84080893476E+03  0.00000000000E+00 0. -1.
         22    1    1    2    0    0 -0.39518726917E+03  0.14717918268E+04  0.17537369635E+04  0.23233461852E+04  0.00000000000E+00 0. -1.
<mgrwt>
<rscale>  0 0.33081841E+04</rscale>
<asrwt>0</asrwt>
<pdfrwt beam="1">  1        2 0.45253086E+00 0.33081841E+04</pdfrwt>
<pdfrwt beam="2">  1       -2 0.14310158E+00 0.33081841E+04</pdfrwt>
<totfact> 0.53585363E-01</totfact>
</mgrwt>
</event>
<event>
 6    1  0.1014650E-006  0.1750192E+04  0.7818608E-02  0.8733245E-01
          2   -1    0    0  501    0  0.00000000000E+00  0.00000000000E+00  0.10239292359E+04  0.10239292359E+04  0.00000000000E+00 0. -1.
         -2   -1    0    0    0  501 -0.00000000000E+00 -0.00000000000E+00 -0.74789643813E+03  0.74789643813E+03  0.00000000000E+00 0.  1.
         23    2    1    2    0    0  0.66594005346E+03  0.87869206294E+02 -0.42298023376E+03  0.80238440688E+03  0.11709528618E+03 0.  0.
         13    1    3    3    0    0  0.33914704486E+03  0.35144278420E+01 -0.26132208899E+03  0.42816153894E+03  0.00000000000E+00 0.  1.
        -13    1    3    3    0    0  0.32679300860E+03  0.84354778452E+02 -0.16165814477E+03  0.37422286794E+03  0.00000000000E+00 0. -1.
         22    1    1    2    0    0 -0.66594005346E+03 -0.87869206294E+02  0.69901303154E+03  0.96944126716E+03  0.00000000000E+00 0. -1.
<mgrwt>
<rscale>  0 0.17501920E+04</rscale>
<asrwt>0</asrwt>
<pdfrwt beam="1">  1        2 0.15752757E+00 0.17501920E+04</pdfrwt>
<pdfrwt beam="2">  1       -2 0.11506099E+00 0.17501920E+04</pdfrwt>
<totfact> 0.13573117E+01</totfact>
</mgrwt>
</event>
<event>
 6    1  0.1014650E-006  0.1280166E+04  0.7818608E-02  0.9045443E-01
         -2   -1    0    0    0  501 -0.00000000000E+00  0.00000000000E+00  0.29368022809E+03  0.29368022809E+03  0.00000000000E+00 0.  1.
          2   -1    0    0  501    0  0.00000000000E+00 -0.00000000000E+00 -0.13950770547E+04  0.13950770547E+04  0.00000000000E+00 0. -1.
         23    2    1    2    0    0 -0.49270633508E+03  0.38647988328E+03 -0.40053810186E+03  0.74890134443E+03  0.91083587116E+02 0.  0.
         11    1    3    3    0    0 -0.16724935552E+03  0.18507006955E+03 -0.17413746386E+03  0.30421560427E+03  0.00000000000E+00 0.  1.
        -11    1    3    3    0    0 -0.32545697957E+03  0.20140981374E+03 -0.22640063800E+03  0.44468574016E+03  0.00000000000E+00 0. -1.
         22    1    1    2    0    0  0.49270633508E+03 -0.38647988328E+03 -0.70085872478E+03  0.93985593838E+03  0.00000000000E+00 0. -1.
<mgrwt>
<rscale>  0 0.12801665E+04</rscale>
<asrwt>0</asrwt>
<pdfrwt beam="1">  1        2 0.21462723E+00 0.12801665E+04</pdfrwt>
<pdfrwt beam="2">  1       -2 0.45181575E-01 0.12801665E+04</pdfrwt>
<totfact> 0.66384129E+01</totfact>
</mgrwt>
</event>
<event>
 6    1  0.1014650E-006  0.3995138E+04  0.7818608E-02  0.8005528E-01
          3   -1    0    0  501    0  0.00000000000E+00  0.00000000000E+00  0.83434121666E+03  0.83434121666E+03  0.00000000000E+00 0. -1.
         -3   -1    0    0    0  501 -0.00000000000E+00 -0.00000000000E+00 -0.47825542246E+04  0.47825542246E+04  0.00000000000E+00 0.  1.
         23    2    1    2    0    0 -0.75358277683E+03 -0.70169844923E+03  0.42960451268E+03  0.11196124883E+04  0.93297221059E+02 0.  0.
         13    1    3    3    0    0 -0.34479167180E+03 -0.38132896098E+03  0.19728164735E+03  0.55064791092E+03  0.00000000000E+00 0.  1.
        -13    1    3    3    0    0 -0.40879110503E+03 -0.32036948825E+03  0.23232286532E+03  0.56896457737E+03  0.00000000000E+00 0. -1.
         22    1    1    2    0    0  0.75358277683E+03  0.70169844923E+03 -0.43778175206E+04  0.44972829530E+04  0.00000000000E+00 0.  1.
<mgrwt>
<rscale>  0 0.39951381E+04</rscale>
<asrwt>0</asrwt>
<pdfrwt beam="1">  1        3 0.12836019E+00 0.39951381E+04</pdfrwt>
<pdfrwt beam="2">  1       -3 0.73577757E+00 0.39951381E+04</pdfrwt>
<totfact> 0.13166305E-04</totfact>
</mgrwt>
</event>
<event>
 6    1  0.1014650E-006  0.3656968E+04  0.7818608E-02  0.8077566E-01
         -2   -1    0    0    0  501 -0.00000000000E+00  0.00000000000E+00  0.90295332959E+03  0.90295332959E+03  0.00000000000E+00 0.  1.
          2   -1    0    0  501    0  0.00000000000E+00 -0.00000000000E+00 -0.37026864545E+04  0.37026864545E+04  0.00000000000E+00 0. -1.
         23    2    1    2    0    0  0.15294953102E+04  0.97140756858E+03 -0.17025199365E+04  0.24874175698E+04  0.75388754016E+02 0.  0.
         11    1    3    3    0    0  0.47447954747E+03  0.34172979212E+03 -0.53678558290E+03  0.79375616773E+03  0.00000000000E+00 0. -1.
        -11    1    3    3    0    0  0.10550157627E+04  0.62967777646E+03 -0.11657343536E+04  0.16936614021E+04  0.00000000000E+00 0.  1.
         22    1    1    2    0    0 -0.15294953102E+04 -0.97140756858E+03 -0.10972131885E+04  0.21182222143E+04  0.00000000000E+00 0.  1.
<mgrwt>
<rscale>  0 0.36569676E+04</rscale>
<asrwt>0</asrwt>
<pdfrwt beam="1">  1        2 0.56964408E+00 0.36569676E+04</pdfrwt>
<pdfrwt beam="2">  1       -2 0.13891590E+00 0.36569676E+04</pdfrwt>
<totfact> 0.17236835E-01</totfact>
</mgrwt>
</event>
<event>
 6    1  0.1014650E-006  0.5921226E+04  0.7818608E-02  0.7700246E-01
          2   -1    0    0  501    0  0.00000000000E+00  0.00000000000E+00  0.32186811227E+04  0.32186811227E+04  0.00000000000E+00 0. -1.
         -2   -1    0    0    0  501 -0.00000000000E+00 -0.00000000000E+00 -0.27232364741E+04  0.27232364741E+04  0.00000000000E+00 0.  1.
         23    2    1    2    0    0 -0.24635441529E+04 -0.10637025284E+04 -0.10058383058E+04  0.28671227466E+04  0.90384092864E+02 0.  0.
         11    1    3    3    0    0 -0.11666687568E+04 -0.52217121477E+03 -0.43441308561E+03  0.13499975906E+04  0.00000000000E+00 0. -1.
        -11    1    3    3    0    0 -0.12968753961E+04 -0.54153131367E+03 -0.57142522015E+03  0.15171251559E+04  0.00000000000E+00 0.  1.
         22    1    1    2    0    0  0.24635441529E+04  0.10637025284E+04  0.15012829544E+04  0.30747948503E+04  0.00000000000E+00 0. -1.
<mgrwt>
<rscale>  0 0.59212262E+04</rscale>
<asrwt>0</asrwt>
<pdfrwt beam="1">  1        2 0.49518171E+00 0.59212262E+04</pdfrwt>
<pdfrwt beam="2">  1       -2 0.41895946E+00 0.59212262E+04</pdfrwt>
<totfact> 0.47616975E-03</totfact>
</mgrwt>
</event>
<event>
 6    1  0.1014650E-006  0.1717995E+04  0.7818608E-02  0.8751167E-01
         -2   -1    0    0    0  501 -0.00000000000E+00  0.00000000000E+00  0.21138633424E+03  0.21138633424E+03  0.00000000000E+00 0.  1.
          2   -1    0    0  501    0  0.00000000000E+00 -0.00000000000E+00 -0.34906555596E+04  0.34906555596E+04  0.00000000000E+00 0. -1.
         23    2    1    2    0    0 -0.39207820647E+03 -0.12532783041E+03 -0.32629660525E+04  0.32900975062E+04  0.91442634420E+02 0.  0.
         13    1    3    3    0    0 -0.89214156105E+02 -0.30886311134E+02 -0.48737900636E+03  0.49643874315E+03  0.00000000000E+00 0. -1.
        -13    1    3    3    0    0 -0.30286405036E+03 -0.94441519275E+02 -0.27755870462E+04  0.27936587631E+04  0.00000000000E+00 0.  1.
         22    1    1    2    0    0  0.39207820647E+03  0.12532783041E+03 -0.16303172844E+02  0.41194438764E+03  0.00000000000E+00 0.  1.
<mgrwt>
<rscale>  0 0.17179952E+04</rscale>
<asrwt>0</asrwt>
<pdfrwt beam="1">  1        2 0.53702393E+00 0.17179952E+04</pdfrwt>
<pdfrwt beam="2">  1       -2 0.32520975E-01 0.17179952E+04</pdfrwt>
<totfact> 0.69758235E+00</totfact>
</mgrwt>
</event>
<event>
 6    1  0.1014650E-006  0.4289335E+04  0.7818608E-02  0.7948593E-01
          2   -1    0    0  501    0  0.00000000000E+00  0.00000000000E+00  0.39381908514E+04  0.39381908514E+04  0.00000000000E+00 0. -1.
         -2   -1    0    0    0  501 -0.00000000000E+00 -0.00000000000E+00 -0.11679468881E+04  0.11679468881E+04  0.00000000000E+00 0.  1.
         23    2    1    2    0    0 -0.15365197978E+04 -0.13547124746E+04  0.63346048344E+03  0.21460731087E+04  0.90656637426E+02 0.  0.
         13    1    3    3    0    0 -0.15557940003E+03 -0.16313947382E+03  0.48350400004E+02  0.23055844988E+03  0.00000000000E+00 0.  1.
        -13    1    3    3    0    0 -0.13809403978E+04 -0.11915730008E+04  0.58511008344E+03  0.19155146589E+04  0.00000000000E+00 0. -1.
         22    1    1    2    0    0  0.15365197978E+04  0.13547124746E+04  0.21367834799E+04  0.29600646307E+04  0.00000000000E+00 0. -1.
<mgrwt>
<rscale>  0 0.42893346E+04</rscale>
<asrwt>0</asrwt>
<pdfrwt beam="1">  1        2 0.60587551E+00 0.42893346E+04</pdfrwt>
<pdfrwt beam="2">  1       -2 0.17968414E+00 0.42893346E+04</pdfrwt>
<totfact> 0.53666120E-02</totfact>
</mgrwt>
</event>
<event>
 6    1  0.1014650E-006  0.9973295E+03  0.7818608E-02  0.9311479E-01
         -2   -1    0    0    0  501 -0.00000000000E+00  0.00000000000E+00  0.35047637325E+03  0.35047637325E+03  0.00000000000E+00 0.  1.
          2   -1    0    0  501    0  0.00000000000E+00 -0.00000000000E+00 -0.70951009201E+03  0.70951009201E+03  0.00000000000E+00 0. -1.
         23    2    1    2    0    0  0.41530299196E+03 -0.17545868444E+03 -0.39661823815E+03  0.60757634029E+03  0.92631837802E+02 0.  0.
         13    1    3    3    0    0  0.30513236273E+03 -0.83221648769E+02 -0.28282055166E+03  0.42428653767E+03  0.00000000000E+00 0.  1.
        -13    1    3    3    0    0  0.11017062923E+03 -0.92237035671E+02 -0.11379768649E+03  0.18328980262E+03  0.00000000000E+00 0. -1.
         22    1    1    2    0    0 -0.41530299196E+03  0.17545868444E+03  0.37584519390E+02  0.45241012497E+03  0.00000000000E+00 0.  1.
<mgrwt>
<rscale>  0 0.99732948E+03</rscale>
<asrwt>0</asrwt>
<pdfrwt beam="1">  1        2 0.10915540E+00 0.99732948E+03</pdfrwt>
<pdfrwt beam="2">  1       -2 0.53919442E-01 0.99732948E+03</pdfrwt>
<totfact> 0.13033267E+02</totfact>
</mgrwt>
</event>
<event>
 6    1  0.1014650E-006  0.2346078E+04  0.7818608E-02  0.8459972E-01
         -2   -1    0    0    0  501 -0.00000000000E+00  0.00000000000E+00  0.17836529279E+04  0.17836529279E+04  0.00000000000E+00 0.  1.
          2   -1    0    0  501    0  0.00000000000E+00 -0.00000000000E+00 -0.77146198026E+03  0.77146198026E+03  0.00000000000E+00 0. -1.
         23    2    1    2    0    0  0.79088193710E+03  0.86345742524E+03  0.47293203334E+03  0.12659860781E+04  0.89459925485E+02 0.  0.
         11    1    3    3    0    0  0.59237960828E+02  0.34240488952E+02  0.30591416086E+02  0.74949194958E+02  0.00000000000E+00 0. -1.
        -11    1    3    3    0    0  0.73164397627E+03  0.82921693629E+03  0.44234061725E+03  0.11910368832E+04  0.00000000000E+00 0.  1.
         22    1    1    2    0    0 -0.79088193710E+03 -0.86345742524E+03  0.53925891426E+03  0.12891288300E+04  0.00000000000E+00 0.  1.
<mgrwt>
<rscale>  0 0.23460779E+04</rscale>
<asrwt>0</asrwt>
<pdfrwt beam="1">  1        2 0.11868646E+00 0.23460779E+04</pdfrwt>
<pdfrwt beam="2">  1       -2 0.27440814E+00 0.23460779E+04</pdfrwt>
<totfact> 0.14871463E+00</totfact>
</mgrwt>
</event>
<event>
 6    1  0.1014650E-006  0.2228096E+04  0.7818608E-02  0.8506824E-01
         -2   -1    0    0    0  501 -0.00000000000E+00  0.00000000000E+00  0.42972827771E+03  0.42972827771E+03  0.00000000000E+00 0.  1.
          2   -1    0    0  501    0  0.00000000000E+00 -0.00000000000E+00 -0.28881106089E+04  0.28881106089E+04  0.00000000000E+00 0. -1.
         23    2    1    2    0    0 -0.58641660015E+03 -0.22593274744E+03  0.13499793932E+03  0.64940277857E+03  0.92571539338E+02 0.  0.
         13    1    3    3    0    0 -0.14849927331E+03 -0.17281214408E+02  0.44151533071E+02  0.15588467666E+03  0.00000000000E+00 0.  1.
        -13    1    3    3    0    0 -0.43791732683E+03 -0.20865153303E+03  0.90846406248E+02  0.49351810190E+03  0.00000000000E+00 0. -1.
         22    1    1    2    0    0  0.58641660015E+03  0.22593274744E+03 -0.25933802705E+04  0.26684361080E+04  0.00000000000E+00 0. -1.
<mgrwt>
<rscale>  0 0.22280959E+04</rscale>
<asrwt>0</asrwt>
<pdfrwt beam="1">  1        2 0.44432471E+00 0.22280959E+04</pdfrwt>
<pdfrwt beam="2">  1       -2 0.66112043E-01 0.22280959E+04</pdfrwt>
<totfact> 0.39247077E+00</totfact>
</mgrwt>
</event>
<event>
 6    1  0.1014650E-006  0.5272888E+03  0.7818608E-02  0.1006892E+00
         -3   -1    0    0    0  501 -0.00000000000E+00  0.00000000000E+00  0.15448280518E+03  0.15448280518E+03  0.00000000000E+00 0.  1.
          3   -1    0    0  501    0  0.00000000000E+00 -0.00000000000E+00 -0.44994244998E+03  0.44994244998E+03  0.00000000000E+00 0. -1.
         23    2    1    2    0    0 -0.88060955429E+02  0.13016004146E+03 -0.38359930394E+03  0.42424487949E+03  0.90215982674E+02 0.  0.
         11    1    3    3    0    0 -0.74931093934E+02  0.11828187580E+03 -0.22743737947E+03  0.26708244525E+03  0.00000000000E+00 0. -1.
        -11    1    3    3    0    0 -0.13129861495E+02  0.11878165652E+02 -0.15616192447E+03  0.15716243424E+03  0.00000000000E+00 0.  1.
         22    1    1    2    0    0  0.88060955429E+02 -0.13016004146E+03  0.88139659138E+02  0.18018037567E+03  0.00000000000E+00 0.  1.
<mgrwt>
<rscale>  0 0.52728881E+03</rscale>
<asrwt>0</asrwt>
<pdfrwt beam="1">  1        3 0.69221914E-01 0.52728881E+03</pdfrwt>
<pdfrwt beam="2">  1       -3 0.23766586E-01 0.52728881E+03</pdfrwt>
<totfact> 0.87638663E+01</totfact>
</mgrwt>
</event>
<event>
 6    1  0.1014650E-006  0.1511432E+04  0.7818608E-02  0.8876886E-01
         -2   -1    0    0    0  501 -0.00000000000E+00  0.00000000000E+00  0.99734580025E+03  0.99734580025E+03  0.00000000000E+00 0.  1.
          2   -1    0    0  501    0  0.00000000000E+00 -0.00000000000E+00 -0.57262683245E+03  0.57262683245E+03  0.00000000000E+00 0. -1.
         23    2    1    2    0    0  0.24964897579E+03  0.93913100898E+02 -0.51818768668E+03  0.59006588168E+03  0.92276673454E+02 0.  0.
         11    1    3    3    0    0  0.79368518635E+02  0.20719655564E+02 -0.25717718427E+03  0.26994216045E+03  0.00000000000E+00 0. -1.
        -11    1    3    3    0    0  0.17028045715E+03  0.73193445334E+02 -0.26101050240E+03  0.32012372123E+03  0.00000000000E+00 0.  1.
         22    1    1    2    0    0 -0.24964897579E+03 -0.93913100898E+02  0.94290665448E+03  0.97990675102E+03  0.00000000000E+00 0.  1.
<mgrwt>
<rscale>  0 0.15114324E+04</rscale>
<asrwt>0</asrwt>
<pdfrwt beam="1">  1        2 0.88096436E-01 0.15114324E+04</pdfrwt>
<pdfrwt beam="2">  1       -2 0.15343782E+00 0.15114324E+04</pdfrwt>
<totfact> 0.14275304E+01</totfact>
</mgrwt>
</event>
<event>
 6    1  0.1014650E-006  0.2752098E+04  0.7818608E-02  0.8318296E-01
          2   -1    0    0  501    0  0.00000000000E+00  0.00000000000E+00  0.18111379435E+04  0.18111379435E+04  0.00000000000E+00 0. -1.
         -2   -1    0    0    0  501 -0.00000000000E+00 -0.00000000000E+00 -0.10454815794E+04  0.10454815794E+04  0.00000000000E+00 0.  1.
         23    2    1    2    0    0  0.63228847043E+03  0.12204969162E+04  0.35755376858E+03  0.14227613846E+04  0.83688874680E+02 0.  0.
         11    1    3    3    0    0  0.21816175871E+03  0.38337947986E+03  0.15105375651E+03  0.46625273822E+03  0.00000000000E+00 0. -1.
        -11    1    3    3    0    0  0.41412671172E+03  0.83711743637E+03  0.20650001207E+03  0.95650864639E+03  0.00000000000E+00 0.  1.
         22    1    1    2    0    0 -0.63228847043E+03 -0.12204969162E+04  0.40810259552E+03  0.14338581383E+04  0.00000000000E+00 0.  1.
<mgrwt>
<rscale>  0 0.27520984E+04</rscale>
<asrwt>0</asrwt>
<pdfrwt beam="1">  1        2 0.27863661E+00 0.27520984E+04</pdfrwt>
<pdfrwt beam="2">  1       -2 0.16084332E+00 0.27520984E+04</pdfrwt>
<totfact> 0.18454899E+00</totfact>
</mgrwt>
</event>
<event>
 6    1  0.1014650E-006  0.4249247E+04  0.7818608E-02  0.7956070E-01
         -1   -1    0    0    0  501 -0.00000000000E+00  0.00000000000E+00  0.16515481771E+04  0.16515481771E+04  0.00000000000E+00 0.  1.
          1   -1    0    0  501    0  0.00000000000E+00 -0.00000000000E+00 -0.27332075843E+04  0.27332075843E+04  0.00000000000E+00 0. -1.
         23    2    1    2    0    0  0.58426158287E+03  0.15365455604E+04 -0.19282993543E+04  0.25356659700E+04  0.94496852356E+02 0.  0.
         13    1    3    3    0    0  0.31852207755E+03  0.71154262111E+03 -0.93576983835E+03  0.12179550098E+04  0.00000000000E+00 0. -1.
        -13    1    3    3    0    0  0.26573950532E+03  0.82500293932E+03 -0.99252951594E+03  0.13177109602E+04  0.00000000000E+00 0.  1.
         22    1    1    2    0    0 -0.58426158287E+03 -0.15365455604E+04  0.84663994707E+03  0.18490897914E+04  0.00000000000E+00 0.  1.
<mgrwt>
<rscale>  0 0.42492465E+04</rscale>
<asrwt>0</asrwt>
<pdfrwt beam="1">  1        1 0.42049347E+00 0.42492465E+04</pdfrwt>
<pdfrwt beam="2">  1       -1 0.25408434E+00 0.42492465E+04</pdfrwt>
<totfact> 0.46745176E-02</totfact>
</mgrwt>
</event>
<event>
 6    1  0.1014650E-006  0.2657979E+04  0.7818608E-02  0.8348769E-01
          1   -1    0    0  501    0  0.00000000000E+00  0.00000000000E+00  0.10532590921E+04  0.10532590921E+04  0.00000000000E+00 0. -1.
         -1   -1    0    0    0  501 -0.00000000000E+00 -0.00000000000E+00 -0.16769029139E+04  0.16769029139E+04  0.00000000000E+00 0.  1.
         23    2    1    2    0    0  0.59247496054E+03 -0.83233178994E+02 -0.15292923112E+04  0.16447341976E+04  0.91985145065E+02 0.  0.
         13    1    3    3    0    0  0.28859079670E+02 -0.15365373966E+02 -0.14341315064E+03  0.14709273596E+03  0.00000000000E+00 0.  1.
        -13    1    3    3    0    0  0.56361588087E+03 -0.67867805028E+02 -0.13858791605E+04  0.14976414617E+04  0.00000000000E+00 0. -1.
         22    1    1    2    0    0 -0.59247496054E+03  0.83233178994E+02  0.90564848938E+03  0.10854278084E+04  0.00000000000E+00 0. -1.
<mgrwt>
<rscale>  0 0.26579791E+04</rscale>
<asrwt>0</asrwt>
<pdfrwt beam="1">  1        1 0.16203986E+00 0.26579791E+04</pdfrwt>
<pdfrwt beam="2">  1       -1 0.25798506E+00 0.26579791E+04</pdfrwt>
<totfact> 0.74563060E-01</totfact>
</mgrwt>
</event>
<event>
 6    1  0.1014650E-006  0.4442172E+04  0.7818608E-02  0.7920840E-01
          2   -1    0    0  501    0  0.00000000000E+00  0.00000000000E+00  0.34513763830E+04  0.34513763830E+04  0.00000000000E+00 0. -1.
         -2   -1    0    0    0  501 -0.00000000000E+00 -0.00000000000E+00 -0.14293496215E+04  0.14293496215E+04  0.00000000000E+00 0.  1.
         23    2    1    2    0    0 -0.74476007770E+02  0.12950585223E+04 -0.96814084560E+03  0.16213049561E+04  0.92789072535E+02 0.  0.
         11    1    3    3    0    0 -0.54525941695E+02  0.37578386577E+03 -0.25036110339E+03  0.45482664190E+03  0.00000000000E+00 0. -1.
        -11    1    3    3    0    0 -0.19950066075E+02  0.91927465648E+03 -0.71777974221E+03  0.11664783142E+04  0.00000000000E+00 0.  1.
         22    1    1    2    0    0  0.74476007770E+02 -0.12950585223E+04  0.29901676071E+04  0.32594210484E+04  0.00000000000E+00 0. -1.
<mgrwt>
<rscale>  0 0.44421722E+04</rscale>
<asrwt>0</asrwt>
<pdfrwt beam="1">  1        2 0.53098098E+00 0.44421722E+04</pdfrwt>
<pdfrwt beam="2">  1       -2 0.21989994E+00 0.44421722E+04</pdfrwt>
<totfact> 0.66109333E-02</totfact>
</mgrwt>
</event>
<event>
 6    1  0.1014650E-006  0.7520230E+03  0.7818608E-02  0.9632182E-01
          2   -1    0    0  501    0  0.00000000000E+00  0.00000000000E+00  0.13271521152E+04  0.13271521152E+04  0.00000000000E+00 0. -1.
         -2   -1    0    0    0  501 -0.00000000000E+00 -0.00000000000E+00 -0.10653235975E+03  0.10653235975E+03  0.00000000000E+00 0.  1.
         23    2    1    2    0    0  0.32101577403E+03  0.14522738376E+03  0.37533193926E+03  0.51790414519E+03  0.56643788811E+02 0.  0.
         13    1    3    3    0    0  0.14134508558E+03  0.42276237557E+02  0.12789918869E+03  0.19525346591E+03  0.00000000000E+00 0.  1.
        -13    1    3    3    0    0  0.17967068845E+03  0.10295114620E+03  0.24743275057E+03  0.32265067929E+03  0.00000000000E+00 0. -1.
         22    1    1    2    0    0 -0.32101577403E+03 -0.14522738376E+03  0.84528781621E+03  0.91578032977E+03  0.00000000000E+00 0. -1.
<mgrwt>
<rscale>  0 0.75202300E+03</rscale>
<asrwt>0</asrwt>
<pdfrwt beam="1">  1        2 0.20417724E+00 0.75202300E+03</pdfrwt>
<pdfrwt beam="2">  1       -2 0.16389595E-01 0.75202300E+03</pdfrwt>
<totfact> 0.48483327E+02</totfact>
</mgrwt>
</event>
<event>
 6    1  0.1014650E-006  0.2146683E+04  0.7818608E-02  0.8540954E-01
          2   -1    0    0  501    0  0.00000000000E+00  0.00000000000E+00  0.74574309334E+03  0.74574309334E+03  0.00000000000E+00 0. -1.
         -2   -1    0    0    0  501 -0.00000000000E+00 -0.00000000000E+00 -0.15448506678E+04  0.15448506678E+04  0.00000000000E+00 0.  1.
         23    2    1    2    0    0 -0.51521357753E+03  0.93925006424E+03 -0.38126181988E+03  0.11407108157E+04  0.90691102674E+02 0.  0.
         11    1    3    3    0    0 -0.38848236533E+03  0.73381093160E+03 -0.33278787413E+03  0.89450813338E+03  0.00000000000E+00 0. -1.
        -11    1    3    3    0    0 -0.12673121220E+03  0.20543913264E+03 -0.48473945752E+02  0.24620268232E+03  0.00000000000E+00 0.  1.
         22    1    1    2    0    0  0.51521357753E+03 -0.93925006424E+03 -0.41784575462E+03  0.11498829455E+04  0.00000000000E+00 0.  1.
<mgrwt>
<rscale>  0 0.21466828E+04</rscale>
<asrwt>0</asrwt>
<pdfrwt beam="1">  1        2 0.11472971E+00 0.21466828E+04</pdfrwt>
<pdfrwt beam="2">  1       -2 0.23766933E+00 0.21466828E+04</pdfrwt>
<totfact> 0.26551862E+00</totfact>
</mgrwt>
</event>
<event>
 6    1  0.1014650E-006  0.1286152E+04  0.7818608E-02  0.9040619E-01
         -2   -1    0    0    0  501 -0.00000000000E+00  0.00000000000E+00  0.28772585839E+03  0.28772585839E+03  0.00000000000E+00 0.  1.
          2   -1    0    0  501    0  0.00000000000E+00 -0.00000000000E+00 -0.14372952471E+04  0.14372952471E+04  0.00000000000E+00 0. -1.
         23    2    1    2    0    0  0.11032864559E+03 -0.62353833713E+03 -0.70057227762E+03  0.94876671827E+03  0.91565832122E+02 0.  0.
         11    1    3    3    0    0  0.22467174137E+02 -0.13647519344E+03 -0.10073893201E+03  0.17110986167E+03  0.00000000000E+00 0. -1.
        -11    1    3    3    0    0  0.87861471457E+02 -0.48706314370E+03 -0.59983334561E+03  0.77765685660E+03  0.00000000000E+00 0.  1.
         22    1    1    2    0    0 -0.11032864559E+03  0.62353833713E+03 -0.44899711112E+03  0.77625438724E+03  0.00000000000E+00 0.  1.
<mgrwt>
<rscale>  0 0.12861524E+04</rscale>
<asrwt>0</asrwt>
<pdfrwt beam="1">  1        2 0.22112235E+00 0.12861524E+04</pdfrwt>
<pdfrwt beam="2">  1       -2 0.44265516E-01 0.12861524E+04</pdfrwt>
<totfact> 0.65395833E+01</totfact>
</mgrwt>
</event>
<event>
 6    1  0.1014650E-006  0.8375070E+03  0.7818608E-02  0.9507260E-01
          1   -1    0    0  501    0  0.00000000000E+00  0.00000000000E+00  0.30888030642E+03  0.30888030642E+03  0.00000000000E+00 0. -1.
         -1   -1    0    0    0  501 -0.00000000000E+00 -0.00000000000E+00 -0.56771023411E+03  0.56771023411E+03  0.00000000000E+00 0.  1.
         23    2    1    2    0    0 -0.29837664815E+03  0.15909317419E+03 -0.38028426053E+03  0.51729899150E+03  0.92967013323E+02 0.  0.
         13    1    3    3    0    0 -0.19839760545E+03  0.54437776734E+02 -0.21414508053E+03  0.29695655726E+03  0.00000000000E+00 0. -1.
        -13    1    3    3    0    0 -0.99979042693E+02  0.10465539746E+03 -0.16613918000E+03  0.22034243424E+03  0.00000000000E+00 0.  1.
         22    1    1    2    0    0  0.29837664815E+03 -0.15909317419E+03  0.12145433285E+03  0.35929154903E+03  0.00000000000E+00 0. -1.
<mgrwt>
<rscale>  0 0.83750704E+03</rscale>
<asrwt>0</asrwt>
<pdfrwt beam="1">  1        1 0.47520048E-01 0.83750704E+03</pdfrwt>
<pdfrwt beam="2">  1       -1 0.87340035E-01 0.83750704E+03</pdfrwt>
<totfact> 0.11012084E+02</totfact>
</mgrwt>
</event>
<event>
 6    1  0.1014650E-006  0.3571800E+04  0.7818608E-02  0.8096982E-01
         -2   -1    0    0    0  501 -0.00000000000E+00  0.00000000000E+00  0.23336968467E+04  0.23336968467E+04  0.00000000000E+00 0.  1.
          2   -1    0    0  501    0  0.00000000000E+00 -0.00000000000E+00 -0.13666893876E+04  0.13666893876E+04  0.00000000000E+00 0. -1.
         23    2    1    2    0    0  0.10832858219E+04 -0.50401096883E+03  0.18572162853E+04  0.22104174483E+04  0.95696065767E+02 0.  0.
         11    1    3    3    0    0  0.46774893557E+03 -0.26696945361E+03  0.86486568730E+03  0.10188495536E+04  0.00000000000E+00 0.  1.
        -11    1    3    3    0    0  0.61553688636E+03 -0.23704151522E+03  0.99235059797E+03  0.11915678947E+04  0.00000000000E+00 0. -1.
         22    1    1    2    0    0 -0.10832858219E+04  0.50401096883E+03 -0.89020882618E+03  0.14899687859E+04  0.00000000000E+00 0. -1.
<mgrwt>
<rscale>  0 0.35717999E+04</rscale>
<asrwt>0</asrwt>
<pdfrwt beam="1">  1        2 0.21025991E+00 0.35717999E+04</pdfrwt>
<pdfrwt beam="2">  1       -2 0.35903028E+00 0.35717999E+04</pdfrwt>
<totfact> 0.16842108E-01</totfact>
</mgrwt>
</event>
<event>
 6    1  0.1014650E-006  0.1855109E+04  0.7818608E-02  0.8677530E-01
          1   -1    0    0  501    0  0.00000000000E+00  0.00000000000E+00  0.51562623720E+03  0.51562623720E+03  0.00000000000E+00 0. -1.
         -1   -1    0    0    0  501 -0.00000000000E+00 -0.00000000000E+00 -0.16685687172E+04  0.16685687172E+04  0.00000000000E+00 0.  1.
         23    2    1    2    0    0  0.86108055235E+03 -0.14834689519E+03 -0.21989454356E+03  0.90589726973E+03  0.93966664718E+02 0.  0.
         13    1    3    3    0    0  0.56379280460E+03 -0.13379135090E+03 -0.17188572519E+03  0.60440644819E+03  0.00000000000E+00 0. -1.
        -13    1    3    3    0    0  0.29728774775E+03 -0.14555544288E+02 -0.48008818365E+02  0.30149082154E+03  0.00000000000E+00 0.  1.
         22    1    1    2    0    0 -0.86108055235E+03  0.14834689519E+03 -0.93304793645E+03  0.12782976847E+04  0.00000000000E+00 0.  1.
<mgrwt>
<rscale>  0 0.18551095E+04</rscale>
<asrwt>0</asrwt>
<pdfrwt beam="1">  1        1 0.79327113E-01 0.18551095E+04</pdfrwt>
<pdfrwt beam="2">  1       -1 0.25670288E+00 0.18551095E+04</pdfrwt>
<totfact> 0.25148134E+00</totfact>
</mgrwt>
</event>
<event>
 6    1  0.1014650E-006  0.2821631E+04  0.7818608E-02  0.8296584E-01
         -1   -1    0    0    0  501 -0.00000000000E+00  0.00000000000E+00  0.10511780648E+04  0.10511780648E+04  0.00000000000E+00 0.  1.
          1   -1    0    0  501    0  0.00000000000E+00 -0.00000000000E+00 -0.18934947333E+04  0.18934947333E+04  0.00000000000E+00 0. -1.
         23    2    1    2    0    0  0.13822406324E+04  0.27092140591E+03 -0.47293250245E+03  0.14885023973E+04  0.89368119585E+02 0.  0.
         11    1    3    3    0    0  0.92115900484E+03  0.20009968705E+03 -0.27663870962E+03  0.98239644371E+03  0.00000000000E+00 0. -1.
        -11    1    3    3    0    0  0.46108162759E+03  0.70821718864E+02 -0.19629379283E+03  0.50610595360E+03  0.00000000000E+00 0.  1.
         22    1    1    2    0    0 -0.13822406324E+04 -0.27092140591E+03 -0.36938416601E+03  0.14561704008E+04  0.00000000000E+00 0.  1.
<mgrwt>
<rscale>  0 0.28216308E+04</rscale>
<asrwt>0</asrwt>
<pdfrwt beam="1">  1        1 0.29130688E+00 0.28216308E+04</pdfrwt>
<pdfrwt beam="2">  1       -1 0.16171971E+00 0.28216308E+04</pdfrwt>
<totfact> 0.86258991E-01</totfact>
</mgrwt>
</event>
<event>
 6    1  0.1014650E-006  0.2404122E+04  0.7818608E-02  0.8437962E-01
          1   -1    0    0  501    0  0.00000000000E+00  0.00000000000E+00  0.18937482172E+04  0.18937482172E+04  0.00000000000E+00 0. -1.
         -1   -1    0    0    0  501 -0.00000000000E+00 -0.00000000000E+00 -0.76301080126E+03  0.76301080126E+03  0.00000000000E+00 0.  1.
         23    2    1    2    0    0 -0.50284740365E+03 -0.90774155239E+03  0.12326354705E+04  0.16140541461E+04  0.94500509055E+02 0.  0.
         13    1    3    3    0    0 -0.43045261904E+03 -0.76477472996E+03  0.10911825132E+04  0.14003032250E+04  0.00000000000E+00 0. -1.
        -13    1    3    3    0    0 -0.72394784602E+02 -0.14296682243E+03  0.14145295726E+03  0.21375092110E+03  0.00000000000E+00 0.  1.
         22    1    1    2    0    0  0.50284740365E+03  0.90774155239E+03 -0.10189805455E+03  0.10427048723E+04  0.00000000000E+00 0.  1.
<mgrwt>
<rscale>  0 0.24041217E+04</rscale>
<asrwt>0</asrwt>
<pdfrwt beam="1">  1        1 0.29134588E+00 0.24041217E+04</pdfrwt>
<pdfrwt beam="2">  1       -1 0.11738628E+00 0.24041217E+04</pdfrwt>
<totfact> 0.20585366E+00</totfact>
</mgrwt>
</event>
<event>
 6    1  0.1014650E-006  0.1982294E+04  0.7818608E-02  0.8614944E-01
         -3   -1    0    0    0  501 -0.00000000000E+00  0.00000000000E+00  0.92910624158E+03  0.92910624158E+03  0.00000000000E+00 0.  1.
          3   -1    0    0  501    0  0.00000000000E+00 -0.00000000000E+00 -0.10573303214E+04  0.10573303214E+04  0.00000000000E+00 0. -1.
         23    2    1    2    0    0  0.17814062454E+03  0.53306179005E+03  0.75121810877E+03  0.94273760390E+03  0.92393661737E+02 0.  0.
         13    1    3    3    0    0  0.12778007363E+03  0.41614224719E+03  0.51444535867E+03  0.67391108031E+03  0.00000000000E+00 0.  1.
        -13    1    3    3    0    0  0.50360550916E+02  0.11691954286E+03  0.23677275010E+03  0.26882652358E+03  0.00000000000E+00 0. -1.
         22    1    1    2    0    0 -0.17814062454E+03 -0.53306179005E+03 -0.87944218857E+03  0.10436989591E+04  0.00000000000E+00 0. -1.
<mgrwt>
<rscale>  0 0.19822938E+04</rscale>
<asrwt>0</asrwt>
<pdfrwt beam="1">  1        3 0.16266620E+00 0.19822938E+04</pdfrwt>
<pdfrwt beam="2">  1       -3 0.14293942E+00 0.19822938E+04</pdfrwt>
<totfact> 0.23217288E-01</totfact>
</mgrwt>
</event>
<event>
 6    1  0.1014650E-006  0.2400301E+04  0.7818608E-02  0.8439391E-01
          1   -1    0    0  501    0  0.00000000000E+00  0.00000000000E+00  0.12021237879E+04  0.12021237879E+04  0.00000000000E+00 0. -1.
         -1   -1    0    0    0  501 -0.00000000000E+00 -0.00000000000E+00 -0.11981803367E+04  0.11981803367E+04  0.00000000000E+00 0.  1.
         23    2    1    2    0    0  0.55155328866E+03 -0.82129074119E+03 -0.67432024542E+03  0.12008162530E+04  0.92316674585E+02 0.  0.
         11    1    3    3    0    0  0.74685456272E+02 -0.77385466083E+02 -0.10066402643E+03  0.14730809196E+03  0.00000000000E+00 0. -1.
        -11    1    3    3    0    0  0.47686783239E+03 -0.74390527511E+03 -0.57365621900E+03  0.10535081611E+04  0.00000000000E+00 0.  1.
         22    1    1    2    0    0 -0.55155328866E+03  0.82129074119E+03  0.67826369667E+03  0.11994878716E+04  0.00000000000E+00 0. -1.
<mgrwt>
<rscale>  0 0.24003009E+04</rscale>
<asrwt>0</asrwt>
<pdfrwt beam="1">  1        1 0.18494212E+00 0.24003009E+04</pdfrwt>
<pdfrwt beam="2">  1       -1 0.18433544E+00 0.24003009E+04</pdfrwt>
<totfact> 0.18488644E+00</totfact>
</mgrwt>
</event>
<event>
 6    1  0.1014650E-006  0.1150196E+04  0.7818608E-02  0.9157603E-01
          2   -1    0    0  501    0  0.00000000000E+00  0.00000000000E+00  0.21429221543E+04  0.21429221543E+04  0.00000000000E+00 0. -1.
         -2   -1    0    0    0  501 -0.00000000000E+00 -0.00000000000E+00 -0.15433962800E+03  0.15433962800E+03  0.00000000000E+00 0.  1.
         23    2    1    2    0    0 -0.14548229272E+03  0.13159071757E+03  0.20726140673E+04  0.20838548603E+04  0.90778809778E+02 0.  0.
         13    1    3    3    0    0 -0.13816634551E+03  0.10668557085E+03  0.14147111004E+04  0.14254400190E+04  0.00000000000E+00 0. -1.
        -13    1    3    3    0    0 -0.73159472163E+01  0.24905146720E+02  0.65790296694E+03  0.65841484136E+03  0.00000000000E+00 0.  1.
         22    1    1    2    0    0  0.14548229272E+03 -0.13159071757E+03 -0.84031541060E+02  0.21340692196E+03  0.00000000000E+00 0.  1.
<mgrwt>
<rscale>  0 0.11501962E+04</rscale>
<asrwt>0</asrwt>
<pdfrwt beam="1">  1        2 0.32968031E+00 0.11501962E+04</pdfrwt>
<pdfrwt beam="2">  1       -2 0.23744560E-01 0.11501962E+04</pdfrwt>
<totfact> 0.86922115E+01</totfact>
</mgrwt>
</event>
<event>
 6    1  0.1014650E-006  0.1205364E+04  0.7818608E-02  0.9108175E-01
          1   -1    0    0  501    0  0.00000000000E+00  0.00000000000E+00  0.13027822595E+04  0.13027822595E+04  0.00000000000E+00 0. -1.
         -1   -1    0    0    0  501 -0.00000000000E+00 -0.00000000000E+00 -0.27880741090E+03  0.27880741090E+03  0.00000000000E+00 0.  1.
         23    2    1    2    0    0 -0.33392877546E+03 -0.41039647327E+03  0.88325304510E+03  0.10341078732E+04  0.96485539348E+02 0.  0.
         11    1    3    3    0    0 -0.25213094740E+03 -0.24730501231E+03  0.53706164615E+03  0.64277911876E+03  0.00000000000E+00 0.  1.
        -11    1    3    3    0    0 -0.81797828061E+02 -0.16309146097E+03  0.34619139895E+03  0.39132875440E+03  0.00000000000E+00 0. -1.
         22    1    1    2    0    0  0.33392877546E+03  0.41039647327E+03  0.14072180354E+03  0.54748179727E+03  0.00000000000E+00 0.  1.
<mgrwt>
<rscale>  0 0.12053636E+04</rscale>
<asrwt>0</asrwt>
<pdfrwt beam="1">  1        1 0.20042804E+00 0.12053636E+04</pdfrwt>
<pdfrwt beam="2">  1       -1 0.42893448E-01 0.12053636E+04</pdfrwt>
<totfact> 0.47683673E+01</totfact>
</mgrwt>
</event>
<event>
 6    1  0.1014650E-006  0.1741769E+04  0.7818608E-02  0.8737894E-01
         -2   -1    0    0    0  501 -0.00000000000E+00  0.00000000000E+00  0.42022875272E+03  0.42022875272E+03  0.00000000000E+00 0.  1.
          2   -1    0    0  501    0  0.00000000000E+00 -0.00000000000E+00 -0.18048253380E+04  0.18048253380E+04  0.00000000000E+00 0. -1.
         23    2    1    2    0    0  0.49766755260E+03  0.59151909937E+03 -0.18865064696E+03  0.80102651893E+03  0.92122633447E+02 0.  0.
         11    1    3    3    0    0  0.35386453029E+03  0.47198728698E+03 -0.12114333878E+03  0.60221907425E+03  0.00000000000E+00 0.  1.
        -11    1    3    3    0    0  0.14380302230E+03  0.11953181240E+03 -0.67507308183E+02  0.19880744467E+03  0.00000000000E+00 0. -1.
         22    1    1    2    0    0 -0.49766755260E+03 -0.59151909937E+03 -0.11959459383E+04  0.14240275718E+04  0.00000000000E+00 0. -1.
<mgrwt>
<rscale>  0 0.17417686E+04</rscale>
<asrwt>0</asrwt>
<pdfrwt beam="1">  1        2 0.27766543E+00 0.17417686E+04</pdfrwt>
<pdfrwt beam="2">  1       -2 0.64650579E-01 0.17417686E+04</pdfrwt>
<totfact> 0.17962101E+01</totfact>
</mgrwt>
</event>
<event>
 6    1  0.1014650E-006  0.1283017E+04  0.7818608E-02  0.9043142E-01
          2   -1    0    0  501    0  0.00000000000E+00  0.00000000000E+00  0.59573463049E+03  0.59573463049E+03  0.00000000000E+00 0. -1.
         -2   -1    0    0    0  501 -0.00000000000E+00 -0.00000000000E+00 -0.69079965058E+03  0.69079965058E+03  0.00000000000E+00 0.  1.
         23    2    1    2    0    0 -0.55152640738E+03  0.19238044294E+03  0.21026648639E+03  0.62742962950E+03  0.90908370372E+02 0.  0.
         13    1    3    3    0    0 -0.19577874733E+03  0.89143888204E+02  0.11935950907E+03  0.24601350189E+03  0.00000000000E+00 0. -1.
        -13    1    3    3    0    0 -0.35574766006E+03  0.10323655473E+03  0.90906977326E+02  0.38141612760E+03  0.00000000000E+00 0.  1.
         22    1    1    2    0    0  0.55152640738E+03 -0.19238044294E+03 -0.30533150649E+03  0.65910465157E+03  0.00000000000E+00 0.  1.
<mgrwt>
<rscale>  0 0.12830172E+04</rscale>
<asrwt>0</asrwt>
<pdfrwt beam="1">  1        2 0.91651482E-01 0.12830172E+04</pdfrwt>
<pdfrwt beam="2">  1       -2 0.10627687E+00 0.12830172E+04</pdfrwt>
<totfact> 0.35056384E+01</totfact>
</mgrwt>
</event>
<event>
 6    1  0.1014650E-006  0.3892183E+04  0.7818608E-02  0.8026657E-01
         -2   -1    0    0    0  501 -0.00000000000E+00  0.00000000000E+00  0.19897524887E+04  0.19897524887E+04  0.00000000000E+00 0.  1.
          2   -1    0    0  501    0  0.00000000000E+00 -0.00000000000E+00 -0.19033884054E+04  0.19033884054E+04  0.00000000000E+00 0. -1.
         23    2    1    2    0    0 -0.13815151183E+04  0.49740051961E+03 -0.12327091886E+04  0.19193259089E+04  0.90822364881E+02 0.  0.
         13    1    3    3    0    0 -0.53657250809E+03  0.15341240537E+03 -0.49840045262E+03  0.74823020102E+03  0.00000000000E+00 0. -1.
        -13    1    3    3    0    0 -0.84494261019E+03  0.34398811424E+03 -0.73430873599E+03  0.11710957079E+04  0.00000000000E+00 0.  1.
         22    1    1    2    0    0  0.13815151183E+04 -0.49740051961E+03  0.13190732719E+04  0.19738149851E+04  0.00000000000E+00 0.  1.
<mgrwt>
<rscale>  0 0.38921828E+04</rscale>
<asrwt>0</asrwt>
<pdfrwt beam="1">  1        2 0.29282899E+00 0.38921828E+04</pdfrwt>
<pdfrwt beam="2">  1       -2 0.30611577E+00 0.38921828E+04</pdfrwt>
<totfact> 0.17540656E-01</totfact>
</mgrwt>
</event>
<event>
 6    1  0.1014650E-006  0.9039131E+03  0.7818608E-02  0.9420703E-01
         -2   -1    0    0    0  501 -0.00000000000E+00  0.00000000000E+00  0.76171556562E+02  0.76171556562E+02  0.00000000000E+00 0.  1.
          2   -1    0    0  501    0  0.00000000000E+00 -0.00000000000E+00 -0.26816405827E+04  0.26816405827E+04  0.00000000000E+00 0. -1.
         23    2    1    2    0    0 -0.67767210401E+02 -0.16795159726E+02 -0.26642143998E+04  0.26665680100E+04  0.87590592355E+02 0.  0.
         13    1    3    3    0    0 -0.81781472635E+02  0.15686450718E+01 -0.15875606107E+04  0.15896664313E+04  0.00000000000E+00 0. -1.
        -13    1    3    3    0    0  0.14014262235E+02 -0.18363804798E+02 -0.10766537890E+04  0.10769015788E+04  0.00000000000E+00 0.  1.
         22    1    1    2    0    0  0.67767210401E+02  0.16795159726E+02  0.58745373645E+02  0.91244129238E+02  0.00000000000E+00 0.  1.
<mgrwt>
<rscale>  0 0.90391313E+03</rscale>
<asrwt>0</asrwt>
<pdfrwt beam="1">  1        2 0.41256005E+00 0.90391313E+03</pdfrwt>
<pdfrwt beam="2">  1       -2 0.11718702E-01 0.90391313E+03</pdfrwt>
<totfact> 0.14809148E+02</totfact>
</mgrwt>
</event>
<event>
 6    1  0.1014650E-006  0.2030994E+04  0.7818608E-02  0.8592266E-01
          1   -1    0    0  501    0  0.00000000000E+00  0.00000000000E+00  0.20295935166E+04  0.20295935166E+04  0.00000000000E+00 0. -1.
         -1   -1    0    0    0  501 -0.00000000000E+00 -0.00000000000E+00 -0.50809873612E+03  0.50809873612E+03  0.00000000000E+00 0.  1.
         23    2    1    2    0    0  0.87894282816E+03 -0.18201651114E+03  0.17426041823E+03  0.91883125426E+03  0.90629327225E+02 0.  0.
         13    1    3    3    0    0  0.52604793173E+03 -0.91648591788E+02  0.14536782119E+03  0.55340554234E+03  0.00000000000E+00 0.  1.
        -13    1    3    3    0    0  0.35289489643E+03 -0.90367919351E+02  0.28892597045E+02  0.36542571193E+03  0.00000000000E+00 0. -1.
         22    1    1    2    0    0 -0.87894282816E+03  0.18201651114E+03  0.13472343622E+04  0.16188609984E+04  0.00000000000E+00 0. -1.
<mgrwt>
<rscale>  0 0.20309937E+04</rscale>
<asrwt>0</asrwt>
<pdfrwt beam="1">  1        1 0.31224515E+00 0.20309937E+04</pdfrwt>
<pdfrwt beam="2">  1       -1 0.78169038E-01 0.20309937E+04</pdfrwt>
<totfact> 0.43130812E+00</totfact>
</mgrwt>
</event>
<event>
 6    1  0.1014650E-006  0.3302568E+04  0.7818608E-02  0.8162242E-01
          2   -1    0    0  501    0  0.00000000000E+00  0.00000000000E+00  0.17703233545E+04  0.17703233545E+04  0.00000000000E+00 0. -1.
         -2   -1    0    0    0  501 -0.00000000000E+00 -0.00000000000E+00 -0.15402488243E+04  0.15402488243E+04  0.00000000000E+00 0.  1.
         23    2    1    2    0    0 -0.16155480629E+04 -0.30085082740E+03  0.26391711188E+03  0.16669018700E+04  0.91666996594E+02 0.  0.
         13    1    3    3    0    0 -0.95304955933E+03 -0.19288121894E+03  0.19905002983E+03  0.99253591448E+03  0.00000000000E+00 0.  1.
        -13    1    3    3    0    0 -0.66249850356E+03 -0.10796960846E+03  0.64867082052E+02  0.67436595547E+03  0.00000000000E+00 0. -1.
         22    1    1    2    0    0  0.16155480629E+04  0.30085082740E+03 -0.33842581739E+02  0.16436703088E+04  0.00000000000E+00 0. -1.
<mgrwt>
<rscale>  0 0.33025678E+04</rscale>
<asrwt>0</asrwt>
<pdfrwt beam="1">  1        2 0.27235744E+00 0.33025678E+04</pdfrwt>
<pdfrwt beam="2">  1       -2 0.23696136E+00 0.33025678E+04</pdfrwt>
<totfact> 0.57901884E-01</totfact>
</mgrwt>
</event>
<event>
 6    1  0.1014650E-006  0.5577106E+04  0.7818608E-02  0.7745168E-01
          1   -1    0    0  501    0  0.00000000000E+00  0.00000000000E+00  0.17492689657E+04  0.17492689657E+04  0.00000000000E+00 0. -1.
         -1   -1    0    0    0  501 -0.00000000000E+00 -0.00000000000E+00 -0.44453016694E+04  0.44453016694E+04  0.00000000000E+00 0.  1.
         23    2    1    2    0    0  0.16948381845E+04  0.12564634048E+04 -0.33724347253E+04  0.39790128149E+04  0.89723161633E+02 0.  0.
         13    1    3    3    0    0  0.49688606964E+03  0.33257263269E+03 -0.90241399002E+03  0.10825208227E+04  0.00000000000E+00 0.  1.
        -13    1    3    3    0    0  0.11979521149E+04  0.92389077211E+03 -0.24700207353E+04  0.28964919922E+04  0.00000000000E+00 0. -1.
         22    1    1    2    0    0 -0.16948381845E+04 -0.12564634048E+04  0.67640202159E+03  0.22155578201E+04  0.00000000000E+00 0. -1.
<mgrwt>
<rscale>  0 0.55771062E+04</rscale>
<asrwt>0</asrwt>
<pdfrwt beam="1">  1        1 0.26911831E+00 0.55771062E+04</pdfrwt>
<pdfrwt beam="2">  1       -1 0.68389256E+00 0.55771062E+04</pdfrwt>
<totfact> 0.70157746E-04</totfact>
</mgrwt>
</event>
<event>
 6    1  0.1014650E-006  0.3135367E+04  0.7818608E-02  0.8206098E-01
         -1   -1    0    0    0  501 -0.00000000000E+00  0.00000000000E+00  0.42173504642E+04  0.42173504642E+04  0.00000000000E+00 0.  1.
          1   -1    0    0  501    0  0.00000000000E+00 -0.00000000000E+00 -0.58274316162E+03  0.58274316162E+03  0.00000000000E+00 0. -1.
         23    2    1    2    0    0  0.14456148313E+04  0.38423689373E+03  0.11071680596E+04  0.18631923068E+04  0.90687533814E+02 0.  0.
         11    1    3    3    0    0  0.66982651264E+03  0.17682035583E+03  0.56913053175E+03  0.89657267271E+03  0.00000000000E+00 0. -1.
        -11    1    3    3    0    0  0.77578831866E+03  0.20741653790E+03  0.53803752785E+03  0.96661963405E+03  0.00000000000E+00 0.  1.
         22    1    1    2    0    0 -0.14456148313E+04 -0.38423689373E+03  0.25274392429E+04  0.29369013190E+04  0.00000000000E+00 0.  1.
<mgrwt>
<rscale>  0 0.31353674E+04</rscale>
<asrwt>0</asrwt>
<pdfrwt beam="1">  1        1 0.89652797E-01 0.31353674E+04</pdfrwt>
<pdfrwt beam="2">  1       -1 0.64882313E+00 0.31353674E+04</pdfrwt>
<totfact> 0.87886156E-03</totfact>
</mgrwt>
</event>
<event>
 6    1  0.1014650E-006  0.2704607E+04  0.7818608E-02  0.8333512E-01
          2   -1    0    0  501    0  0.00000000000E+00  0.00000000000E+00  0.78751898130E+03  0.78751898130E+03  0.00000000000E+00 0. -1.
         -2   -1    0    0    0  501 -0.00000000000E+00 -0.00000000000E+00 -0.23221334152E+04  0.23221334152E+04  0.00000000000E+00 0.  1.
         23    2    1    2    0    0 -0.62568535636E+03 -0.11068992944E+04 -0.24202595588E+03  0.12965078389E+04  0.75151846982E+02 0.  0.
         13    1    3    3    0    0 -0.39609517912E+03 -0.74874193623E+03 -0.18794096719E+03  0.86765643267E+03  0.00000000000E+00 0.  1.
        -13    1    3    3    0    0 -0.22959017724E+03 -0.35815735813E+03 -0.54084988689E+02  0.42885140628E+03  0.00000000000E+00 0. -1.
         22    1    1    2    0    0  0.62568535636E+03  0.11068992944E+04 -0.12925884780E+04  0.18131445575E+04  0.00000000000E+00 0.  1.
<mgrwt>
<rscale>  0 0.27046065E+04</rscale>
<asrwt>0</asrwt>
<pdfrwt beam="1">  1        2 0.12115677E+00 0.27046065E+04</pdfrwt>
<pdfrwt beam="2">  1       -2 0.35725130E+00 0.27046065E+04</pdfrwt>
<totfact> 0.43184520E-01</totfact>
</mgrwt>
</event>
<event>
 6    1  0.1014650E-006  0.2690440E+04  0.7818608E-02  0.8338114E-01
         -2   -1    0    0    0  501 -0.00000000000E+00  0.00000000000E+00  0.64014538143E+03  0.64014538143E+03  0.00000000000E+00 0.  1.
          2   -1    0    0  501    0  0.00000000000E+00 -0.00000000000E+00 -0.28268837694E+04  0.28268837694E+04  0.00000000000E+00 0. -1.
         23    2    1    2    0    0  0.34739262474E+03  0.12765498309E+04 -0.79205413249E+03  0.15446854565E+04  0.91882012941E+02 0.  0.
         13    1    3    3    0    0  0.24520950544E+02  0.89523639853E+02 -0.84725486986E+02  0.12567484734E+03  0.00000000000E+00 0. -1.
        -13    1    3    3    0    0  0.32287167420E+03  0.11870261911E+04 -0.70732864550E+03  0.14190106092E+04  0.00000000000E+00 0.  1.
         22    1    1    2    0    0 -0.34739262474E+03 -0.12765498309E+04 -0.13946842555E+04  0.19223436943E+04  0.00000000000E+00 0. -1.
<mgrwt>
<rscale>  0 0.26904398E+04</rscale>
<asrwt>0</asrwt>
<pdfrwt beam="1">  1        2 0.43490519E+00 0.26904398E+04</pdfrwt>
<pdfrwt beam="2">  1       -2 0.98483906E-01 0.26904398E+04</pdfrwt>
<totfact> 0.16740731E+00</totfact>
</mgrwt>
</event>
<event>
 6    1  0.1014650E-006  0.2419468E+04  0.7818608E-02  0.8432251E-01
          1   -1    0    0  501    0  0.00000000000E+00  0.00000000000E+00  0.87429841106E+03  0.87429841106E+03  0.00000000000E+00 0. -1.
         -1   -1    0    0    0  501 -0.00000000000E+00 -0.00000000000E+00 -0.16738631670E+04  0.16738631670E+04  0.00000000000E+00 0.  1.
         23    2    1    2    0    0  0.72166357832E+03  0.16710358053E+03 -0.14053474716E+04  0.15912422369E+04  0.91260142445E+02 0.  0.
         13    1    3    3    0    0  0.36462959447E+02  0.26189298253E+02 -0.11535272846E+03  0.12378076877E+03  0.00000000000E+00 0.  1.
        -13    1    3    3    0    0  0.68520061887E+03  0.14091428228E+03 -0.12899947431E+04  0.14674614681E+04  0.00000000000E+00 0. -1.
         22    1    1    2    0    0 -0.72166357832E+03 -0.16710358053E+03  0.60578271567E+03  0.95691934117E+03  0.00000000000E+00 0. -1.
<mgrwt>
<rscale>  0 0.24194676E+04</rscale>
<asrwt>0</asrwt>
<pdfrwt beam="1">  1        1 0.13450745E+00 0.24194676E+04</pdfrwt>
<pdfrwt beam="2">  1       -1 0.25751741E+00 0.24194676E+04</pdfrwt>
<totfact> 0.10645906E+00</totfact>
</mgrwt>
</event>
<event>
 6    1  0.1014650E-006  0.3465382E+04  0.7818608E-02  0.8122043E-01
         -2   -1    0    0    0  501 -0.00000000000E+00  0.00000000000E+00  0.11867601437E+04  0.11867601437E+04  0.00000000000E+00 0.  1.
          2   -1    0    0  501    0  0.00000000000E+00 -0.00000000000E+00 -0.25297595028E+04  0.25297595028E+04  0.00000000000E+00 0. -1.
         23    2    1    2    0    0 -0.42449057230E+03  0.16752435491E+04 -0.55752705620E+03  0.18182046217E+04  0.91642966220E+02 0.  0.
         13    1    3    3    0    0 -0.20122658579E+03  0.95367866483E+03 -0.28989544608E+03  0.10168748715E+04  0.00000000000E+00 0. -1.
        -13    1    3    3    0    0 -0.22326398650E+03  0.72156488426E+03 -0.26763161011E+03  0.80132975023E+03  0.00000000000E+00 0.  1.
         22    1    1    2    0    0  0.42449057230E+03 -0.16752435491E+04 -0.78547230292E+03  0.18983150248E+04  0.00000000000E+00 0. -1.
<mgrwt>
<rscale>  0 0.34653818E+04</rscale>
<asrwt>0</asrwt>
<pdfrwt beam="1">  1        2 0.38919377E+00 0.34653818E+04</pdfrwt>
<pdfrwt beam="2">  1       -2 0.18257848E+00 0.34653818E+04</pdfrwt>
<totfact> 0.47974066E-01</totfact>
</mgrwt>
</event>
<event>
 6    1  0.1014650E-006  0.2108005E+04  0.7818608E-02  0.8557725E-01
         -2   -1    0    0    0  501 -0.00000000000E+00  0.00000000000E+00  0.54924843853E+03  0.54924843853E+03  0.00000000000E+00 0.  1.
          2   -1    0    0  501    0  0.00000000000E+00 -0.00000000000E+00 -0.20226200632E+04  0.20226200632E+04  0.00000000000E+00 0. -1.
         23    2    1    2    0    0 -0.10471275906E+04 -0.87927342993E+02 -0.67888512085E+03  0.12545165316E+04  0.93377256731E+02 0.  0.
         13    1    3    3    0    0 -0.22786774447E+03 -0.52744654765E+02 -0.17425684298E+03  0.29166959886E+03  0.00000000000E+00 0. -1.
        -13    1    3    3    0    0 -0.81925984609E+03 -0.35182688227E+02 -0.50462827788E+03  0.96284693269E+03  0.00000000000E+00 0.  1.
         22    1    1    2    0    0  0.10471275906E+04  0.87927342993E+02 -0.79448650380E+03  0.13173519702E+04  0.00000000000E+00 0.  1.
<mgrwt>
<rscale>  0 0.21080047E+04</rscale>
<asrwt>0</asrwt>
<pdfrwt beam="1">  1        2 0.31117231E+00 0.21080047E+04</pdfrwt>
<pdfrwt beam="2">  1       -2 0.84499762E-01 0.21080047E+04</pdfrwt>
<totfact> 0.72987355E+00</totfact>
</mgrwt>
</event>
<event>
 6    1  0.1014650E-006  0.7550425E+03  0.7818608E-02  0.9627473E-01
         -2   -1    0    0    0  501 -0.00000000000E+00  0.00000000000E+00  0.95084095055E+02  0.95084095055E+02  0.00000000000E+00 0.  1.
          2   -1    0    0  501    0  0.00000000000E+00 -0.00000000000E+00 -0.14989077065E+04  0.14989077065E+04  0.00000000000E+00 0. -1.
         23    2    1    2    0    0 -0.35408594978E+02 -0.27173869310E+03 -0.18536456576E+03  0.34509703739E+03  0.98164438841E+02 0.  0.
         11    1    3    3    0    0 -0.91944766004E+01 -0.19390815583E+03 -0.17672061404E+03  0.26251683132E+03  0.00000000000E+00 0. -1.
        -11    1    3    3    0    0 -0.26214118377E+02 -0.77830537269E+02 -0.86439517120E+01  0.82580206073E+02  0.00000000000E+00 0.  1.
         22    1    1    2    0    0  0.35408594978E+02  0.27173869310E+03 -0.12184590457E+04  0.12488947641E+04  0.00000000000E+00 0. -1.
<mgrwt>
<rscale>  0 0.75504247E+03</rscale>
<asrwt>0</asrwt>
<pdfrwt beam="1">  1        2 0.23060117E+00 0.75504247E+03</pdfrwt>
<pdfrwt beam="2">  1       -2 0.14628323E-01 0.75504247E+03</pdfrwt>
<totfact> 0.47030999E+02</totfact>
</mgrwt>
</event>
<event>
 6    1  0.1014650E-006  0.1270029E+04  0.7818608E-02  0.9053676E-01
         -1   -1    0    0    0  501 -0.00000000000E+00  0.00000000000E+00  0.44256388876E+03  0.44256388876E+03  0.00000000000E+00 0.  1.
          1   -1    0    0  501    0  0.00000000000E+00 -0.00000000000E+00 -0.91115321103E+03  0.91115321103E+03  0.00000000000E+00 0. -1.
         23    2    1    2    0    0 -0.31816998605E+03  0.44915566049E+03 -0.56600561674E+03  0.79473330593E+03  0.90916016156E+02 0.  0.
         13    1    3    3    0    0 -0.18269878382E+03  0.20411889099E+03 -0.32718592936E+03  0.42672473521E+03  0.00000000000E+00 0. -1.
        -13    1    3    3    0    0 -0.13547120223E+03  0.24503676950E+03 -0.23881968739E+03  0.36800857072E+03  0.00000000000E+00 0.  1.
         22    1    1    2    0    0  0.31816998605E+03 -0.44915566049E+03  0.97416294476E+02  0.55898379387E+03  0.00000000000E+00 0.  1.
<mgrwt>
<rscale>  0 0.12700291E+04</rscale>
<asrwt>0</asrwt>
<pdfrwt beam="1">  1        1 0.14017741E+00 0.12700291E+04</pdfrwt>
<pdfrwt beam="2">  1       -1 0.68086753E-01 0.12700291E+04</pdfrwt>
<totfact> 0.38324274E+01</totfact>
</mgrwt>
</event>
<event>
 6    1  0.1014650E-006  0.1583950E+04  0.7818608E-02  0.8830470E-01
         -1   -1    0    0    0  501 -0.00000000000E+00  0.00000000000E+00  0.45873454965E+03  0.45873454965E+03  0.00000000000E+00 0.  1.
          1   -1    0    0  501    0  0.00000000000E+00 -0.00000000000E+00 -0.13672918937E+04  0.13672918937E+04  0.00000000000E+00 0. -1.
         23    2    1    2    0    0 -0.35277467724E+03  0.24208637356E+03 -0.12205432106E+04  0.12965068818E+04  0.90269488113E+02 0.  0.
         13    1    3    3    0    0 -0.21536191033E+03  0.10141728316E+03 -0.59777127591E+03  0.64342576576E+03  0.00000000000E+00 0. -1.
        -13    1    3    3    0    0 -0.13741276690E+03  0.14066909040E+03 -0.62277193470E+03  0.65308111606E+03  0.00000000000E+00 0.  1.
         22    1    1    2    0    0  0.35277467724E+03 -0.24208637356E+03  0.31198586653E+03  0.52951956156E+03  0.00000000000E+00 0.  1.
<mgrwt>
<rscale>  0 0.15839495E+04</rscale>
<asrwt>0</asrwt>
<pdfrwt beam="1">  1        1 0.21035260E+00 0.15839495E+04</pdfrwt>
<pdfrwt beam="2">  1       -1 0.70574547E-01 0.15839495E+04</pdfrwt>
<totfact> 0.15792182E+01</totfact>
</mgrwt>
</event>
<event>
 6    1  0.1014650E-006  0.1340215E+04  0.7818608E-02  0.8998268E-01
         -2   -1    0    0    0  501 -0.00000000000E+00  0.00000000000E+00  0.60382462061E+03  0.60382462061E+03  0.00000000000E+00 0.  1.
          2   -1    0    0  501    0  0.00000000000E+00 -0.00000000000E+00 -0.74366675566E+03  0.74366675566E+03  0.00000000000E+00 0. -1.
         23    2    1    2    0    0  0.35031131822E+03  0.46974292770E+03 -0.39054355276E+03  0.71013147900E+03  0.91575177082E+02 0.  0.
         13    1    3    3    0    0  0.24974757612E+03  0.27447606665E+03 -0.27553420435E+03  0.46220132054E+03  0.00000000000E+00 0. -1.
        -13    1    3    3    0    0  0.10056374210E+03  0.19526686105E+03 -0.11500934841E+03  0.24793015846E+03  0.00000000000E+00 0.  1.
         22    1    1    2    0    0 -0.35031131822E+03 -0.46974292770E+03  0.25070141771E+03  0.63735989727E+03  0.00000000000E+00 0.  1.
<mgrwt>
<rscale>  0 0.13402154E+04</rscale>
<asrwt>0</asrwt>
<pdfrwt beam="1">  1        2 0.11441027E+00 0.13402154E+04</pdfrwt>
<pdfrwt beam="2">  1       -2 0.92896096E-01 0.13402154E+04</pdfrwt>
<totfact> 0.36404735E+01</totfact>
</mgrwt>
</event>
<event>
 6    1  0.1014650E-006  0.2065147E+04  0.7818608E-02  0.8576754E-01
         -2   -1    0    0    0  501 -0.00000000000E+00  0.00000000000E+00  0.49221202756E+03  0.49221202756E+03  0.00000000000E+00 0.  1.
          2   -1    0    0  501    0  0.00000000000E+00 -0.00000000000E+00 -0.21661558814E+04  0.21661558814E+04  0.00000000000E+00 0. -1.
         23    2    1    2    0    0 -0.63091135913E+03 -0.52383495393E+03 -0.16421160245E+04  0.18377186460E+04  0.90623296386E+02 0.  0.
         13    1    3    3    0    0 -0.17870004150E+03 -0.11406345848E+03 -0.49195674123E+03  0.53569171417E+03  0.00000000000E+00 0.  1.
        -13    1    3    3    0    0 -0.45221131763E+03 -0.40977149545E+03 -0.11501592833E+04  0.13020269319E+04  0.00000000000E+00 0. -1.
         22    1    1    2    0    0  0.63091135913E+03  0.52383495393E+03 -0.31827829290E+02  0.82064926293E+03  0.00000000000E+00 0.  1.
<mgrwt>
<rscale>  0 0.20651469E+04</rscale>
<asrwt>0</asrwt>
<pdfrwt beam="1">  1        2 0.33325476E+00 0.20651469E+04</pdfrwt>
<pdfrwt beam="2">  1       -2 0.75724925E-01 0.20651469E+04</pdfrwt>
<totfact> 0.77929107E+00</totfact>
</mgrwt>
</event>
<event>
 6    1  0.1014650E-006  0.4193708E+04  0.7818608E-02  0.7966570E-01
          2   -1    0    0  501    0  0.00000000000E+00  0.00000000000E+00  0.26992817524E+04  0.26992817524E+04  0.00000000000E+00 0. -1.
         -2   -1    0    0    0  501 -0.00000000000E+00 -0.00000000000E+00 -0.16288768442E+04  0.16288768442E+04  0.00000000000E+00 0.  1.
         23    2    1    2    0    0 -0.93422557962E+03  0.18214566309E+04  0.71402702803E+02  0.20503335160E+04  0.91035646240E+02 0.  0.
         13    1    3    3    0    0 -0.38449055351E+03  0.84627058583E+03  0.21932862182E+02  0.92977843630E+03  0.00000000000E+00 0. -1.
        -13    1    3    3    0    0 -0.54973502611E+03  0.97518604506E+03  0.49469840620E+02  0.11205550797E+04  0.00000000000E+00 0.  1.
         22    1    1    2    0    0  0.93422557962E+03 -0.18214566309E+04  0.99900220536E+03  0.22778250807E+04  0.00000000000E+00 0. -1.
<mgrwt>
<rscale>  0 0.41937084E+04</rscale>
<asrwt>0</asrwt>
<pdfrwt beam="1">  1        2 0.41527412E+00 0.41937084E+04</pdfrwt>
<pdfrwt beam="2">  1       -2 0.25059644E+00 0.41937084E+04</pdfrwt>
<totfact> 0.13153148E-01</totfact>
</mgrwt>
</event>
<event>
 6    1  0.1014650E-006  0.9103751E+03  0.7818608E-02  0.9412704E-01
         -1   -1    0    0    0  501 -0.00000000000E+00  0.00000000000E+00  0.11100824623E+03  0.11100824623E+03  0.00000000000E+00 0.  1.
          1   -1    0    0  501    0  0.00000000000E+00 -0.00000000000E+00 -0.18664891182E+04  0.18664891182E+04  0.00000000000E+00 0. -1.
         23    2    1    2    0    0 -0.30900062319E+01 -0.30205969748E+03 -0.16510537450E+03  0.35868797727E+03  0.10073565093E+03 0.  0.
         13    1    3    3    0    0  0.43334806692E+02 -0.21924682564E+03 -0.11658079855E+03  0.25206776591E+03  0.00000000000E+00 0. -1.
        -13    1    3    3    0    0 -0.46424812924E+02 -0.82812871845E+02 -0.48524575955E+02  0.10662021136E+03  0.00000000000E+00 0.  1.
         22    1    1    2    0    0  0.30900062319E+01  0.30205969748E+03 -0.15903754975E+04  0.16188093871E+04  0.00000000000E+00 0. -1.
<mgrwt>
<rscale>  0 0.91037505E+03</rscale>
<asrwt>0</asrwt>
<pdfrwt beam="1">  1        1 0.28715215E+00 0.91037505E+03</pdfrwt>
<pdfrwt beam="2">  1       -1 0.17078193E-01 0.91037505E+03</pdfrwt>
<totfact> 0.98903967E+01</totfact>
</mgrwt>
</event>
<event>
 6    1  0.1014650E-006  0.8951136E+03  0.7818608E-02  0.9431710E-01
          1   -1    0    0  501    0  0.00000000000E+00  0.00000000000E+00  0.21242531983E+04  0.21242531983E+04  0.00000000000E+00 0. -1.
         -1   -1    0    0    0  501 -0.00000000000E+00 -0.00000000000E+00 -0.94295303635E+02  0.94295303635E+02  0.00000000000E+00 0.  1.
         23    2    1    2    0    0 -0.22402760997E+02 -0.20705883028E+03  0.19942271214E+04  0.20072384666E+04  0.93215915979E+02 0.  0.
         13    1    3    3    0    0  0.28404146306E+02 -0.65713438861E+02  0.88457956258E+03  0.88747172017E+03  0.00000000000E+00 0.  1.
        -13    1    3    3    0    0 -0.50806907304E+02 -0.14134539141E+03  0.11096475588E+04  0.11197667464E+04  0.00000000000E+00 0. -1.
         22    1    1    2    0    0  0.22402760997E+02  0.20705883028E+03  0.35730773267E+02  0.21131003538E+03  0.00000000000E+00 0.  1.
<mgrwt>
<rscale>  0 0.89511362E+03</rscale>
<asrwt>0</asrwt>
<pdfrwt beam="1">  1        1 0.32680815E+00 0.89511362E+03</pdfrwt>
<pdfrwt beam="2">  1       -1 0.14506971E-01 0.89511362E+03</pdfrwt>
<totfact> 0.86835858E+01</totfact>
</mgrwt>
</event>
<event>
 6    1  0.1014650E-006  0.3968083E+04  0.7818608E-02  0.8011016E-01
          2   -1    0    0  501    0  0.00000000000E+00  0.00000000000E+00  0.54275779982E+04  0.54275779982E+04  0.00000000000E+00 0. -1.
         -2   -1    0    0    0  501 -0.00000000000E+00 -0.00000000000E+00 -0.72526282508E+03  0.72526282508E+03  0.00000000000E+00 0.  1.
         23    2    1    2    0    0  0.12209200544E+04 -0.22116954906E+03  0.47509504352E+04  0.49110972356E+04  0.88228514518E+02 0.  0.
         11    1    3    3    0    0  0.66007039830E+03 -0.10220966443E+03  0.27157899534E+04  0.27967221558E+04  0.00000000000E+00 0.  1.
        -11    1    3    3    0    0  0.56084965614E+03 -0.11895988463E+03  0.20351604818E+04  0.21143750797E+04  0.00000000000E+00 0. -1.
         22    1    1    2    0    0 -0.12209200544E+04  0.22116954906E+03 -0.48635262119E+02  0.12417435877E+04  0.00000000000E+00 0.  1.
<mgrwt>
<rscale>  0 0.39680829E+04</rscale>
<asrwt>0</asrwt>
<pdfrwt beam="1">  1        2 0.83501197E+00 0.39680829E+04</pdfrwt>
<pdfrwt beam="2">  1       -2 0.11157890E+00 0.39680829E+04</pdfrwt>
<totfact> 0.39781109E-03</totfact>
</mgrwt>
</event>
<event>
 6    1  0.1014650E-006  0.1609937E+04  0.7818608E-02  0.8814466E-01
          1   -1    0    0  501    0  0.00000000000E+00  0.00000000000E+00  0.91123588931E+03  0.91123588931E+03  0.00000000000E+00 0. -1.
         -1   -1    0    0    0  501 -0.00000000000E+00 -0.00000000000E+00 -0.71109400438E+03  0.71109400438E+03  0.00000000000E+00 0.  1.
         23    2    1    2    0    0  0.79353559456E+03  0.63575739353E+02  0.20685729230E+03  0.82622329833E+03  0.78194532118E+02 0.  0.
         11    1    3    3    0    0  0.26269908822E+03  0.38186079079E+02  0.10291112222E+03  0.28470982888E+03  0.00000000000E+00 0. -1.
        -11    1    3    3    0    0  0.53083650635E+03  0.25389660274E+02  0.10394617007E+03  0.54151346945E+03  0.00000000000E+00 0.  1.
         22    1    1    2    0    0 -0.79353559456E+03 -0.63575739353E+02 -0.67154073649E+01  0.79610659536E+03  0.00000000000E+00 0.  1.
<mgrwt>
<rscale>  0 0.16099371E+04</rscale>
<asrwt>0</asrwt>
<pdfrwt beam="1">  1        1 0.14019014E+00 0.16099371E+04</pdfrwt>
<pdfrwt beam="2">  1       -1 0.10939908E+00 0.16099371E+04</pdfrwt>
<totfact> 0.13208863E+01</totfact>
</mgrwt>
</event>
<event>
 6    1  0.1014650E-006  0.4923110E+04  0.7818608E-02  0.7840479E-01
          2   -1    0    0  501    0  0.00000000000E+00  0.00000000000E+00  0.37431227376E+04  0.37431227376E+04  0.00000000000E+00 0. -1.
         -2   -1    0    0    0  501 -0.00000000000E+00 -0.00000000000E+00 -0.16187697623E+04  0.16187697623E+04  0.00000000000E+00 0.  1.
         23    2    1    2    0    0  0.52863444874E+03 -0.14026381417E+04  0.31879408349E+04  0.35239405767E+04  0.91336108387E+02 0.  0.
         13    1    3    3    0    0  0.47791426174E+02 -0.69170579230E+02  0.16768099035E+03  0.18757799436E+03  0.00000000000E+00 0. -1.
        -13    1    3    3    0    0  0.48084302257E+03 -0.13334675624E+04  0.30202598445E+04  0.33363625823E+04  0.00000000000E+00 0.  1.
         22    1    1    2    0    0 -0.52863444874E+03  0.14026381417E+04 -0.10635878596E+04  0.18379519232E+04  0.00000000000E+00 0.  1.
<mgrwt>
<rscale>  0 0.49231104E+04</rscale>
<asrwt>0</asrwt>
<pdfrwt beam="1">  1        2 0.57586503E+00 0.49231104E+04</pdfrwt>
<pdfrwt beam="2">  1       -2 0.24904150E+00 0.49231104E+04</pdfrwt>
<totfact> 0.25788479E-02</totfact>
</mgrwt>
</event>
<event>
 6    1  0.1014650E-006  0.4924666E+04  0.7818608E-02  0.7840234E-01
         -2   -1    0    0    0  501 -0.00000000000E+00  0.00000000000E+00  0.24789879805E+04  0.24789879805E+04  0.00000000000E+00 0.  1.
          2   -1    0    0  501    0  0.00000000000E+00 -0.00000000000E+00 -0.24457896891E+04  0.24457896891E+04  0.00000000000E+00 0. -1.
         23    2    1    2    0    0  0.86619465102E+03  0.22719005994E+04 -0.36650302665E+03  0.24607186909E+04  0.94797152234E+02 0.  0.
         13    1    3    3    0    0  0.47864469382E+03  0.12103598339E+04 -0.15118351468E+03  0.13103160403E+04  0.00000000000E+00 0. -1.
        -13    1    3    3    0    0  0.38754995721E+03  0.10615407655E+04 -0.21531951196E+03  0.11504026506E+04  0.00000000000E+00 0.  1.
         22    1    1    2    0    0 -0.86619465102E+03 -0.22719005994E+04  0.39970131801E+03  0.24640589787E+04  0.00000000000E+00 0.  1.
<mgrwt>
<rscale>  0 0.49246658E+04</rscale>
<asrwt>0</asrwt>
<pdfrwt beam="1">  1        2 0.37627534E+00 0.49246658E+04</pdfrwt>
<pdfrwt beam="2">  1       -2 0.38138276E+00 0.49246658E+04</pdfrwt>
<totfact> 0.26887513E-02</totfact>
</mgrwt>
</event>
<event>
 6    1  0.1014650E-006  0.4196691E+04  0.7818608E-02  0.7966002E-01
          1   -1    0    0  501    0  0.00000000000E+00  0.00000000000E+00  0.27156464148E+04  0.27156464148E+04  0.00000000000E+00 0. -1.
         -1   -1    0    0    0  501 -0.00000000000E+00 -0.00000000000E+00 -0.16213645849E+04  0.16213645849E+04  0.00000000000E+00 0.  1.
         23    2    1    2    0    0  0.32412485152E+03 -0.19479256595E+04  0.12777921882E+04  0.23537945854E+04  0.90137559506E+02 0.  0.
         13    1    3    3    0    0  0.43519694436E+02 -0.38838975802E+03  0.21848912527E+03  0.44774777029E+03  0.00000000000E+00 0. -1.
        -13    1    3    3    0    0  0.28060515709E+03 -0.15595359015E+04  0.10593030629E+04  0.19060468151E+04  0.00000000000E+00 0.  1.
         22    1    1    2    0    0 -0.32412485152E+03  0.19479256595E+04 -0.18351035829E+03  0.19832164143E+04  0.00000000000E+00 0.  1.
<mgrwt>
<rscale>  0 0.41966906E+04</rscale>
<asrwt>0</asrwt>
<pdfrwt beam="1">  1        1 0.41779175E+00 0.41966906E+04</pdfrwt>
<pdfrwt beam="2">  1       -1 0.24944071E+00 0.41966906E+04</pdfrwt>
<totfact> 0.51802857E-02</totfact>
</mgrwt>
</event>
<event>
 6    1  0.1014650E-006  0.9220133E+03  0.7818608E-02  0.9398475E-01
          2   -1    0    0  501    0  0.00000000000E+00  0.00000000000E+00  0.60417513199E+03  0.60417513199E+03  0.00000000000E+00 0. -1.
         -2   -1    0    0    0  501 -0.00000000000E+00 -0.00000000000E+00 -0.35176409170E+03  0.35176409170E+03  0.00000000000E+00 0.  1.
         23    2    1    2    0    0 -0.78533260661E+02 -0.44588322239E+03  0.65060921211E+02  0.46596025663E+03  0.88919718014E+02 0.  0.
         11    1    3    3    0    0  0.16001817157E+02 -0.10902679825E+03  0.30790265815E+02  0.11441565172E+03  0.00000000000E+00 0. -1.
        -11    1    3    3    0    0 -0.94535077818E+02 -0.33685642414E+03  0.34270655397E+02  0.35154460491E+03  0.00000000000E+00 0.  1.
         22    1    1    2    0    0  0.78533260661E+02  0.44588322239E+03  0.18735011908E+03  0.48997896706E+03  0.00000000000E+00 0.  1.
<mgrwt>
<rscale>  0 0.92201327E+03</rscale>
<asrwt>0</asrwt>
<pdfrwt beam="1">  1        2 0.92950020E-01 0.92201327E+03</pdfrwt>
<pdfrwt beam="2">  1       -2 0.54117553E-01 0.92201327E+03</pdfrwt>
<totfact> 0.15854130E+02</totfact>
</mgrwt>
</event>
<event>
 6    1  0.1014650E-006  0.4436966E+04  0.7818608E-02  0.7921766E-01
          1   -1    0    0  501    0  0.00000000000E+00  0.00000000000E+00  0.30129342998E+04  0.30129342998E+04  0.00000000000E+00 0. -1.
         -1   -1    0    0    0  501 -0.00000000000E+00 -0.00000000000E+00 -0.16335124763E+04  0.16335124763E+04  0.00000000000E+00 0.  1.
         23    2    1    2    0    0 -0.21690139416E+04 -0.14840414506E+03  0.23246867761E+03  0.21883689115E+04  0.90947993483E+02 0.  0.
         13    1    3    3    0    0 -0.59245876236E+03 -0.57925424007E+02  0.10058631262E+03  0.60372207690E+03  0.00000000000E+00 0. -1.
        -13    1    3    3    0    0 -0.15765551793E+04 -0.90478721056E+02  0.13188236499E+03  0.15846468346E+04  0.00000000000E+00 0.  1.
         22    1    1    2    0    0  0.21690139416E+04  0.14840414506E+03  0.11469531459E+04  0.24580778646E+04  0.00000000000E+00 0. -1.
<mgrwt>
<rscale>  0 0.44369655E+04</rscale>
<asrwt>0</asrwt>
<pdfrwt beam="1">  1        1 0.46352835E+00 0.44369655E+04</pdfrwt>
<pdfrwt beam="2">  1       -1 0.25130961E+00 0.44369655E+04</pdfrwt>
<totfact> 0.30187802E-02</totfact>
</mgrwt>
</event>
<event>
 6    1  0.1014650E-006  0.1436109E+04  0.7818608E-02  0.8928088E-01
          2   -1    0    0  501    0  0.00000000000E+00  0.00000000000E+00  0.11506417631E+04  0.11506417631E+04  0.00000000000E+00 0. -1.
         -2   -1    0    0    0  501 -0.00000000000E+00 -0.00000000000E+00 -0.44809970798E+03  0.44809970798E+03  0.00000000000E+00 0.  1.
         23    2    1    2    0    0  0.22297464871E+03  0.10721970791E+03  0.10997495429E+04  0.11307804170E+04  0.89451297389E+02 0.  0.
         11    1    3    3    0    0  0.16282743758E+03  0.11658492448E+03  0.89738289871E+03  0.91945684289E+03  0.00000000000E+00 0. -1.
        -11    1    3    3    0    0  0.60147211130E+02 -0.93652165686E+01  0.20236664419E+03  0.21132357409E+03  0.00000000000E+00 0.  1.
         22    1    1    2    0    0 -0.22297464871E+03 -0.10721970791E+03 -0.39720748782E+03  0.46796105405E+03  0.00000000000E+00 0.  1.
<mgrwt>
<rscale>  0 0.14361090E+04</rscale>
<asrwt>0</asrwt>
<pdfrwt beam="1">  1        2 0.17702181E+00 0.14361090E+04</pdfrwt>
<pdfrwt beam="2">  1       -2 0.68938417E-01 0.14361090E+04</pdfrwt>
<totfact> 0.37850320E+01</totfact>
</mgrwt>
</event>
<event>
 6    1  0.1014650E-006  0.1283488E+04  0.7818608E-02  0.9042763E-01
         -1   -1    0    0    0  501 -0.00000000000E+00  0.00000000000E+00  0.11045138568E+04  0.11045138568E+04  0.00000000000E+00 0.  1.
          1   -1    0    0  501    0  0.00000000000E+00 -0.00000000000E+00 -0.37286566687E+03  0.37286566687E+03  0.00000000000E+00 0. -1.
         23    2    1    2    0    0 -0.50599770863E+03  0.38558519872E+03  0.42378040118E+03  0.77063190115E+03  0.97847187204E+02 0.  0.
         13    1    3    3    0    0 -0.23400445933E+03  0.20474228016E+03  0.25964769933E+03  0.40508568975E+03  0.00000000000E+00 0.  1.
        -13    1    3    3    0    0 -0.27199324929E+03  0.18084291856E+03  0.16413270185E+03  0.36554621140E+03  0.00000000000E+00 0. -1.
         22    1    1    2    0    0  0.50599770863E+03 -0.38558519872E+03  0.30786778879E+03  0.70674762255E+03  0.00000000000E+00 0. -1.
<mgrwt>
<rscale>  0 0.12834879E+04</rscale>
<asrwt>0</asrwt>
<pdfrwt beam="1">  1        1 0.57363949E-01 0.12834879E+04</pdfrwt>
<pdfrwt beam="2">  1       -1 0.16992521E+00 0.12834879E+04</pdfrwt>
<totfact> 0.15964112E+01</totfact>
</mgrwt>
</event>
<event>
 6    1  0.1014650E-006  0.5385578E+03  0.7818608E-02  0.1004178E+00
         -2   -1    0    0    0  501 -0.00000000000E+00  0.00000000000E+00  0.80895707900E+03  0.80895707900E+03  0.00000000000E+00 0.  1.
          2   -1    0    0  501    0  0.00000000000E+00 -0.00000000000E+00 -0.89635326560E+02  0.89635326560E+02  0.00000000000E+00 0. -1.
         23    2    1    2    0    0  0.84297085286E+02 -0.23416423761E+03  0.23501104220E+03  0.35407816992E+03  0.90566393843E+02 0.  0.
         11    1    3    3    0    0  0.47040088393E+01 -0.14331504287E+03  0.14001421506E+03  0.20041284797E+03  0.00000000000E+00 0.  1.
        -11    1    3    3    0    0  0.79593076447E+02 -0.90849194735E+02  0.94996827144E+02  0.15366532195E+03  0.00000000000E+00 0. -1.
         22    1    1    2    0    0 -0.84297085286E+02  0.23416423761E+03  0.48431071024E+03  0.54451423564E+03  0.00000000000E+00 0. -1.
<mgrwt>
<rscale>  0 0.53855782E+03</rscale>
<asrwt>0</asrwt>
<pdfrwt beam="1">  1        2 0.13790051E-01 0.53855782E+03</pdfrwt>
<pdfrwt beam="2">  1       -2 0.12445493E+00 0.53855782E+03</pdfrwt>
<totfact> 0.21856885E+02</totfact>
</mgrwt>
</event>
<event>
 6    1  0.1014650E-006  0.3724611E+04  0.7818608E-02  0.8062529E-01
          2   -1    0    0  501    0  0.00000000000E+00  0.00000000000E+00  0.42899403930E+04  0.42899403930E+04  0.00000000000E+00 0. -1.
         -2   -1    0    0    0  501 -0.00000000000E+00 -0.00000000000E+00 -0.80844525406E+03  0.80844525406E+03  0.00000000000E+00 0.  1.
         23    2    1    2    0    0  0.90849874946E+03 -0.10434535587E+04  0.34458896251E+04  0.37143939348E+04  0.91660719297E+02 0.  0.
         11    1    3    3    0    0  0.54782088315E+03 -0.64756680485E+03  0.19954971011E+04  0.21682848445E+04  0.00000000000E+00 0.  1.
        -11    1    3    3    0    0  0.36067786631E+03 -0.39588675384E+03  0.14503925241E+04  0.15461090903E+04  0.00000000000E+00 0. -1.
         22    1    1    2    0    0 -0.90849874946E+03  0.10434535587E+04  0.35605513809E+02  0.13839917122E+04  0.00000000000E+00 0.  1.
<mgrwt>
<rscale>  0 0.37246111E+04</rscale>
<asrwt>0</asrwt>
<pdfrwt beam="1">  1        2 0.65999082E+00 0.37246111E+04</pdfrwt>
<pdfrwt beam="2">  1       -2 0.12437620E+00 0.37246111E+04</pdfrwt>
<totfact> 0.75514824E-02</totfact>
</mgrwt>
</event>
<event>
 6    1  0.1014650E-006  0.9489170E+03  0.7818608E-02  0.9366417E-01
          1   -1    0    0  501    0  0.00000000000E+00  0.00000000000E+00  0.19744111166E+03  0.19744111166E+03  0.00000000000E+00 0. -1.
         -1   -1    0    0    0  501 -0.00000000000E+00 -0.00000000000E+00 -0.11401418202E+04  0.11401418202E+04  0.00000000000E+00 0.  1.
         23    2    1    2    0    0  0.34665090508E+03  0.12079159107E+03 -0.88952379255E+03  0.96665808384E+03  0.91748651610E+02 0.  0.
         11    1    3    3    0    0  0.27330222558E+03  0.72933759744E+02 -0.58513811650E+03  0.64992311484E+03  0.00000000000E+00 0. -1.
        -11    1    3    3    0    0  0.73348679494E+02  0.47857831329E+02 -0.30438567606E+03  0.31673496901E+03  0.00000000000E+00 0.  1.
         22    1    1    2    0    0 -0.34665090508E+03 -0.12079159107E+03 -0.53176915968E+02  0.37092484799E+03  0.00000000000E+00 0. -1.
<mgrwt>
<rscale>  0 0.94891700E+03</rscale>
<asrwt>0</asrwt>
<pdfrwt beam="1">  1        1 0.30375556E-01 0.94891700E+03</pdfrwt>
<pdfrwt beam="2">  1       -1 0.17540643E+00 0.94891700E+03</pdfrwt>
<totfact> 0.34222025E+01</totfact>
</mgrwt>
</event>
<event>
 6    1  0.1014650E-006  0.9854179E+03  0.7818608E-02  0.9324684E-01
          1   -1    0    0  501    0  0.00000000000E+00  0.00000000000E+00  0.91969526112E+03  0.91969526112E+03  0.00000000000E+00 0. -1.
         -1   -1    0    0    0  501 -0.00000000000E+00 -0.00000000000E+00 -0.26395930774E+03  0.26395930774E+03  0.00000000000E+00 0.  1.
         23    2    1    2    0    0 -0.25243826953E+03 -0.26588286511E+03  0.71865491248E+03  0.81166320700E+03  0.88957857931E+02 0.  0.
         11    1    3    3    0    0 -0.11304278211E+03 -0.11344970322E+03  0.41096658139E+03  0.44107033087E+03  0.00000000000E+00 0. -1.
        -11    1    3    3    0    0 -0.13939548742E+03 -0.15243316188E+03  0.30768833109E+03  0.37059287613E+03  0.00000000000E+00 0.  1.
         22    1    1    2    0    0  0.25243826953E+03  0.26588286511E+03 -0.62918959096E+02  0.37199136185E+03  0.00000000000E+00 0. -1.
<mgrwt>
<rscale>  0 0.98541793E+03</rscale>
<asrwt>0</asrwt>
<pdfrwt beam="1">  1        1 0.14149158E+00 0.98541793E+03</pdfrwt>
<pdfrwt beam="2">  1       -1 0.40609125E-01 0.98541793E+03</pdfrwt>
<totfact> 0.10413908E+02</totfact>
</mgrwt>
</event>
<event>
 6    1  0.1014650E-006  0.3245081E+04  0.7818608E-02  0.8177012E-01
          2   -1    0    0  501    0  0.00000000000E+00  0.00000000000E+00  0.32504289539E+04  0.32504289539E+04  0.00000000000E+00 0. -1.
         -2   -1    0    0    0  501 -0.00000000000E+00 -0.00000000000E+00 -0.80993564488E+03  0.80993564488E+03  0.00000000000E+00 0.  1.
         23    2    1    2    0    0  0.46004670407E+03  0.30198159386E+03 -0.68710894919E+03  0.88471793417E+03  0.88154761778E+02 0.  0.
         11    1    3    3    0    0  0.15091048299E+03  0.11116147148E+03 -0.17201614343E+03  0.25440204445E+03  0.00000000000E+00 0. -1.
        -11    1    3    3    0    0  0.30913622108E+03  0.19082012238E+03 -0.51509280576E+03  0.63031588972E+03  0.00000000000E+00 0.  1.
         22    1    1    2    0    0 -0.46004670407E+03 -0.30198159386E+03  0.31276022582E+04  0.31756466646E+04  0.00000000000E+00 0. -1.
<mgrwt>
<rscale>  0 0.32450814E+04</rscale>
<asrwt>0</asrwt>
<pdfrwt beam="1">  1        2 0.50006599E+00 0.32450814E+04</pdfrwt>
<pdfrwt beam="2">  1       -2 0.12460549E+00 0.32450814E+04</pdfrwt>
<totfact> 0.48667922E-01</totfact>
</mgrwt>
</event>
<event>
 6    1  0.1014650E-006  0.2020009E+04  0.7818608E-02  0.8597322E-01
          2   -1    0    0  501    0  0.00000000000E+00  0.00000000000E+00  0.27957462995E+04  0.27957462995E+04  0.00000000000E+00 0. -1.
         -2   -1    0    0    0  501 -0.00000000000E+00 -0.00000000000E+00 -0.36487907616E+03  0.36487907616E+03  0.00000000000E+00 0.  1.
         23    2    1    2    0    0  0.45848596998E+03 -0.67201806550E+03  0.21490079300E+04  0.22996594493E+04  0.91546898984E+02 0.  0.
         13    1    3    3    0    0  0.33637250666E+03 -0.48013731437E+03  0.16563243361E+04  0.17570112721E+04  0.00000000000E+00 0. -1.
        -13    1    3    3    0    0  0.12211346331E+03 -0.19188075113E+03  0.49268359390E+03  0.54264817725E+03  0.00000000000E+00 0.  1.
         22    1    1    2    0    0 -0.45848596998E+03  0.67201806550E+03  0.28185929332E+03  0.86096592630E+03  0.00000000000E+00 0.  1.
<mgrwt>
<rscale>  0 0.20200092E+04</rscale>
<asrwt>0</asrwt>
<pdfrwt beam="1">  1        2 0.43011480E+00 0.20200092E+04</pdfrwt>
<pdfrwt beam="2">  1       -2 0.56135244E-01 0.20200092E+04</pdfrwt>
<totfact> 0.64372019E+00</totfact>
</mgrwt>
</event>
<event>
 6    1  0.2845121E-006  0.3435034E+04  0.7818608E-02  0.8129361E-01
          1   -1    0    0  501    0  0.00000000000E+00  0.00000000000E+00  0.15674868938E+04  0.15674868938E+04  0.00000000000E+00 0. -1.
         -1   -1    0    0    0  501 -0.00000000000E+00 -0.00000000000E+00 -0.18819065574E+04  0.18819065574E+04  0.00000000000E+00 0.  1.
         23    2    1    2    0    0 -0.43893177398E+03 -0.81831846660E+03  0.12921227322E+04  0.15937844717E+04  0.90893190541E+02 0.  0.
         11    1    3    3    0    0 -0.18130236626E+03 -0.26275693667E+03  0.40171841442E+03  0.51311737474E+03  0.00000000000E+00 0. -1.
        -11    1    3    3    0    0 -0.25762940771E+03 -0.55556152993E+03  0.89040431780E+03  0.10806670969E+04  0.00000000000E+00 0.  1.
         22    1    1    2    0    0  0.43893177398E+03  0.81831846660E+03 -0.16065423959E+04  0.18556089795E+04  0.00000000000E+00 0.  1.
<mgrwt>
<rscale>  0 0.34350335E+04</rscale>
<asrwt>0</asrwt>
<pdfrwt beam="1">  1        1 0.24115183E+00 0.34350335E+04</pdfrwt>
<pdfrwt beam="2">  1       -1 0.28952409E+00 0.34350335E+04</pdfrwt>
<totfact> 0.18607533E-01</totfact>
</mgrwt>
</event>
<event>
 6    1  0.1014650E-006  0.9840400E+03  0.7818608E-02  0.9326225E-01
          2   -1    0    0  501    0  0.00000000000E+00  0.00000000000E+00  0.24507121156E+04  0.24507121156E+04  0.00000000000E+00 0. -1.
         -2   -1    0    0    0  501 -0.00000000000E+00 -0.00000000000E+00 -0.98780947658E+02  0.98780947658E+02  0.00000000000E+00 0.  1.
         23    2    1    2    0    0 -0.35186528008E+03  0.32511661760E+03  0.14251304197E+04  0.15061955902E+04  0.90102455072E+02 0.  0.
         13    1    3    3    0    0 -0.23407674992E+03  0.19519719973E+03  0.10242631516E+04  0.10686481532E+04  0.00000000000E+00 0.  1.
        -13    1    3    3    0    0 -0.11778853016E+03  0.12991941787E+03  0.40086726802E+03  0.43754743691E+03  0.00000000000E+00 0. -1.
         22    1    1    2    0    0  0.35186528008E+03 -0.32511661760E+03  0.92680074830E+03  0.10432974731E+04  0.00000000000E+00 0.  1.
<mgrwt>
<rscale>  0 0.98403997E+03</rscale>
<asrwt>0</asrwt>
<pdfrwt beam="1">  1        2 0.37703259E+00 0.98403997E+03</pdfrwt>
<pdfrwt beam="2">  1       -2 0.15197071E-01 0.98403997E+03</pdfrwt>
<totfact> 0.12911461E+02</totfact>
</mgrwt>
</event>
<event>
 6    1  0.1014650E-006  0.3275278E+04  0.7818608E-02  0.8169215E-01
         -3   -1    0    0    0  501 -0.00000000000E+00  0.00000000000E+00  0.24669845202E+04  0.24669845202E+04  0.00000000000E+00 0.  1.
          3   -1    0    0  501    0  0.00000000000E+00 -0.00000000000E+00 -0.10871007800E+04  0.10871007800E+04  0.00000000000E+00 0. -1.
         23    2    1    2    0    0 -0.43531547033E+03 -0.14660848089E+04  0.13222181523E+04  0.20236508699E+04  0.89430280871E+02 0.  0.
         11    1    3    3    0    0 -0.17805062835E+03 -0.45779821489E+03  0.41012271410E+03  0.63990770619E+03  0.00000000000E+00 0. -1.
        -11    1    3    3    0    0 -0.25726484198E+03 -0.10082865940E+04  0.91209543824E+03  0.13837431637E+04  0.00000000000E+00 0.  1.
         22    1    1    2    0    0  0.43531547033E+03  0.14660848089E+04  0.57665587909E+02  0.15304344304E+04  0.00000000000E+00 0. -1.
<mgrwt>
<rscale>  0 0.32752776E+04</rscale>
<asrwt>0</asrwt>
<pdfrwt beam="1">  1        3 0.16724627E+00 0.32752776E+04</pdfrwt>
<pdfrwt beam="2">  1       -3 0.37953608E+00 0.32752776E+04</pdfrwt>
<totfact> 0.72158676E-03</totfact>
</mgrwt>
</event>
<event>
 6    1  0.1014650E-006  0.1298389E+04  0.7818608E-02  0.9030844E-01
         -2   -1    0    0    0  501 -0.00000000000E+00  0.00000000000E+00  0.39468714497E+03  0.39468714497E+03  0.00000000000E+00 0.  1.
          2   -1    0    0  501    0  0.00000000000E+00 -0.00000000000E+00 -0.10678165708E+04  0.10678165708E+04  0.00000000000E+00 0. -1.
         23    2    1    2    0    0  0.73325103869E+02  0.52078970796E+03 -0.76091624412E+03  0.92930111246E+03  0.89490425719E+02 0.  0.
         13    1    3    3    0    0  0.81621222113E+02  0.26051064774E+03 -0.38155897547E+03  0.46916422844E+03  0.00000000000E+00 0.  1.
        -13    1    3    3    0    0 -0.82961182438E+01  0.26027906022E+03 -0.37935726864E+03  0.46013688402E+03  0.00000000000E+00 0. -1.
         22    1    1    2    0    0 -0.73325103869E+02 -0.52078970796E+03  0.87786818241E+02  0.53320260336E+03  0.00000000000E+00 0.  1.
<mgrwt>
<rscale>  0 0.12983890E+04</rscale>
<asrwt>0</asrwt>
<pdfrwt beam="1">  1        2 0.16427947E+00 0.12983890E+04</pdfrwt>
<pdfrwt beam="2">  1       -2 0.60721101E-01 0.12983890E+04</pdfrwt>
<totfact> 0.56476435E+01</totfact>
</mgrwt>
</event>
<event>
 6    1  0.1014650E-006  0.3014618E+03  0.7818608E-02  0.1084512E+00
         -1   -1    0    0    0  501 -0.00000000000E+00  0.00000000000E+00  0.21756571720E+03  0.21756571720E+03  0.00000000000E+00 0.  1.
          1   -1    0    0  501    0  0.00000000000E+00 -0.00000000000E+00 -0.10442734064E+03  0.10442734064E+03  0.00000000000E+00 0. -1.
         23    2    1    2    0    0  0.11126176336E+03  0.17773042917E+02  0.14672313063E+03  0.20442181669E+03  0.86980118636E+02 0.  0.
         13    1    3    3    0    0  0.31358980700E+01 -0.23139051353E+02  0.10076049793E+02  0.25431797688E+02  0.00000000000E+00 0. -1.
        -13    1    3    3    0    0  0.10812586529E+03  0.40912094270E+02  0.13664708084E+03  0.17899001901E+03  0.00000000000E+00 0.  1.
         22    1    1    2    0    0 -0.11126176336E+03 -0.17773042917E+02 -0.33584754069E+02  0.11757124115E+03  0.00000000000E+00 0.  1.
<mgrwt>
<rscale>  0 0.30146183E+03</rscale>
<asrwt>0</asrwt>
<pdfrwt beam="1">  1        1 0.16065745E-01 0.30146183E+03</pdfrwt>
<pdfrwt beam="2">  1       -1 0.33471649E-01 0.30146183E+03</pdfrwt>
<totfact> 0.28746077E+03</totfact>
</mgrwt>
</event>
<event>
 6    1  0.1014650E-006  0.5349340E+04  0.7818608E-02  0.7776767E-01
          2   -1    0    0  501    0  0.00000000000E+00  0.00000000000E+00  0.36141085811E+04  0.36141085811E+04  0.00000000000E+00 0. -1.
         -2   -1    0    0    0  501 -0.00000000000E+00 -0.00000000000E+00 -0.19794260256E+04  0.19794260256E+04  0.00000000000E+00 0.  1.
         23    2    1    2    0    0 -0.15760367744E+04 -0.21418807008E+04  0.52589299913E+03  0.27123960936E+04  0.94785397779E+02 0.  0.
         11    1    3    3    0    0 -0.92550103242E+03 -0.13197413920E+04  0.28984531687E+03  0.16377667143E+04  0.00000000000E+00 0.  1.
        -11    1    3    3    0    0 -0.65053574201E+03 -0.82213930877E+03  0.23604768226E+03  0.10746293793E+04  0.00000000000E+00 0. -1.
         22    1    1    2    0    0  0.15760367744E+04  0.21418807008E+04  0.11087895564E+04  0.28811385130E+04  0.00000000000E+00 0.  1.
<mgrwt>
<rscale>  0 0.53493404E+04</rscale>
<asrwt>0</asrwt>
<pdfrwt beam="1">  1        2 0.55601670E+00 0.53493404E+04</pdfrwt>
<pdfrwt beam="2">  1       -2 0.30452708E+00 0.53493404E+04</pdfrwt>
<totfact> 0.14203919E-02</totfact>
</mgrwt>
</event>
<event>
 6    1  0.1014650E-006  0.2110919E+04  0.7818608E-02  0.8556449E-01
         -2   -1    0    0    0  501 -0.00000000000E+00  0.00000000000E+00  0.58488749578E+03  0.58488749578E+03  0.00000000000E+00 0.  1.
          2   -1    0    0  501    0  0.00000000000E+00 -0.00000000000E+00 -0.19046311816E+04  0.19046311816E+04  0.00000000000E+00 0. -1.
         23    2    1    2    0    0  0.67175859913E+03 -0.73661053124E+02  0.29214443487E+03  0.74170035734E+03  0.89919313807E+02 0.  0.
         11    1    3    3    0    0  0.75378476782E+02  0.12981488003E+02  0.54392309652E+02  0.93856044782E+02  0.00000000000E+00 0.  1.
        -11    1    3    3    0    0  0.59638012235E+03 -0.86642541127E+02  0.23775212522E+03  0.64784431255E+03  0.00000000000E+00 0. -1.
         22    1    1    2    0    0 -0.67175859913E+03  0.73661053124E+02 -0.16118881206E+04  0.17478183200E+04  0.00000000000E+00 0. -1.
<mgrwt>
<rscale>  0 0.21109192E+04</rscale>
<asrwt>0</asrwt>
<pdfrwt beam="1">  1        2 0.29302018E+00 0.21109192E+04</pdfrwt>
<pdfrwt beam="2">  1       -2 0.89982691E-01 0.21109192E+04</pdfrwt>
<totfact> 0.73478745E+00</totfact>
</mgrwt>
</event>
<event>
 6    1  0.1014650E-006  0.1037325E+04  0.7818608E-02  0.9268529E-01
          2   -1    0    0  501    0  0.00000000000E+00  0.00000000000E+00  0.11518156597E+04  0.11518156597E+04  0.00000000000E+00 0. -1.
         -2   -1    0    0    0  501 -0.00000000000E+00 -0.00000000000E+00 -0.23355357680E+03  0.23355357680E+03  0.00000000000E+00 0.  1.
         23    2    1    2    0    0 -0.30022805004E+03 -0.37680396749E+03  0.70367738982E+03  0.85795601854E+03  0.93853869733E+02 0.  0.
         11    1    3    3    0    0 -0.26327962688E+03 -0.27244413530E+03  0.56935115929E+03  0.68388793773E+03  0.00000000000E+00 0.  1.
        -11    1    3    3    0    0 -0.36948423157E+02 -0.10435983220E+03  0.13432623053E+03  0.17406808081E+03  0.00000000000E+00 0. -1.
         22    1    1    2    0    0  0.30022805004E+03  0.37680396749E+03  0.21458469304E+03  0.52741321792E+03  0.00000000000E+00 0.  1.
<mgrwt>
<rscale>  0 0.10373248E+04</rscale>
<asrwt>0</asrwt>
<pdfrwt beam="1">  1        2 0.17720241E+00 0.10373248E+04</pdfrwt>
<pdfrwt beam="2">  1       -2 0.35931320E-01 0.10373248E+04</pdfrwt>
<totfact> 0.14681403E+02</totfact>
</mgrwt>
</event>
<event>
 6    1  0.1014650E-006  0.2145626E+04  0.7818608E-02  0.8541407E-01
         -2   -1    0    0    0  501 -0.00000000000E+00  0.00000000000E+00  0.10735587292E+04  0.10735587292E+04  0.00000000000E+00 0.  1.
          2   -1    0    0  501    0  0.00000000000E+00 -0.00000000000E+00 -0.10720673016E+04  0.10720673016E+04  0.00000000000E+00 0. -1.
         23    2    1    2    0    0 -0.89630785764E+03  0.27356338950E+03  0.51861960418E+03  0.10752867132E+04  0.95239267565E+02 0.  0.
         13    1    3    3    0    0 -0.27681841650E+03  0.77827338439E+02  0.11046856812E+03  0.30804031370E+03  0.00000000000E+00 0. -1.
        -13    1    3    3    0    0 -0.61948944113E+03  0.19573605106E+03  0.40815103605E+03  0.76724639953E+03  0.00000000000E+00 0.  1.
         22    1    1    2    0    0  0.89630785764E+03 -0.27356338950E+03 -0.51712817662E+03  0.10703393176E+04  0.00000000000E+00 0. -1.
<mgrwt>
<rscale>  0 0.21456255E+04</rscale>
<asrwt>0</asrwt>
<pdfrwt beam="1">  1        2 0.16493343E+00 0.21456255E+04</pdfrwt>
<pdfrwt beam="2">  1       -2 0.16516288E+00 0.21456255E+04</pdfrwt>
<totfact> 0.48061902E+00</totfact>
</mgrwt>
</event>
<event>
 6    1  0.1014650E-006  0.3099653E+04  0.7818608E-02  0.8215833E-01
         -1   -1    0    0    0  501 -0.00000000000E+00  0.00000000000E+00  0.71949799450E+03  0.71949799450E+03  0.00000000000E+00 0.  1.
          1   -1    0    0  501    0  0.00000000000E+00 -0.00000000000E+00 -0.33383851488E+04  0.33383851488E+04  0.00000000000E+00 0. -1.
         23    2    1    2    0    0 -0.11101385246E+04 -0.44174740923E+03 -0.21320629321E+02  0.11987049101E+04  0.94289846124E+02 0.  0.
         11    1    3    3    0    0 -0.66189744950E+03 -0.26522032791E+03 -0.58945712092E+02  0.71548910052E+03  0.00000000000E+00 0. -1.
        -11    1    3    3    0    0 -0.44824107506E+03 -0.17652708132E+03  0.37625082771E+02  0.48321580962E+03  0.00000000000E+00 0.  1.
         22    1    1    2    0    0  0.11101385246E+04  0.44174740923E+03 -0.25975665250E+04  0.28591782332E+04  0.00000000000E+00 0. -1.
<mgrwt>
<rscale>  0 0.30996525E+04</rscale>
<asrwt>0</asrwt>
<pdfrwt beam="1">  1        1 0.51359771E+00 0.30996525E+04</pdfrwt>
<pdfrwt beam="2">  1       -1 0.11069200E+00 0.30996525E+04</pdfrwt>
<totfact> 0.21157047E-01</totfact>
</mgrwt>
</event>
<event>
 6    1  0.1014650E-006  0.4924653E+04  0.7818608E-02  0.7840236E-01
         -2   -1    0    0    0  501 -0.00000000000E+00  0.00000000000E+00  0.36295658014E+04  0.36295658014E+04  0.00000000000E+00 0.  1.
          2   -1    0    0  501    0  0.00000000000E+00 -0.00000000000E+00 -0.16704621290E+04  0.16704621290E+04  0.00000000000E+00 0. -1.
         23    2    1    2    0    0 -0.12519621289E+03  0.18665242596E+04 -0.74177852211E+03  0.20145520848E+04  0.92724447702E+02 0.  0.
         11    1    3    3    0    0 -0.83033485183E+02  0.14424830454E+04 -0.53323470928E+03  0.15401269918E+04  0.00000000000E+00 0. -1.
        -11    1    3    3    0    0 -0.42162727712E+02  0.42404121423E+03 -0.20854381282E+03  0.47442509297E+03  0.00000000000E+00 0.  1.
         22    1    1    2    0    0  0.12519621289E+03 -0.18665242596E+04  0.27008821945E+04  0.32854758456E+04  0.00000000000E+00 0.  1.
<mgrwt>
<rscale>  0 0.49246532E+04</rscale>
<asrwt>0</asrwt>
<pdfrwt beam="1">  1        2 0.25699417E+00 0.49246532E+04</pdfrwt>
<pdfrwt beam="2">  1       -2 0.55839474E+00 0.49246532E+04</pdfrwt>
<totfact> 0.58334266E-03</totfact>
</mgrwt>
</event>
<event>
 6    1  0.1014650E-006  0.1118827E+04  0.7818608E-02  0.9187033E-01
          2   -1    0    0  501    0  0.00000000000E+00  0.00000000000E+00  0.39705121963E+03  0.39705121963E+03  0.00000000000E+00 0. -1.
         -2   -1    0    0    0  501 -0.00000000000E+00 -0.00000000000E+00 -0.78816964108E+03  0.78816964108E+03  0.00000000000E+00 0.  1.
         23    2    1    2    0    0 -0.18737628103E+03  0.26267617639E+03 -0.67612020254E+03  0.75471573929E+03  0.91371081422E+02 0.  0.
         13    1    3    3    0    0 -0.53987294509E+02  0.82909492045E+02 -0.31179718522E+03  0.32711786340E+03  0.00000000000E+00 0. -1.
        -13    1    3    3    0    0 -0.13338898652E+03  0.17976668435E+03 -0.36432301731E+03  0.42759787590E+03  0.00000000000E+00 0.  1.
         22    1    1    2    0    0  0.18737628103E+03 -0.26267617639E+03  0.28500178109E+03  0.43050512141E+03  0.00000000000E+00 0. -1.
<mgrwt>
<rscale>  0 0.11188275E+04</rscale>
<asrwt>0</asrwt>
<pdfrwt beam="1">  1        2 0.61084803E-01 0.11188275E+04</pdfrwt>
<pdfrwt beam="2">  1       -2 0.12125687E+00 0.11188275E+04</pdfrwt>
<totfact> 0.41128628E+01</totfact>
</mgrwt>
</event>
<event>
 6    1  0.1014650E-006  0.5412638E+04  0.7818608E-02  0.7767826E-01
         -1   -1    0    0    0  501 -0.00000000000E+00  0.00000000000E+00  0.27638316906E+04  0.27638316906E+04  0.00000000000E+00 0.  1.
          1   -1    0    0  501    0  0.00000000000E+00 -0.00000000000E+00 -0.26500029828E+04  0.26500029828E+04  0.00000000000E+00 0. -1.
         23    2    1    2    0    0 -0.24819349563E+04  0.93636175999E+03 -0.47553447572E+03  0.26964603093E+04  0.89390655260E+02 0.  0.
         13    1    3    3    0    0 -0.93032846394E+03  0.36872570832E+03 -0.13877808943E+03  0.10103113663E+04  0.00000000000E+00 0. -1.
        -13    1    3    3    0    0 -0.15516064923E+04  0.56763605167E+03 -0.33675638630E+03  0.16861489430E+04  0.00000000000E+00 0.  1.
         22    1    1    2    0    0  0.24819349563E+04 -0.93636175999E+03  0.58936318353E+03  0.27173743641E+04  0.00000000000E+00 0.  1.
<mgrwt>
<rscale>  0 0.54126379E+04</rscale>
<asrwt>0</asrwt>
<pdfrwt beam="1">  1        1 0.40769277E+00 0.54126379E+04</pdfrwt>
<pdfrwt beam="2">  1       -1 0.42520487E+00 0.54126379E+04</pdfrwt>
<totfact> 0.35765703E-03</totfact>
</mgrwt>
</event>
<event>
 6    1  0.1014650E-006  0.2101433E+04  0.7818608E-02  0.8560612E-01
         -1   -1    0    0    0  501 -0.00000000000E+00  0.00000000000E+00  0.92723786397E+03  0.92723786397E+03  0.00000000000E+00 0.  1.
          1   -1    0    0  501    0  0.00000000000E+00 -0.00000000000E+00 -0.11906382855E+04  0.11906382855E+04  0.00000000000E+00 0. -1.
         23    2    1    2    0    0 -0.21685281038E+03  0.91719562065E+02  0.89846614858E+03  0.93239247344E+03  0.81710984282E+02 0.  0.
         11    1    3    3    0    0 -0.11846160486E+03  0.35138592523E+02  0.32273642983E+03  0.34558164831E+03  0.00000000000E+00 0. -1.
        -11    1    3    3    0    0 -0.98391205519E+02  0.56580969543E+02  0.57572971875E+03  0.58681082513E+03  0.00000000000E+00 0.  1.
         22    1    1    2    0    0  0.21685281038E+03 -0.91719562065E+02 -0.11618665701E+04  0.11854836761E+04  0.00000000000E+00 0. -1.
<mgrwt>
<rscale>  0 0.21014327E+04</rscale>
<asrwt>0</asrwt>
<pdfrwt beam="1">  1        1 0.18317512E+00 0.21014327E+04</pdfrwt>
<pdfrwt beam="2">  1       -1 0.14265198E+00 0.21014327E+04</pdfrwt>
<totfact> 0.39831932E+00</totfact>
</mgrwt>
</event>
<event>
 6    1  0.1014650E-006  0.2302897E+04  0.7818608E-02  0.8476780E-01
          1   -1    0    0  501    0  0.00000000000E+00  0.00000000000E+00  0.93114688880E+03  0.93114688880E+03  0.00000000000E+00 0. -1.
         -1   -1    0    0    0  501 -0.00000000000E+00 -0.00000000000E+00 -0.14238712376E+04  0.14238712376E+04  0.00000000000E+00 0.  1.
         23    2    1    2    0    0  0.72318831159E+03 -0.17980946397E+03  0.64854340757E+03  0.99199763167E+03  0.90099791202E+02 0.  0.
         13    1    3    3    0    0  0.58991725967E+03 -0.17371292991E+03  0.50216569628E+03  0.79394517556E+03  0.00000000000E+00 0.  1.
        -13    1    3    3    0    0  0.13327105192E+03 -0.60965340647E+01  0.14637771129E+03  0.19805245611E+03  0.00000000000E+00 0. -1.
         22    1    1    2    0    0 -0.72318831159E+03  0.17980946397E+03 -0.11412677564E+04  0.13630204948E+04  0.00000000000E+00 0.  1.
<mgrwt>
<rscale>  0 0.23028967E+04</rscale>
<asrwt>0</asrwt>
<pdfrwt beam="1">  1        1 0.14325337E+00 0.23028967E+04</pdfrwt>
<pdfrwt beam="2">  1       -1 0.21905711E+00 0.23028967E+04</pdfrwt>
<totfact> 0.17318483E+00</totfact>
</mgrwt>
</event>
<event>
 6    1  0.1014650E-006  0.2478343E+04  0.7818608E-02  0.8410742E-01
          1   -1    0    0  501    0  0.00000000000E+00  0.00000000000E+00  0.27841722198E+04  0.27841722198E+04  0.00000000000E+00 0. -1.
         -1   -1    0    0    0  501 -0.00000000000E+00 -0.00000000000E+00 -0.55152677221E+03  0.55152677221E+03  0.00000000000E+00 0.  1.
         23    2    1    2    0    0 -0.97642183065E+03 -0.75721825480E+03  0.10327000953E+04  0.16133030081E+04  0.97457850086E+02 0.  0.
         11    1    3    3    0    0 -0.47759072682E+03 -0.31626874678E+03  0.44759365906E+03  0.72695179081E+03  0.00000000000E+00 0. -1.
        -11    1    3    3    0    0 -0.49883110383E+03 -0.44094950802E+03  0.58510643621E+03  0.88635121733E+03  0.00000000000E+00 0.  1.
         22    1    1    2    0    0  0.97642183065E+03  0.75721825480E+03  0.11999453524E+04  0.17223959839E+04  0.00000000000E+00 0.  1.
<mgrwt>
<rscale>  0 0.24783426E+04</rscale>
<asrwt>0</asrwt>
<pdfrwt beam="1">  1        1 0.42833418E+00 0.24783426E+04</pdfrwt>
<pdfrwt beam="2">  1       -1 0.84850274E-01 0.24783426E+04</pdfrwt>
<totfact> 0.10461073E+00</totfact>
</mgrwt>
</event>
<event>
 6    1  0.1014650E-006  0.1021338E+05  0.7818608E-02  0.7314314E-01
         -2   -1    0    0    0  501 -0.00000000000E+00  0.00000000000E+00  0.49025523910E+04  0.49025523910E+04  0.00000000000E+00 0.  1.
          2   -1    0    0  501    0  0.00000000000E+00 -0.00000000000E+00 -0.53193242329E+04  0.53193242329E+04  0.00000000000E+00 0. -1.
         23    2    1    2    0    0  0.12002855652E+04  0.27480207297E+04 -0.43448474338E+04  0.52800064086E+04  0.92005882304E+02 0.  0.
         13    1    3    3    0    0  0.81499402121E+03  0.18321919273E+04 -0.29771218685E+04  0.35894842433E+04  0.00000000000E+00 0. -1.
        -13    1    3    3    0    0  0.38529154404E+03  0.91582880239E+03 -0.13677255653E+04  0.16905221653E+04  0.00000000000E+00 0.  1.
         22    1    1    2    0    0 -0.12002855652E+04 -0.27480207297E+04  0.39280755919E+04  0.49418702153E+04  0.00000000000E+00 0.  1.
<mgrwt>
<rscale>  0 0.10213377E+05</rscale>
<asrwt>0</asrwt>
<pdfrwt beam="1">  1        2 0.81835757E+00 0.10213377E+05</pdfrwt>
<pdfrwt beam="2">  1       -2 0.75423883E+00 0.10213377E+05</pdfrwt>
<totfact> 0.81283209E-07</totfact>
</mgrwt>
</event>
<event>
 6    1  0.1014650E-006  0.2129026E+04  0.7818608E-02  0.8548564E-01
         -1   -1    0    0    0  501 -0.00000000000E+00  0.00000000000E+00  0.49997242631E+03  0.49997242631E+03  0.00000000000E+00 0.  1.
          1   -1    0    0  501    0  0.00000000000E+00 -0.00000000000E+00 -0.22665018465E+04  0.22665018465E+04  0.00000000000E+00 0. -1.
         23    2    1    2    0    0  0.82691934370E+02  0.10449745047E+04 -0.65889197557E+03  0.12414593941E+04  0.90956695175E+02 0.  0.
         11    1    3    3    0    0  0.64723839144E+02  0.36619192400E+03 -0.26280230443E+03  0.45535782827E+03  0.00000000000E+00 0. -1.
        -11    1    3    3    0    0  0.17968095225E+02  0.67878258067E+03 -0.39608967114E+03  0.78610156586E+03  0.00000000000E+00 0.  1.
         22    1    1    2    0    0 -0.82691934370E+02 -0.10449745047E+04 -0.11076374446E+04  0.15250148786E+04  0.00000000000E+00 0.  1.
<mgrwt>
<rscale>  0 0.21290265E+04</rscale>
<asrwt>0</asrwt>
<pdfrwt beam="1">  1        1 0.34869260E+00 0.21290265E+04</pdfrwt>
<pdfrwt beam="2">  1       -1 0.76918833E-01 0.21290265E+04</pdfrwt>
<totfact> 0.30515949E+00</totfact>
</mgrwt>
</event>
<event>
 6    1  0.1014650E-006  0.1671307E+04  0.7818608E-02  0.8777901E-01
          3   -1    0    0  501    0  0.00000000000E+00  0.00000000000E+00  0.93990062965E+03  0.93990062965E+03  0.00000000000E+00 0. -1.
         -3   -1    0    0    0  501 -0.00000000000E+00 -0.00000000000E+00 -0.74296831205E+03  0.74296831205E+03  0.00000000000E+00 0.  1.
         23    2    1    2    0    0 -0.42221851532E+03  0.71259454380E+03  0.18896163473E+03  0.85454352840E+03  0.92079769772E+02 0.  0.
         11    1    3    3    0    0 -0.11961378567E+03  0.28244599211E+03  0.86955132637E+02  0.31881717531E+03  0.00000000000E+00 0. -1.
        -11    1    3    3    0    0 -0.30260472964E+03  0.43014855169E+03  0.10200650210E+03  0.53572635309E+03  0.00000000000E+00 0.  1.
         22    1    1    2    0    0  0.42221851532E+03 -0.71259454380E+03  0.79706828685E+01  0.82832541330E+03  0.00000000000E+00 0.  1.
<mgrwt>
<rscale>  0 0.16713065E+04</rscale>
<asrwt>0</asrwt>
<pdfrwt beam="1">  1        3 0.14460010E+00 0.16713065E+04</pdfrwt>
<pdfrwt beam="2">  1       -3 0.11430282E+00 0.16713065E+04</pdfrwt>
<totfact> 0.56457058E-01</totfact>
</mgrwt>
</event>
<event>
 6    1  0.1014650E-006  0.2174469E+04  0.7818608E-02  0.8529130E-01
          2   -1    0    0  501    0  0.00000000000E+00  0.00000000000E+00  0.15761866025E+04  0.15761866025E+04  0.00000000000E+00 0. -1.
         -2   -1    0    0    0  501 -0.00000000000E+00 -0.00000000000E+00 -0.74996134719E+03  0.74996134719E+03  0.00000000000E+00 0.  1.
         23    2    1    2    0    0  0.10981111306E+03  0.10699200444E+04  0.25805188657E+03  0.11097564178E+04  0.90449703386E+02 0.  0.
         11    1    3    3    0    0  0.51436804640E+02  0.17225009565E+03  0.44246096750E+02  0.18513118970E+03  0.00000000000E+00 0. -1.
        -11    1    3    3    0    0  0.58374308423E+02  0.89766994871E+03  0.21380578982E+03  0.92462522812E+03  0.00000000000E+00 0.  1.
         22    1    1    2    0    0 -0.10981111306E+03 -0.10699200444E+04  0.56817336875E+03  0.12163915319E+04  0.00000000000E+00 0. -1.
<mgrwt>
<rscale>  0 0.21744692E+04</rscale>
<asrwt>0</asrwt>
<pdfrwt beam="1">  1        2 0.24249025E+00 0.21744692E+04</pdfrwt>
<pdfrwt beam="2">  1       -2 0.11537867E+00 0.21744692E+04</pdfrwt>
<totfact> 0.61621892E+00</totfact>
</mgrwt>
</event>
<event>
 6    1  0.1014650E-006  0.1431950E+04  0.7818608E-02  0.8931011E-01
          2   -1    0    0  501    0  0.00000000000E+00  0.00000000000E+00  0.88534949264E+03  0.88534949264E+03  0.00000000000E+00 0. -1.
         -2   -1    0    0    0  501 -0.00000000000E+00 -0.00000000000E+00 -0.57900303634E+03  0.57900303634E+03  0.00000000000E+00 0.  1.
         23    2    1    2    0    0  0.30889741902E+03  0.39772485994E+03 -0.36230247024E+03  0.62727782105E+03  0.92799273415E+02 0.  0.
         13    1    3    3    0    0  0.14340047468E+03  0.17437861821E+03 -0.10696632835E+03  0.24982672801E+03  0.00000000000E+00 0. -1.
        -13    1    3    3    0    0  0.16549694435E+03  0.22334624173E+03 -0.25533614189E+03  0.37745109304E+03  0.00000000000E+00 0.  1.
         22    1    1    2    0    0 -0.30889741902E+03 -0.39772485994E+03  0.66864892653E+03  0.83707470793E+03  0.00000000000E+00 0. -1.
<mgrwt>
<rscale>  0 0.14319498E+04</rscale>
<asrwt>0</asrwt>
<pdfrwt beam="1">  1        2 0.13620761E+00 0.14319498E+04</pdfrwt>
<pdfrwt beam="2">  1       -2 0.89077390E-01 0.14319498E+04</pdfrwt>
<totfact> 0.31539428E+01</totfact>
</mgrwt>
</event>
<event>
 6    1  0.1014650E-006  0.2595998E+04  0.7818608E-02  0.8369562E-01
         -2   -1    0    0    0  501 -0.00000000000E+00  0.00000000000E+00  0.75575949381E+03  0.75575949381E+03  0.00000000000E+00 0.  1.
          2   -1    0    0  501    0  0.00000000000E+00 -0.00000000000E+00 -0.22292825082E+04  0.22292825082E+04  0.00000000000E+00 0. -1.
         23    2    1    2    0    0  0.19140011689E+03 -0.99062626506E+03  0.19824443607E+03  0.10324076762E+04  0.92684150425E+02 0.  0.
         13    1    3    3    0    0  0.83699484555E+02 -0.54553916374E+03  0.66585171738E+02  0.55592460639E+03  0.00000000000E+00 0. -1.
        -13    1    3    3    0    0  0.10770063234E+03 -0.44508710131E+03  0.13165926434E+03  0.47648306984E+03  0.00000000000E+00 0.  1.
         22    1    1    2    0    0 -0.19140011689E+03  0.99062626506E+03 -0.16717674505E+04  0.19526343258E+04  0.00000000000E+00 0. -1.
<mgrwt>
<rscale>  0 0.25959980E+04</rscale>
<asrwt>0</asrwt>
<pdfrwt beam="1">  1        2 0.34296654E+00 0.25959980E+04</pdfrwt>
<pdfrwt beam="2">  1       -2 0.11627069E+00 0.25959980E+04</pdfrwt>
<totfact> 0.25246831E+00</totfact>
</mgrwt>
</event>
<event>
 6    1  0.1014650E-006  0.2460349E+04  0.7818608E-02  0.8417249E-01
          2   -1    0    0  501    0  0.00000000000E+00  0.00000000000E+00  0.76254624465E+03  0.76254624465E+03  0.00000000000E+00 0. -1.
         -2   -1    0    0    0  501 -0.00000000000E+00 -0.00000000000E+00 -0.19845741954E+04  0.19845741954E+04  0.00000000000E+00 0.  1.
         23    2    1    2    0    0  0.43162945270E+03  0.11308352090E+04 -0.37792108169E+03  0.12714481659E+04  0.93079752826E+02 0.  0.
         13    1    3    3    0    0  0.59828455380E+02  0.25004023776E+03 -0.99493247386E+02  0.27567820162E+03  0.00000000000E+00 0. -1.
        -13    1    3    3    0    0  0.37180099732E+03  0.88079497121E+03 -0.27842783431E+03  0.99576996431E+03  0.00000000000E+00 0.  1.
         22    1    1    2    0    0 -0.43162945270E+03 -0.11308352090E+04 -0.84410686908E+03  0.14756722742E+04  0.00000000000E+00 0.  1.
<mgrwt>
<rscale>  0 0.24603492E+04</rscale>
<asrwt>0</asrwt>
<pdfrwt beam="1">  1        2 0.11731481E+00 0.24603492E+04</pdfrwt>
<pdfrwt beam="2">  1       -2 0.30531910E+00 0.24603492E+04</pdfrwt>
<totfact> 0.96842651E-01</totfact>
</mgrwt>
</event>
<event>
 6    1  0.1014650E-006  0.4063556E+04  0.7818608E-02  0.7991847E-01
         -2   -1    0    0    0  501 -0.00000000000E+00  0.00000000000E+00  0.23339876189E+04  0.23339876189E+04  0.00000000000E+00 0.  1.
          2   -1    0    0  501    0  0.00000000000E+00 -0.00000000000E+00 -0.17686990304E+04  0.17686990304E+04  0.00000000000E+00 0. -1.
         23    2    1    2    0    0 -0.15028710852E+04  0.13538647291E+04  0.10172887741E+03  0.20274857411E+04  0.93693450508E+02 0.  0.
         11    1    3    3    0    0 -0.13073760431E+04  0.11337692079E+04  0.91471980299E+02  0.17329258086E+04  0.00000000000E+00 0.  1.
        -11    1    3    3    0    0 -0.19549504201E+03  0.22009552122E+03  0.10256897113E+02  0.29455993253E+03  0.00000000000E+00 0. -1.
         22    1    1    2    0    0  0.15028710852E+04 -0.13538647291E+04  0.46355971106E+03  0.20752009081E+04  0.00000000000E+00 0.  1.
<mgrwt>
<rscale>  0 0.40635559E+04</rscale>
<asrwt>0</asrwt>
<pdfrwt beam="1">  1        2 0.27210754E+00 0.40635559E+04</pdfrwt>
<pdfrwt beam="2">  1       -2 0.35907502E+00 0.40635559E+04</pdfrwt>
<totfact> 0.96055568E-02</totfact>
</mgrwt>
</event>
<event>
 6    1  0.1014650E-006  0.5957483E+03  0.7818608E-02  0.9914267E-01
         -2   -1    0    0    0  501 -0.00000000000E+00  0.00000000000E+00  0.22017118112E+03  0.22017118112E+03  0.00000000000E+00 0.  1.
          2   -1    0    0  501    0  0.00000000000E+00 -0.00000000000E+00 -0.40300006233E+03  0.40300006233E+03  0.00000000000E+00 0. -1.
         23    2    1    2    0    0  0.22174260514E+03  0.10034120605E+03 -0.26068423592E+03  0.36763338553E+03  0.89218242158E+02 0.  0.
         11    1    3    3    0    0  0.18237010890E+03  0.46449620605E+02 -0.16097175767E+03  0.24764557465E+03  0.00000000000E+00 0.  1.
        -11    1    3    3    0    0  0.39372496242E+02  0.53891585450E+02 -0.99712478250E+02  0.11998781089E+03  0.00000000000E+00 0. -1.
         22    1    1    2    0    0 -0.22174260514E+03 -0.10034120605E+03  0.77855354714E+02  0.25553785791E+03  0.00000000000E+00 0.  1.
<mgrwt>
<rscale>  0 0.59574827E+03</rscale>
<asrwt>0</asrwt>
<pdfrwt beam="1">  1        2 0.62000009E-01 0.59574827E+03</pdfrwt>
<pdfrwt beam="2">  1       -2 0.33872490E-01 0.59574827E+03</pdfrwt>
<totfact> 0.64704084E+02</totfact>
</mgrwt>
</event>
<event>
 6    1  0.1014650E-006  0.2140400E+04  0.7818608E-02  0.8543653E-01
          2   -1    0    0  501    0  0.00000000000E+00  0.00000000000E+00  0.53901860713E+03  0.53901860713E+03  0.00000000000E+00 0. -1.
         -2   -1    0    0    0  501 -0.00000000000E+00 -0.00000000000E+00 -0.21248387990E+04  0.21248387990E+04  0.00000000000E+00 0.  1.
         23    2    1    2    0    0  0.67707631237E+03 -0.26780044613E+03 -0.17659580152E+04  0.19137913776E+04  0.11764486233E+03 0.  0.
         11    1    3    3    0    0  0.40618064703E+03 -0.11796798581E+03 -0.90766880818E+03  0.10013799624E+04  0.00000000000E+00 0.  1.
        -11    1    3    3    0    0  0.27089566534E+03 -0.14983246032E+03 -0.85828920706E+03  0.91241141522E+03  0.00000000000E+00 0. -1.
         22    1    1    2    0    0 -0.67707631237E+03  0.26780044613E+03  0.18013782339E+03  0.75006602852E+03  0.00000000000E+00 0. -1.
<mgrwt>
<rscale>  0 0.21403996E+04</rscale>
<asrwt>0</asrwt>
<pdfrwt beam="1">  1        2 0.82925938E-01 0.21403996E+04</pdfrwt>
<pdfrwt beam="2">  1       -2 0.32689828E+00 0.21403996E+04</pdfrwt>
<totfact> 0.11252482E+00</totfact>
</mgrwt>
</event>
<event>
 6    1  0.1014650E-006  0.2786211E+04  0.7818608E-02  0.8307562E-01
          2   -1    0    0  501    0  0.00000000000E+00  0.00000000000E+00  0.13958345413E+04  0.13958345413E+04  0.00000000000E+00 0. -1.
         -2   -1    0    0    0  501 -0.00000000000E+00 -0.00000000000E+00 -0.13903819126E+04  0.13903819126E+04  0.00000000000E+00 0.  1.
         23    2    1    2    0    0  0.43714364487E+03  0.12687403834E+04  0.37138206173E+03  0.13952811294E+04  0.89933683999E+02 0.  0.
         13    1    3    3    0    0  0.23606954382E+03  0.56582212079E+03  0.14631821759E+03  0.63031144896E+03  0.00000000000E+00 0.  1.
        -13    1    3    3    0    0  0.20107410106E+03  0.70291826265E+03  0.22506384413E+03  0.76496968046E+03  0.00000000000E+00 0. -1.
         22    1    1    2    0    0 -0.43714364487E+03 -0.12687403834E+04 -0.36592943306E+03  0.13909353245E+04  0.00000000000E+00 0.  1.
<mgrwt>
<rscale>  0 0.27862111E+04</rscale>
<asrwt>0</asrwt>
<pdfrwt beam="1">  1        2 0.21474378E+00 0.27862111E+04</pdfrwt>
<pdfrwt beam="2">  1       -2 0.21390491E+00 0.27862111E+04</pdfrwt>
<totfact> 0.13700517E+00</totfact>
</mgrwt>
</event>
<event>
 6    1  0.1014650E-006  0.2325452E+04  0.7818608E-02  0.8467953E-01
         -2   -1    0    0    0  501 -0.00000000000E+00  0.00000000000E+00  0.14476653586E+04  0.14476653586E+04  0.00000000000E+00 0.  1.
          2   -1    0    0  501    0  0.00000000000E+00 -0.00000000000E+00 -0.93387001978E+03  0.93387001978E+03  0.00000000000E+00 0. -1.
         23    2    1    2    0    0  0.87217872554E+03  0.42654957042E+02 -0.52618229787E+03  0.10235704821E+04  0.91178652259E+02 0.  0.
         11    1    3    3    0    0  0.39728615728E+03  0.62195812646E+02 -0.22314648725E+03  0.45989016586E+03  0.00000000000E+00 0.  1.
        -11    1    3    3    0    0  0.47489256826E+03 -0.19540855605E+02 -0.30303581061E+03  0.56368031626E+03  0.00000000000E+00 0. -1.
         22    1    1    2    0    0 -0.87217872554E+03 -0.42654957042E+02  0.10399776367E+04  0.13579648962E+04  0.00000000000E+00 0.  1.
<mgrwt>
<rscale>  0 0.23254516E+04</rscale>
<asrwt>0</asrwt>
<pdfrwt beam="1">  1        2 0.14367231E+00 0.23254516E+04</pdfrwt>
<pdfrwt beam="2">  1       -2 0.22271775E+00 0.23254516E+04</pdfrwt>
<totfact> 0.23909849E+00</totfact>
</mgrwt>
</event>
<event>
 6    1  0.1014650E-006  0.2522261E+04  0.7818608E-02  0.8395098E-01
         -2   -1    0    0    0  501 -0.00000000000E+00  0.00000000000E+00  0.95378821558E+03  0.95378821558E+03  0.00000000000E+00 0.  1.
          2   -1    0    0  501    0  0.00000000000E+00 -0.00000000000E+00 -0.16675083228E+04  0.16675083228E+04  0.00000000000E+00 0. -1.
         23    2    1    2    0    0 -0.91031779705E+03 -0.34067239327E+03  0.47555883126E+03  0.10853536473E+04  0.84262486013E+02 0.  0.
         11    1    3    3    0    0 -0.64054556053E+03 -0.19802791016E+03  0.32705002015E+03  0.74597277698E+03  0.00000000000E+00 0.  1.
        -11    1    3    3    0    0 -0.26977223653E+03 -0.14264448311E+03  0.14850881111E+03  0.33938087032E+03  0.00000000000E+00 0. -1.
         22    1    1    2    0    0  0.91031779705E+03  0.34067239327E+03 -0.11892789385E+04  0.15359428911E+04  0.00000000000E+00 0. -1.
<mgrwt>
<rscale>  0 0.25222607E+04</rscale>
<asrwt>0</asrwt>
<pdfrwt beam="1">  1        2 0.25653974E+00 0.25222607E+04</pdfrwt>
<pdfrwt beam="2">  1       -2 0.14673665E+00 0.25222607E+04</pdfrwt>
<totfact> 0.28910203E+00</totfact>
</mgrwt>
</event>
<event>
 6    1  0.1014650E-006  0.1785769E+04  0.7818608E-02  0.8713904E-01
         -1   -1    0    0    0  501 -0.00000000000E+00  0.00000000000E+00  0.79934467707E+03  0.79934467707E+03  0.00000000000E+00 0.  1.
          1   -1    0    0  501    0  0.00000000000E+00 -0.00000000000E+00 -0.99737050644E+03  0.99737050644E+03  0.00000000000E+00 0. -1.
         23    2    1    2    0    0  0.31439562726E+02 -0.36545103757E+03  0.71717852845E+03  0.81074260603E+03  0.91736713457E+02 0.  0.
         13    1    3    3    0    0 -0.31315064252E+02 -0.10353863286E+03  0.22668526491E+03  0.25117143761E+03  0.00000000000E+00 0. -1.
        -13    1    3    3    0    0  0.62754626978E+02 -0.26191240471E+03  0.49049326354E+03  0.55957116842E+03  0.00000000000E+00 0.  1.
         22    1    1    2    0    0 -0.31439562726E+02  0.36545103757E+03 -0.91520435782E+03  0.98597257748E+03  0.00000000000E+00 0. -1.
<mgrwt>
<rscale>  0 0.17857691E+04</rscale>
<asrwt>0</asrwt>
<pdfrwt beam="1">  1        1 0.15344162E+00 0.17857691E+04</pdfrwt>
<pdfrwt beam="2">  1       -1 0.12297610E+00 0.17857691E+04</pdfrwt>
<totfact> 0.83720999E+00</totfact>
</mgrwt>
</event>
<event>
 6    1  0.1014650E-006  0.3897761E+03  0.7818608E-02  0.1047378E+00
          2   -1    0    0  501    0  0.00000000000E+00  0.00000000000E+00  0.85322413335E+03  0.85322413335E+03  0.00000000000E+00 0. -1.
         -2   -1    0    0    0  501 -0.00000000000E+00 -0.00000000000E+00 -0.44515095798E+02  0.44515095798E+02  0.00000000000E+00 0.  1.
         23    2    1    2    0    0 -0.12728742138E+03 -0.22175124938E+02  0.72897922126E+03  0.74591476664E+03  0.91018186446E+02 0.  0.
         13    1    3    3    0    0 -0.76293614376E+02 -0.30807731588E+02  0.61826739948E+03  0.62371821296E+03  0.00000000000E+00 0.  1.
        -13    1    3    3    0    0 -0.50993807006E+02  0.86326066501E+01  0.11071182178E+03  0.12219655368E+03  0.00000000000E+00 0. -1.
         22    1    1    2    0    0  0.12728742138E+03  0.22175124938E+02  0.79729816291E+02  0.15182446250E+03  0.00000000000E+00 0.  1.
<mgrwt>
<rscale>  0 0.38977611E+03</rscale>
<asrwt>0</asrwt>
<pdfrwt beam="1">  1        2 0.13126524E+00 0.38977611E+03</pdfrwt>
<pdfrwt beam="2">  1       -2 0.68484769E-02 0.38977611E+03</pdfrwt>
<totfact> 0.39528081E+03</totfact>
</mgrwt>
</event>
<event>
 6    1  0.1033695E-006  0.1817979E+04  0.7818608E-02  0.8696797E-01
         -4   -1    0    0    0  501 -0.00000000000E+00  0.00000000000E+00  0.46112328496E+03  0.46112328496E+03  0.00000000000E+00 0.  1.
          4   -1    0    0  501    0  0.00000000000E+00 -0.00000000000E+00 -0.17918455769E+04  0.17918455769E+04  0.00000000000E+00 0. -1.
         23    2    1    2    0    0 -0.47437830749E+03 -0.65144097208E+03 -0.11823877658E+04  0.14335707594E+04  0.87602366916E+02 0.  0.
         13    1    3    3    0    0 -0.20230427932E+03 -0.25654635788E+03 -0.40754853477E+03  0.52233979685E+03  0.00000000000E+00 0. -1.
        -13    1    3    3    0    0 -0.27207402817E+03 -0.39489461420E+03 -0.77483923101E+03  0.91123096252E+03  0.00000000000E+00 0.  1.
         22    1    1    2    0    0  0.47437830749E+03  0.65144097208E+03 -0.14833452615E+03  0.81939810249E+03  0.00000000000E+00 0.  1.
<mgrwt>
<rscale>  0 0.18179788E+04</rscale>
<asrwt>0</asrwt>
<pdfrwt beam="1">  1        4 0.27566855E+00 0.18179788E+04</pdfrwt>
<pdfrwt beam="2">  1       -4 0.70942043E-01 0.18179788E+04</pdfrwt>
<totfact> 0.15030851E-01</totfact>
</mgrwt>
</event>
<event>
 6    1  0.1014650E-006  0.1926277E+04  0.7818608E-02  0.8641886E-01
          1   -1    0    0  501    0  0.00000000000E+00  0.00000000000E+00  0.15792957099E+04  0.15792957099E+04  0.00000000000E+00 0. -1.
         -1   -1    0    0    0  501 -0.00000000000E+00 -0.00000000000E+00 -0.58737297226E+03  0.58737297226E+03  0.00000000000E+00 0.  1.
         23    2    1    2    0    0 -0.38912808848E+03 -0.26468799692E+03 -0.44541938947E+03  0.65424255329E+03  0.90302165293E+02 0.  0.
         11    1    3    3    0    0 -0.25196965226E+03 -0.17753376558E+03 -0.23092773509E+03  0.38514226256E+03  0.00000000000E+00 0. -1.
        -11    1    3    3    0    0 -0.13715843623E+03 -0.87154231337E+02 -0.21449165438E+03  0.26910029072E+03  0.00000000000E+00 0.  1.
         22    1    1    2    0    0  0.38912808848E+03  0.26468799692E+03  0.14373421271E+04  0.15124261289E+04  0.00000000000E+00 0. -1.
<mgrwt>
<rscale>  0 0.19262768E+04</rscale>
<asrwt>0</asrwt>
<pdfrwt beam="1">  1        1 0.24296857E+00 0.19262768E+04</pdfrwt>
<pdfrwt beam="2">  1       -1 0.90365073E-01 0.19262768E+04</pdfrwt>
<totfact> 0.64437632E+00</totfact>
</mgrwt>
</event>
<event>
 6    1  0.1014650E-006  0.2520846E+04  0.7818608E-02  0.8395596E-01
          1   -1    0    0  501    0  0.00000000000E+00  0.00000000000E+00  0.63716965665E+03  0.63716965665E+03  0.00000000000E+00 0. -1.
         -1   -1    0    0    0  501 -0.00000000000E+00 -0.00000000000E+00 -0.24933179173E+04  0.24933179173E+04  0.00000000000E+00 0.  1.
         23    2    1    2    0    0 -0.10639135930E+04 -0.29799664744E+03 -0.16783043323E+04  0.20114064339E+04  0.91303205357E+02 0.  0.
         13    1    3    3    0    0 -0.42938579904E+03 -0.16695404916E+03 -0.69416639929E+03  0.83313432821E+03  0.00000000000E+00 0. -1.
        -13    1    3    3    0    0 -0.63452779394E+03 -0.13104259828E+03 -0.98413793301E+03  0.11782721057E+04  0.00000000000E+00 0.  1.
         22    1    1    2    0    0  0.10639135930E+04  0.29799664744E+03 -0.17784392838E+03  0.11190811401E+04  0.00000000000E+00 0. -1.
<mgrwt>
<rscale>  0 0.25208463E+04</rscale>
<asrwt>0</asrwt>
<pdfrwt beam="1">  1        1 0.98026099E-01 0.25208463E+04</pdfrwt>
<pdfrwt beam="2">  1       -1 0.38358738E+00 0.25208463E+04</pdfrwt>
<totfact> 0.25741053E-01</totfact>
</mgrwt>
</event>
<event>
 6    1  0.1014650E-006  0.1460247E+04  0.7818608E-02  0.8911327E-01
         -1   -1    0    0    0  501 -0.00000000000E+00  0.00000000000E+00  0.80250652070E+03  0.80250652070E+03  0.00000000000E+00 0.  1.
          1   -1    0    0  501    0  0.00000000000E+00 -0.00000000000E+00 -0.66426876216E+03  0.66426876216E+03  0.00000000000E+00 0. -1.
         23    2    1    2    0    0  0.49589516120E+03 -0.48146768072E+03 -0.15839661705E+03  0.71463494272E+03  0.88828343350E+02 0.  0.
         11    1    3    3    0    0  0.68750508539E+02 -0.84995391539E+02  0.48073396379E+01  0.10942558897E+03  0.00000000000E+00 0.  1.
        -11    1    3    3    0    0  0.42714465266E+03 -0.39647228918E+03 -0.16320395669E+03  0.60520935375E+03  0.00000000000E+00 0. -1.
         22    1    1    2    0    0 -0.49589516120E+03  0.48146768072E+03  0.29663437558E+03  0.75214034014E+03  0.00000000000E+00 0.  1.
<mgrwt>
<rscale>  0 0.14602466E+04</rscale>
<asrwt>0</asrwt>
<pdfrwt beam="1">  1        1 0.10219519E+00 0.14602466E+04</pdfrwt>
<pdfrwt beam="2">  1       -1 0.12346254E+00 0.14602466E+04</pdfrwt>
<totfact> 0.16519285E+01</totfact>
</mgrwt>
</event>
<event>
 6    1  0.1014650E-006  0.2121070E+04  0.7818608E-02  0.8552018E-01
         -2   -1    0    0    0  501 -0.00000000000E+00  0.00000000000E+00  0.34216188555E+03  0.34216188555E+03  0.00000000000E+00 0.  1.
          2   -1    0    0  501    0  0.00000000000E+00 -0.00000000000E+00 -0.32871411528E+04  0.32871411528E+04  0.00000000000E+00 0. -1.
         23    2    1    2    0    0 -0.53110413099E+03  0.72985482065E+03 -0.52915544364E+03  0.10503566636E+04  0.92108522994E+02 0.  0.
         13    1    3    3    0    0 -0.16983822900E+03  0.30251482939E+03 -0.22426581843E+03  0.41310459130E+03  0.00000000000E+00 0. -1.
        -13    1    3    3    0    0 -0.36126590199E+03  0.42733999126E+03 -0.30488962520E+03  0.63725207228E+03  0.00000000000E+00 0.  1.
         22    1    1    2    0    0  0.53110413099E+03 -0.72985482065E+03 -0.24158238236E+04  0.25789463748E+04  0.00000000000E+00 0. -1.
<mgrwt>
<rscale>  0 0.21210699E+04</rscale>
<asrwt>0</asrwt>
<pdfrwt beam="1">  1        2 0.50571401E+00 0.21210699E+04</pdfrwt>
<pdfrwt beam="2">  1       -2 0.52640291E-01 0.21210699E+04</pdfrwt>
<totfact> 0.35692448E+00</totfact>
</mgrwt>
</event>
<event>
 6    1  0.1014650E-006  0.2179898E+04  0.7818608E-02  0.8526842E-01
         -2   -1    0    0    0  501 -0.00000000000E+00  0.00000000000E+00  0.10502578194E+04  0.10502578194E+04  0.00000000000E+00 0.  1.
          2   -1    0    0  501    0  0.00000000000E+00 -0.00000000000E+00 -0.11311402216E+04  0.11311402216E+04  0.00000000000E+00 0. -1.
         23    2    1    2    0    0 -0.38422149022E+03 -0.98778415750E+03  0.20600550196E+03  0.10833778385E+04  0.89025719775E+02 0.  0.
         11    1    3    3    0    0 -0.11118260054E+03 -0.25544460483E+03  0.92787064370E+02  0.29363745693E+03  0.00000000000E+00 0. -1.
        -11    1    3    3    0    0 -0.27303888968E+03 -0.73233955267E+03  0.11321843759E+03  0.78974038158E+03  0.00000000000E+00 0.  1.
         22    1    1    2    0    0  0.38422149022E+03  0.98778415750E+03 -0.28688790418E+03  0.10980202024E+04  0.00000000000E+00 0. -1.
<mgrwt>
<rscale>  0 0.21798980E+04</rscale>
<asrwt>0</asrwt>
<pdfrwt beam="1">  1        2 0.17402157E+00 0.21798980E+04</pdfrwt>
<pdfrwt beam="2">  1       -2 0.16157813E+00 0.21798980E+04</pdfrwt>
<totfact> 0.46805269E+00</totfact>
</mgrwt>
</event>
<event>
 6    1  0.1014650E-006  0.5988488E+03  0.7818608E-02  0.9907797E-01
         -2   -1    0    0    0  501 -0.00000000000E+00  0.00000000000E+00  0.26067568340E+03  0.26067568340E+03  0.00000000000E+00 0.  1.
          2   -1    0    0  501    0  0.00000000000E+00 -0.00000000000E+00 -0.34393295212E+03  0.34393295212E+03  0.00000000000E+00 0. -1.
         23    2    1    2    0    0  0.14791115201E+03  0.25260351063E+03 -0.20835601127E+02  0.30530493181E+03  0.84206511867E+02 0.  0.
         13    1    3    3    0    0  0.62634972781E+02  0.17079345662E+03 -0.38139968106E+02  0.18587146582E+03  0.00000000000E+00 0. -1.
        -13    1    3    3    0    0  0.85276179233E+02  0.81810054011E+02  0.17304366979E+02  0.11943346599E+03  0.00000000000E+00 0.  1.
         22    1    1    2    0    0 -0.14791115201E+03 -0.25260351063E+03 -0.62421667594E+02  0.29930370372E+03  0.00000000000E+00 0.  1.
<mgrwt>
<rscale>  0 0.59884875E+03</rscale>
<asrwt>0</asrwt>
<pdfrwt beam="1">  1        2 0.52912761E-01 0.59884875E+03</pdfrwt>
<pdfrwt beam="2">  1       -2 0.40103952E-01 0.59884875E+03</pdfrwt>
<totfact> 0.55870419E+02</totfact>
</mgrwt>
</event>
<event>
 6    1  0.1014650E-006  0.1106924E+04  0.7818608E-02  0.9198469E-01
          1   -1    0    0  501    0  0.00000000000E+00  0.00000000000E+00  0.11035916250E+04  0.11035916250E+04  0.00000000000E+00 0. -1.
         -1   -1    0    0    0  501 -0.00000000000E+00 -0.00000000000E+00 -0.27756667770E+03  0.27756667770E+03  0.00000000000E+00 0.  1.
         23    2    1    2    0    0  0.40038214146E+03  0.94002441009E+02  0.87068030318E+03  0.96747192522E+03  0.93677199132E+02 0.  0.
         11    1    3    3    0    0  0.33004729218E+03  0.11290840303E+03  0.71048499891E+03  0.79149760342E+03  0.00000000000E+00 0. -1.
        -11    1    3    3    0    0  0.70334849278E+02 -0.18905962020E+02  0.16019530427E+03  0.17597432180E+03  0.00000000000E+00 0.  1.
         22    1    1    2    0    0 -0.40038214146E+03 -0.94002441009E+02 -0.44655355866E+02  0.41368637749E+03  0.00000000000E+00 0.  1.
<mgrwt>
<rscale>  0 0.11069241E+04</rscale>
<asrwt>0</asrwt>
<pdfrwt beam="1">  1        1 0.16978333E+00 0.11069241E+04</pdfrwt>
<pdfrwt beam="2">  1       -1 0.42702566E-01 0.11069241E+04</pdfrwt>
<totfact> 0.67718690E+01</totfact>
</mgrwt>
</event>
<event>
 6    1  0.1014650E-006  0.5557264E+04  0.7818608E-02  0.7747858E-01
          2   -1    0    0  501    0  0.00000000000E+00  0.00000000000E+00  0.34176623915E+04  0.34176623915E+04  0.00000000000E+00 0. -1.
         -2   -1    0    0    0  501 -0.00000000000E+00 -0.00000000000E+00 -0.22590866611E+04  0.22590866611E+04  0.00000000000E+00 0.  1.
         23    2    1    2    0    0  0.18566471440E+04 -0.14209219315E+04  0.21118405170E+04  0.31518982638E+04  0.91839771230E+02 0.  0.
         11    1    3    3    0    0  0.34888204829E+03 -0.31031865372E+03  0.40437347440E+03  0.61768459367E+03  0.00000000000E+00 0.  1.
        -11    1    3    3    0    0  0.15077650957E+04 -0.11106032778E+04  0.17074670426E+04  0.25342136701E+04  0.00000000000E+00 0. -1.
         22    1    1    2    0    0 -0.18566471440E+04  0.14209219315E+04 -0.95326478657E+03  0.25248507888E+04  0.00000000000E+00 0.  1.
<mgrwt>
<rscale>  0 0.55572639E+04</rscale>
<asrwt>0</asrwt>
<pdfrwt beam="1">  1        2 0.52579422E+00 0.55572639E+04</pdfrwt>
<pdfrwt beam="2">  1       -2 0.34755179E+00 0.55572639E+04</pdfrwt>
<totfact> 0.10396382E-02</totfact>
</mgrwt>
</event>
<event>
 6    1  0.1014650E-006  0.3454186E+04  0.7818608E-02  0.8124734E-01
          2   -1    0    0  501    0  0.00000000000E+00  0.00000000000E+00  0.17233824653E+04  0.17233824653E+04  0.00000000000E+00 0. -1.
         -2   -1    0    0    0  501 -0.00000000000E+00 -0.00000000000E+00 -0.17308120104E+04  0.17308120104E+04  0.00000000000E+00 0.  1.
         23    2    1    2    0    0 -0.57425612603E+03 -0.32010206488E+03 -0.15994789192E+04  0.17317379045E+04  0.91366988378E+02 0.  0.
         11    1    3    3    0    0 -0.36645651362E+03 -0.18292969659E+03 -0.88679734971E+03  0.97681277107E+03  0.00000000000E+00 0.  1.
        -11    1    3    3    0    0 -0.20779961241E+03 -0.13717236829E+03 -0.71268156951E+03  0.75492513342E+03  0.00000000000E+00 0. -1.
         22    1    1    2    0    0  0.57425612603E+03  0.32010206488E+03  0.15920493741E+04  0.17224565712E+04  0.00000000000E+00 0. -1.
<mgrwt>
<rscale>  0 0.34541865E+04</rscale>
<asrwt>0</asrwt>
<pdfrwt beam="1">  1        2 0.26513576E+00 0.34541865E+04</pdfrwt>
<pdfrwt beam="2">  1       -2 0.26627877E+00 0.34541865E+04</pdfrwt>
<totfact> 0.40092050E-01</totfact>
</mgrwt>
</event>
<event>
 6    1  0.1014650E-006  0.3149038E+04  0.7818608E-02  0.8202407E-01
         -1   -1    0    0    0  501 -0.00000000000E+00  0.00000000000E+00  0.11110199911E+04  0.11110199911E+04  0.00000000000E+00 0.  1.
          1   -1    0    0  501    0  0.00000000000E+00 -0.00000000000E+00 -0.22313823520E+04  0.22313823520E+04  0.00000000000E+00 0. -1.
         23    2    1    2    0    0 -0.19366220678E+03 -0.91711661585E+03  0.78037172213E+03  0.12231104821E+04  0.91713081827E+02 0.  0.
         13    1    3    3    0    0 -0.49732026966E+02 -0.18300247404E+03  0.20565504091E+03  0.27974484063E+03  0.00000000000E+00 0.  1.
        -13    1    3    3    0    0 -0.14393017981E+03 -0.73411414182E+03  0.57471668122E+03  0.94336564149E+03  0.00000000000E+00 0. -1.
         22    1    1    2    0    0  0.19366220678E+03  0.91711661585E+03 -0.19007340830E+04  0.21192918609E+04  0.00000000000E+00 0. -1.
<mgrwt>
<rscale>  0 0.31490382E+04</rscale>
<asrwt>0</asrwt>
<pdfrwt beam="1">  1        1 0.34328959E+00 0.31490382E+04</pdfrwt>
<pdfrwt beam="2">  1       -1 0.17092615E+00 0.31490382E+04</pdfrwt>
<totfact> 0.42205004E-01</totfact>
</mgrwt>
</event>
<event>
 6    1  0.1014650E-006  0.2874023E+04  0.7818608E-02  0.8280648E-01
          2   -1    0    0  501    0  0.00000000000E+00  0.00000000000E+00  0.10616963849E+04  0.10616963849E+04  0.00000000000E+00 0. -1.
         -2   -1    0    0    0  501 -0.00000000000E+00 -0.00000000000E+00 -0.19450028804E+04  0.19450028804E+04  0.00000000000E+00 0.  1.
         23    2    1    2    0    0  0.10825571104E+04  0.94261669707E+03 -0.46124750659E+03  0.15105074578E+04  0.91800779003E+02 0.  0.
         11    1    3    3    0    0  0.82947329640E+03  0.67985447799E+03 -0.31886152928E+03  0.11188837006E+04  0.00000000000E+00 0. -1.
        -11    1    3    3    0    0  0.25308381397E+03  0.26276221909E+03 -0.14238597732E+03  0.39162375721E+03  0.00000000000E+00 0.  1.
         22    1    1    2    0    0 -0.10825571104E+04 -0.94261669707E+03 -0.42205898888E+03  0.14961918075E+04  0.00000000000E+00 0.  1.
<mgrwt>
<rscale>  0 0.28740233E+04</rscale>
<asrwt>0</asrwt>
<pdfrwt beam="1">  1        2 0.16333791E+00 0.28740233E+04</pdfrwt>
<pdfrwt beam="2">  1       -2 0.29923121E+00 0.28740233E+04</pdfrwt>
<totfact> 0.63956030E-01</totfact>
</mgrwt>
</event>
<event>
 6    1  0.1014650E-006  0.2042624E+04  0.7818608E-02  0.8586948E-01
         -1   -1    0    0    0  501 -0.00000000000E+00  0.00000000000E+00  0.62154180377E+03  0.62154180377E+03  0.00000000000E+00 0.  1.
          1   -1    0    0  501    0  0.00000000000E+00 -0.00000000000E+00 -0.16782110962E+04  0.16782110962E+04  0.00000000000E+00 0. -1.
         23    2    1    2    0    0 -0.14059167425E+02  0.10191617467E+04 -0.53039560473E+03  0.11526468366E+04  0.91580053706E+02 0.  0.
         11    1    3    3    0    0  0.32889506914E+02  0.19798755307E+03 -0.96278869588E+02  0.22259921735E+03  0.00000000000E+00 0. -1.
        -11    1    3    3    0    0 -0.46948674339E+02  0.82117419367E+03 -0.43411673514E+03  0.93004761927E+03  0.00000000000E+00 0.  1.
         22    1    1    2    0    0  0.14059167425E+02 -0.10191617467E+04 -0.52627368769E+03  0.11471060633E+04  0.00000000000E+00 0.  1.
<mgrwt>
<rscale>  0 0.20426241E+04</rscale>
<asrwt>0</asrwt>
<pdfrwt beam="1">  1        1 0.25818631E+00 0.20426241E+04</pdfrwt>
<pdfrwt beam="2">  1       -1 0.95621819E-01 0.20426241E+04</pdfrwt>
<totfact> 0.48095052E+00</totfact>
</mgrwt>
</event>
<event>
 6    1  0.1014650E-006  0.1700256E+04  0.7818608E-02  0.8761218E-01
          1   -1    0    0  501    0  0.00000000000E+00  0.00000000000E+00  0.12850411952E+04  0.12850411952E+04  0.00000000000E+00 0. -1.
         -1   -1    0    0    0  501 -0.00000000000E+00 -0.00000000000E+00 -0.56240816145E+03  0.56240816145E+03  0.00000000000E+00 0.  1.
         23    2    1    2    0    0 -0.93770313676E+02 -0.69017366353E+03 -0.16223594392E+03  0.72133849832E+03  0.94213428467E+02 0.  0.
         13    1    3    3    0    0 -0.88299725780E+01 -0.48797494747E+02  0.12579080209E+02  0.51160503987E+02  0.00000000000E+00 0. -1.
        -13    1    3    3    0    0 -0.84940341098E+02 -0.64137616879E+03 -0.17481502413E+03  0.67017799434E+03  0.00000000000E+00 0.  1.
         22    1    1    2    0    0  0.93770313676E+02  0.69017366353E+03  0.88486897764E+03  0.11261108583E+04  0.00000000000E+00 0. -1.
<mgrwt>
<rscale>  0 0.17002560E+04</rscale>
<asrwt>0</asrwt>
<pdfrwt beam="1">  1        1 0.19769864E+00 0.17002560E+04</pdfrwt>
<pdfrwt beam="2">  1       -1 0.86524333E-01 0.17002560E+04</pdfrwt>
<totfact> 0.11621392E+01</totfact>
</mgrwt>
</event>
<event>
 6    1  0.1014650E-006  0.2045947E+04  0.7818608E-02  0.8585435E-01
         -1   -1    0    0    0  501 -0.00000000000E+00  0.00000000000E+00  0.67301292822E+03  0.67301292822E+03  0.00000000000E+00 0.  1.
          1   -1    0    0  501    0  0.00000000000E+00 -0.00000000000E+00 -0.15549110432E+04  0.15549110432E+04  0.00000000000E+00 0. -1.
         23    2    1    2    0    0  0.51162354386E+03  0.24255712053E+03  0.48344393609E+03  0.74983347224E+03  0.89104373641E+02 0.  0.
         13    1    3    3    0    0  0.25311571779E+03  0.73022694668E+02  0.20540674104E+03  0.33405360317E+03  0.00000000000E+00 0.  1.
        -13    1    3    3    0    0  0.25850782607E+03  0.16953442587E+03  0.27803719504E+03  0.41577986907E+03  0.00000000000E+00 0. -1.
         22    1    1    2    0    0 -0.51162354386E+03 -0.24255712053E+03 -0.13653420510E+04  0.14780904991E+04  0.00000000000E+00 0. -1.
<mgrwt>
<rscale>  0 0.20459474E+04</rscale>
<asrwt>0</asrwt>
<pdfrwt beam="1">  1        1 0.23921708E+00 0.20459474E+04</pdfrwt>
<pdfrwt beam="2">  1       -1 0.10354045E+00 0.20459474E+04</pdfrwt>
<totfact> 0.48707954E+00</totfact>
</mgrwt>
</event>
<event>
 6    1  0.1014650E-006  0.3059315E+04  0.7818608E-02  0.8226993E-01
         -2   -1    0    0    0  501 -0.00000000000E+00  0.00000000000E+00  0.93094619310E+03  0.93094619310E+03  0.00000000000E+00 0.  1.
          2   -1    0    0  501    0  0.00000000000E+00 -0.00000000000E+00 -0.25134132926E+04  0.25134132926E+04  0.00000000000E+00 0. -1.
         23    2    1    2    0    0 -0.19103527526E+03 -0.43307171987E+03  0.84402535613E+03  0.97213149700E+03  0.92818396488E+02 0.  0.
         11    1    3    3    0    0 -0.12313483444E+03 -0.34896446055E+03  0.70296380814E+03  0.79441582168E+03  0.00000000000E+00 0. -1.
        -11    1    3    3    0    0 -0.67900440817E+02 -0.84107259322E+02  0.14106154799E+03  0.17771567532E+03  0.00000000000E+00 0.  1.
         22    1    1    2    0    0  0.19103527526E+03  0.43307171987E+03 -0.24264924557E+04  0.24722279887E+04  0.00000000000E+00 0. -1.
<mgrwt>
<rscale>  0 0.30593153E+04</rscale>
<asrwt>0</asrwt>
<pdfrwt beam="1">  1        2 0.38667897E+00 0.30593153E+04</pdfrwt>
<pdfrwt beam="2">  1       -2 0.14322249E+00 0.30593153E+04</pdfrwt>
<totfact> 0.98559959E-01</totfact>
</mgrwt>
</event>
<event>
 6    1  0.1014650E-006  0.4337371E+04  0.7818608E-02  0.7939744E-01
         -2   -1    0    0    0  501 -0.00000000000E+00  0.00000000000E+00  0.28953007406E+04  0.28953007406E+04  0.00000000000E+00 0.  1.
          2   -1    0    0  501    0  0.00000000000E+00 -0.00000000000E+00 -0.16244243376E+04  0.16244243376E+04  0.00000000000E+00 0. -1.
         23    2    1    2    0    0 -0.14677836462E+04  0.45357291252E+03  0.22293681141E+04  0.27089728645E+04  0.91293883118E+02 0.  0.
         11    1    3    3    0    0 -0.13847167249E+04  0.44295377699E+03  0.21324110196E+04  0.25808574570E+04  0.00000000000E+00 0. -1.
        -11    1    3    3    0    0 -0.83066921310E+02  0.10619135529E+02  0.96957094505E+02  0.12811540747E+03  0.00000000000E+00 0.  1.
         22    1    1    2    0    0  0.14677836462E+04 -0.45357291252E+03 -0.95849171110E+03  0.18107522137E+04  0.00000000000E+00 0. -1.
<mgrwt>
<rscale>  0 0.43373711E+04</rscale>
<asrwt>0</asrwt>
<pdfrwt beam="1">  1        2 0.24991144E+00 0.43373711E+04</pdfrwt>
<pdfrwt beam="2">  1       -2 0.44543088E+00 0.43373711E+04</pdfrwt>
<totfact> 0.30893223E-02</totfact>
</mgrwt>
</event>
<event>
 6    1  0.1014650E-006  0.3511594E+04  0.7818608E-02  0.8111048E-01
          1   -1    0    0  501    0  0.00000000000E+00  0.00000000000E+00  0.14442184419E+04  0.14442184419E+04  0.00000000000E+00 0. -1.
         -1   -1    0    0    0  501 -0.00000000000E+00 -0.00000000000E+00 -0.21345957569E+04  0.21345957569E+04  0.00000000000E+00 0.  1.
         23    2    1    2    0    0 -0.13221390929E+04  0.10804326437E+04  0.66135155643E+02  0.17112763553E+04  0.93308236498E+02 0.  0.
         13    1    3    3    0    0 -0.61592353521E+03  0.46954479410E+03 -0.84250602252E+01  0.77453540689E+03  0.00000000000E+00 0.  1.
        -13    1    3    3    0    0 -0.70621555767E+03  0.61088784959E+03  0.74560215868E+02  0.93674094843E+03  0.00000000000E+00 0. -1.
         22    1    1    2    0    0  0.13221390929E+04 -0.10804326437E+04 -0.75651247066E+03  0.18675378435E+04  0.00000000000E+00 0.  1.
<mgrwt>
<rscale>  0 0.35115937E+04</rscale>
<asrwt>0</asrwt>
<pdfrwt beam="1">  1        1 0.22218745E+00 0.35115937E+04</pdfrwt>
<pdfrwt beam="2">  1       -1 0.32839935E+00 0.35115937E+04</pdfrwt>
<totfact> 0.12570704E-01</totfact>
</mgrwt>
</event>
<event>
 6    1  0.1014650E-006  0.2075626E+04  0.7818608E-02  0.8572057E-01
         -1   -1    0    0    0  501 -0.00000000000E+00  0.00000000000E+00  0.49936980359E+03  0.49936980359E+03  0.00000000000E+00 0.  1.
          1   -1    0    0  501    0  0.00000000000E+00 -0.00000000000E+00 -0.21568295838E+04  0.21568295838E+04  0.00000000000E+00 0. -1.
         23    2    1    2    0    0  0.24051232331E+03  0.29279629145E+03 -0.20639944058E+04  0.21004600170E+04  0.91013899656E+02 0.  0.
         13    1    3    3    0    0  0.11337554361E+03  0.20248918088E+03 -0.11372754794E+04  0.11607115914E+04  0.00000000000E+00 0. -1.
        -13    1    3    3    0    0  0.12713677970E+03  0.90307110570E+02 -0.92671892633E+03  0.93974842559E+03  0.00000000000E+00 0.  1.
         22    1    1    2    0    0 -0.24051232331E+03 -0.29279629145E+03  0.40653462561E+03  0.55573937036E+03  0.00000000000E+00 0.  1.
<mgrwt>
<rscale>  0 0.20756258E+04</rscale>
<asrwt>0</asrwt>
<pdfrwt beam="1">  1        1 0.33181994E+00 0.20756258E+04</pdfrwt>
<pdfrwt beam="2">  1       -1 0.76826123E-01 0.20756258E+04</pdfrwt>
<totfact> 0.36518184E+00</totfact>
</mgrwt>
</event>
<event>
 6    1  0.1014650E-006  0.7200079E+03  0.7818608E-02  0.9683615E-01
         -1   -1    0    0    0  501 -0.00000000000E+00  0.00000000000E+00  0.76469267360E+03  0.76469267360E+03  0.00000000000E+00 0.  1.
          1   -1    0    0  501    0  0.00000000000E+00 -0.00000000000E+00 -0.16948358833E+03  0.16948358833E+03  0.00000000000E+00 0. -1.
         23    2    1    2    0    0  0.12650888043E+02  0.35222138689E+03  0.34913302092E+03  0.50432351994E+03  0.90710507197E+02 0.  0.
         13    1    3    3    0    0 -0.25709809508E+02  0.18945294300E+03  0.22953265560E+03  0.29872839152E+03  0.00000000000E+00 0.  1.
        -13    1    3    3    0    0  0.38360697551E+02  0.16276844389E+03  0.11960036532E+03  0.20559512842E+03  0.00000000000E+00 0. -1.
         22    1    1    2    0    0 -0.12650888043E+02 -0.35222138689E+03  0.24607606435E+03  0.42985274199E+03  0.00000000000E+00 0.  1.
<mgrwt>
<rscale>  0 0.72000794E+03</rscale>
<asrwt>0</asrwt>
<pdfrwt beam="1">  1        1 0.26074399E-01 0.72000794E+03</pdfrwt>
<pdfrwt beam="2">  1       -1 0.11764503E+00 0.72000794E+03</pdfrwt>
<totfact> 0.12200529E+02</totfact>
</mgrwt>
</event>
<event>
 6    1  0.1014650E-006  0.1808649E+04  0.7818608E-02  0.8701714E-01
         -2   -1    0    0    0  501 -0.00000000000E+00  0.00000000000E+00  0.59686553691E+03  0.59686553691E+03  0.00000000000E+00 0.  1.
          2   -1    0    0  501    0  0.00000000000E+00 -0.00000000000E+00 -0.13701622105E+04  0.13701622105E+04  0.00000000000E+00 0. -1.
         23    2    1    2    0    0 -0.67912032048E+03  0.22062823201E+03 -0.98702908009E+03  0.12216669166E+04  0.91446288769E+02 0.  0.
         13    1    3    3    0    0 -0.33542828072E+03  0.11436494717E+03 -0.56697334969E+03  0.66861816600E+03  0.00000000000E+00 0.  1.
        -13    1    3    3    0    0 -0.34369203976E+03  0.10626328484E+03 -0.42005573040E+03  0.55304875060E+03  0.00000000000E+00 0. -1.
         22    1    1    2    0    0  0.67912032048E+03 -0.22062823201E+03  0.21373240654E+03  0.74536083078E+03  0.00000000000E+00 0.  1.
<mgrwt>
<rscale>  0 0.18086488E+04</rscale>
<asrwt>0</asrwt>
<pdfrwt beam="1">  1        2 0.21079418E+00 0.18086488E+04</pdfrwt>
<pdfrwt beam="2">  1       -2 0.91825468E-01 0.18086488E+04</pdfrwt>
<totfact> 0.14328059E+01</totfact>
</mgrwt>
</event>
<event>
 6    1  0.1014650E-006  0.4894982E+04  0.7818608E-02  0.7844915E-01
         -2   -1    0    0    0  501 -0.00000000000E+00  0.00000000000E+00  0.23213553199E+04  0.23213553199E+04  0.00000000000E+00 0.  1.
          2   -1    0    0  501    0  0.00000000000E+00 -0.00000000000E+00 -0.25804805510E+04  0.25804805510E+04  0.00000000000E+00 0. -1.
         23    2    1    2    0    0 -0.24038251485E+04  0.25421784907E+03 -0.50797643030E+03  0.24718299082E+04  0.94345017316E+02 0.  0.
         11    1    3    3    0    0 -0.60576627405E+03  0.10041234299E+03 -0.10911348888E+03  0.62365148189E+03  0.00000000000E+00 0. -1.
        -11    1    3    3    0    0 -0.17980588744E+04  0.15380550608E+03 -0.39886294142E+03  0.18481784263E+04  0.00000000000E+00 0.  1.
         22    1    1    2    0    0  0.24038251485E+04 -0.25421784907E+03  0.24885119919E+03  0.24300059626E+04  0.00000000000E+00 0.  1.
<mgrwt>
<rscale>  0 0.48949820E+04</rscale>
<asrwt>0</asrwt>
<pdfrwt beam="1">  1        2 0.39699701E+00 0.48949820E+04</pdfrwt>
<pdfrwt beam="2">  1       -2 0.35713159E+00 0.48949820E+04</pdfrwt>
<totfact> 0.32169963E-02</totfact>
</mgrwt>
</event>
<event>
 6    1  0.1014650E-006  0.2731783E+04  0.7818608E-02  0.8324766E-01
         -2   -1    0    0    0  501 -0.00000000000E+00  0.00000000000E+00  0.10004513828E+04  0.10004513828E+04  0.00000000000E+00 0.  1.
          2   -1    0    0  501    0  0.00000000000E+00 -0.00000000000E+00 -0.18648173093E+04  0.18648173093E+04  0.00000000000E+00 0. -1.
         23    2    1    2    0    0 -0.84232072408E+03 -0.92972026514E+02 -0.15542211320E+04  0.17725435644E+04  0.90329179839E+02 0.  0.
         11    1    3    3    0    0 -0.12693241333E+03 -0.14029016538E+02 -0.30788500229E+03  0.33331940462E+03  0.00000000000E+00 0. -1.
        -11    1    3    3    0    0 -0.71538831075E+03 -0.78943009976E+02 -0.12463361297E+04  0.14392241598E+04  0.00000000000E+00 0.  1.
         22    1    1    2    0    0  0.84232072408E+03  0.92972026514E+02  0.68985520553E+03  0.10927251276E+04  0.00000000000E+00 0.  1.
<mgrwt>
<rscale>  0 0.27317826E+04</rscale>
<asrwt>0</asrwt>
<pdfrwt beam="1">  1        2 0.28689496E+00 0.27317826E+04</pdfrwt>
<pdfrwt beam="2">  1       -2 0.15391560E+00 0.27317826E+04</pdfrwt>
<totfact> 0.19444301E+00</totfact>
</mgrwt>
</event>
<event>
 6    1  0.1014650E-006  0.2088740E+04  0.7818608E-02  0.8566220E-01
         -2   -1    0    0    0  501 -0.00000000000E+00  0.00000000000E+00  0.36755636169E+03  0.36755636169E+03  0.00000000000E+00 0.  1.
          2   -1    0    0  501    0  0.00000000000E+00 -0.00000000000E+00 -0.29674597476E+04  0.29674597476E+04  0.00000000000E+00 0. -1.
         23    2    1    2    0    0  0.88025870957E+03 -0.11458417868E+03 -0.43024231962E+03  0.99078615632E+03  0.92540932526E+02 0.  0.
         13    1    3    3    0    0  0.18392168200E+03 -0.52301505952E+02 -0.64638089630E+02  0.20184329383E+03  0.00000000000E+00 0. -1.
        -13    1    3    3    0    0  0.69633702758E+03 -0.62282672724E+02 -0.36560422999E+03  0.78894286249E+03  0.00000000000E+00 0.  1.
         22    1    1    2    0    0 -0.88025870957E+03  0.11458417868E+03 -0.21696610663E+04  0.23442299530E+04  0.00000000000E+00 0. -1.
<mgrwt>
<rscale>  0 0.20887400E+04</rscale>
<asrwt>0</asrwt>
<pdfrwt beam="1">  1        2 0.45653226E+00 0.20887400E+04</pdfrwt>
<pdfrwt beam="2">  1       -2 0.56547133E-01 0.20887400E+04</pdfrwt>
<totfact> 0.49467450E+00</totfact>
</mgrwt>
</event>
<event>
 6    1  0.1014650E-006  0.3799267E+04  0.7818608E-02  0.8046312E-01
         -2   -1    0    0    0  501 -0.00000000000E+00  0.00000000000E+00  0.11025748199E+04  0.11025748199E+04  0.00000000000E+00 0.  1.
          2   -1    0    0  501    0  0.00000000000E+00 -0.00000000000E+00 -0.32728920417E+04  0.32728920417E+04  0.00000000000E+00 0. -1.
         23    2    1    2    0    0 -0.12273824863E+04 -0.62917607509E+03 -0.25882562040E+04  0.29342856468E+04  0.92907361554E+02 0.  0.
         11    1    3    3    0    0 -0.80553134615E+03 -0.38864176199E+03 -0.17584122037E+04  0.19727991907E+04  0.00000000000E+00 0. -1.
        -11    1    3    3    0    0 -0.42185114018E+03 -0.24053431309E+03 -0.82984400033E+03  0.96148645603E+03  0.00000000000E+00 0.  1.
         22    1    1    2    0    0  0.12273824863E+04  0.62917607509E+03  0.41793898214E+03  0.14411812148E+04  0.00000000000E+00 0.  1.
<mgrwt>
<rscale>  0 0.37992675E+04</rscale>
<asrwt>0</asrwt>
<pdfrwt beam="1">  1        2 0.50352185E+00 0.37992675E+04</pdfrwt>
<pdfrwt beam="2">  1       -2 0.16962690E+00 0.37992675E+04</pdfrwt>
<totfact> 0.19941589E-01</totfact>
</mgrwt>
</event>
<event>
 6    1  0.1014650E-006  0.2918692E+04  0.7818608E-02  0.8267338E-01
         -2   -1    0    0    0  501 -0.00000000000E+00  0.00000000000E+00  0.22510768694E+04  0.22510768694E+04  0.00000000000E+00 0.  1.
          2   -1    0    0  501    0  0.00000000000E+00 -0.00000000000E+00 -0.94607623981E+03  0.94607623981E+03  0.00000000000E+00 0. -1.
         23    2    1    2    0    0 -0.21584940482E+02 -0.12540605856E+04  0.14672889747E+04  0.19324510222E+04  0.91083237855E+02 0.  0.
         13    1    3    3    0    0  0.26476587701E+02 -0.77018733687E+03  0.86914953050E+03  0.11615982309E+04  0.00000000000E+00 0. -1.
        -13    1    3    3    0    0 -0.48061528183E+02 -0.48387324869E+03  0.59813944416E+03  0.77085279137E+03  0.00000000000E+00 0.  1.
         22    1    1    2    0    0  0.21584940482E+02  0.12540605856E+04 -0.16228834505E+03  0.12647020870E+04  0.00000000000E+00 0. -1.
<mgrwt>
<rscale>  0 0.29186917E+04</rscale>
<asrwt>0</asrwt>
<pdfrwt beam="1">  1        2 0.14555019E+00 0.29186917E+04</pdfrwt>
<pdfrwt beam="2">  1       -2 0.34631952E+00 0.29186917E+04</pdfrwt>
<totfact> 0.38619578E-01</totfact>
</mgrwt>
</event>
<event>
 6    1  0.1163360E-006  0.2632581E+04  0.7818608E-02  0.8357218E-01
          2   -1    0    0  501    0  0.00000000000E+00  0.00000000000E+00  0.12613746820E+04  0.12613746820E+04  0.00000000000E+00 0. -1.
         -2   -1    0    0    0  501 -0.00000000000E+00 -0.00000000000E+00 -0.13735975942E+04  0.13735975942E+04  0.00000000000E+00 0.  1.
         23    2    1    2    0    0 -0.35893731489E+01  0.45416911875E+03 -0.12910379609E+04  0.13716879095E+04  0.92012132158E+02 0.  0.
         11    1    3    3    0    0 -0.15512998791E+02  0.26943941056E+03 -0.63358476709E+03  0.68867111612E+03  0.00000000000E+00 0. -1.
        -11    1    3    3    0    0  0.11923625642E+02  0.18472970819E+03 -0.65745319381E+03  0.68301679335E+03  0.00000000000E+00 0.  1.
         22    1    1    2    0    0  0.35893731489E+01 -0.45416911875E+03  0.11788150487E+04  0.12632843667E+04  0.00000000000E+00 0. -1.
<mgrwt>
<rscale>  0 0.26325814E+04</rscale>
<asrwt>0</asrwt>
<pdfrwt beam="1">  1        2 0.19405764E+00 0.26325814E+04</pdfrwt>
<pdfrwt beam="2">  1       -2 0.21132271E+00 0.26325814E+04</pdfrwt>
<totfact> 0.17252374E+00</totfact>
</mgrwt>
</event>
<event>
 6    1  0.1014650E-006  0.2143042E+04  0.7818608E-02  0.8542517E-01
          2   -1    0    0  501    0  0.00000000000E+00  0.00000000000E+00  0.39431339569E+04  0.39431339569E+04  0.00000000000E+00 0. -1.
         -2   -1    0    0    0  501 -0.00000000000E+00 -0.00000000000E+00 -0.29117875772E+03  0.29117875772E+03  0.00000000000E+00 0.  1.
         23    2    1    2    0    0 -0.99267755424E+03 -0.16408046745E+03  0.25465814848E+04  0.27395946225E+04  0.89276594646E+02 0.  0.
         11    1    3    3    0    0 -0.26972299193E+03 -0.65865320451E+02  0.79724694579E+03  0.84421053380E+03  0.00000000000E+00 0. -1.
        -11    1    3    3    0    0 -0.72295456231E+03 -0.98215146996E+02  0.17493345390E+04  0.18953840887E+04  0.00000000000E+00 0.  1.
         22    1    1    2    0    0  0.99267755424E+03  0.16408046745E+03  0.11053737144E+04  0.14947180921E+04  0.00000000000E+00 0.  1.
<mgrwt>
<rscale>  0 0.21430416E+04</rscale>
<asrwt>0</asrwt>
<pdfrwt beam="1">  1        2 0.60663596E+00 0.21430416E+04</pdfrwt>
<pdfrwt beam="2">  1       -2 0.44796735E-01 0.21430416E+04</pdfrwt>
<totfact> 0.16618490E+00</totfact>
</mgrwt>
</event>
<event>
 6    1  0.1014650E-006  0.1978858E+04  0.7818608E-02  0.8616570E-01
          2   -1    0    0  501    0  0.00000000000E+00  0.00000000000E+00  0.10408254540E+04  0.10408254540E+04  0.00000000000E+00 0. -1.
         -2   -1    0    0    0  501 -0.00000000000E+00 -0.00000000000E+00 -0.94057041444E+03  0.94057041444E+03  0.00000000000E+00 0.  1.
         23    2    1    2    0    0  0.45670010493E+03  0.78913413251E+03  0.42948936337E+03  0.10120131241E+04  0.91661252318E+02 0.  0.
         13    1    3    3    0    0  0.27343182609E+03  0.55604623433E+03  0.30057166223E+03  0.68869129686E+03  0.00000000000E+00 0.  1.
        -13    1    3    3    0    0  0.18326827884E+03  0.23308789818E+03  0.12891770114E+03  0.32332182725E+03  0.00000000000E+00 0. -1.
         22    1    1    2    0    0 -0.45670010493E+03 -0.78913413251E+03 -0.32923432386E+03  0.96938274430E+03  0.00000000000E+00 0. -1.
<mgrwt>
<rscale>  0 0.19788579E+04</rscale>
<asrwt>0</asrwt>
<pdfrwt beam="1">  1        2 0.16012699E+00 0.19788579E+04</pdfrwt>
<pdfrwt beam="2">  1       -2 0.14470314E+00 0.19788579E+04</pdfrwt>
<totfact> 0.72730311E+00</totfact>
</mgrwt>
</event>
<event>
 6    1  0.1014650E-006  0.9662719E+03  0.7818608E-02  0.9346331E-01
          1   -1    0    0  501    0  0.00000000000E+00  0.00000000000E+00  0.12236143636E+04  0.12236143636E+04  0.00000000000E+00 0. -1.
         -1   -1    0    0    0  501 -0.00000000000E+00 -0.00000000000E+00 -0.19076299773E+03  0.19076299773E+03  0.00000000000E+00 0.  1.
         23    2    1    2    0    0 -0.95964043488E+01 -0.43820351184E+03  0.23957186702E+03  0.50806242045E+03  0.92834987158E+02 0.  0.
         13    1    3    3    0    0  0.27321080147E+02 -0.25628378790E+03  0.17496281405E+03  0.31151213084E+03  0.00000000000E+00 0. -1.
        -13    1    3    3    0    0 -0.36917484496E+02 -0.18191972394E+03  0.64609052972E+02  0.19655028961E+03  0.00000000000E+00 0.  1.
         22    1    1    2    0    0  0.95964043488E+01  0.43820351184E+03  0.79327949880E+03  0.90631494084E+03  0.00000000000E+00 0. -1.
<mgrwt>
<rscale>  0 0.96627190E+03</rscale>
<asrwt>0</asrwt>
<pdfrwt beam="1">  1        1 0.18824836E+00 0.96627190E+03</pdfrwt>
<pdfrwt beam="2">  1       -1 0.29348154E-01 0.96627190E+03</pdfrwt>
<totfact> 0.10927978E+02</totfact>
</mgrwt>
</event>
<event>
 6    1  0.1014650E-006  0.2211707E+04  0.7818608E-02  0.8513571E-01
         -1   -1    0    0    0  501 -0.00000000000E+00  0.00000000000E+00  0.48996748759E+03  0.48996748759E+03  0.00000000000E+00 0.  1.
          1   -1    0    0  501    0  0.00000000000E+00 -0.00000000000E+00 -0.24959039473E+04  0.24959039473E+04  0.00000000000E+00 0. -1.
         23    2    1    2    0    0 -0.22893557095E+03  0.10744997283E+04 -0.86059689983E+03  0.13988100406E+04  0.95296085570E+02 0.  0.
         11    1    3    3    0    0 -0.15279261659E+03  0.49834984051E+03 -0.38966599315E+03  0.65079776693E+03  0.00000000000E+00 0.  1.
        -11    1    3    3    0    0 -0.76142954363E+02  0.57614988781E+03 -0.47093090668E+03  0.74801227369E+03  0.00000000000E+00 0. -1.
         22    1    1    2    0    0  0.22893557095E+03 -0.10744997283E+04 -0.11453395599E+04  0.15870613943E+04  0.00000000000E+00 0.  1.
<mgrwt>
<rscale>  0 0.22117068E+04</rscale>
<asrwt>0</asrwt>
<pdfrwt beam="1">  1        1 0.38398523E+00 0.22117068E+04</pdfrwt>
<pdfrwt beam="2">  1       -1 0.75379613E-01 0.22117068E+04</pdfrwt>
<totfact> 0.21971932E+00</totfact>
</mgrwt>
</event>
<event>
 6    1  0.1014650E-006  0.2933628E+04  0.7818608E-02  0.8262942E-01
         -2   -1    0    0    0  501 -0.00000000000E+00  0.00000000000E+00  0.11985596560E+04  0.11985596560E+04  0.00000000000E+00 0.  1.
          2   -1    0    0  501    0  0.00000000000E+00 -0.00000000000E+00 -0.17951068460E+04  0.17951068460E+04  0.00000000000E+00 0. -1.
         23    2    1    2    0    0  0.15155757478E+03  0.61535763340E+03 -0.16468514505E+04  0.17669743013E+04  0.91889967028E+02 0.  0.
         13    1    3    3    0    0  0.12117052830E+03  0.30371765281E+03 -0.81613276603E+03  0.87920384516E+03  0.00000000000E+00 0.  1.
        -13    1    3    3    0    0  0.30387046484E+02  0.31163998060E+03 -0.83071868445E+03  0.88777045614E+03  0.00000000000E+00 0. -1.
         22    1    1    2    0    0 -0.15155757478E+03 -0.61535763340E+03  0.10503042605E+04  0.12266922006E+04  0.00000000000E+00 0.  1.
<mgrwt>
<rscale>  0 0.29336275E+04</rscale>
<asrwt>0</asrwt>
<pdfrwt beam="1">  1        2 0.27617028E+00 0.29336275E+04</pdfrwt>
<pdfrwt beam="2">  1       -2 0.18439379E+00 0.29336275E+04</pdfrwt>
<totfact> 0.12643047E+00</totfact>
</mgrwt>
</event>
<event>
 6    1  0.1014650E-006  0.2921571E+04  0.7818608E-02  0.8266488E-01
         -2   -1    0    0    0  501 -0.00000000000E+00  0.00000000000E+00  0.65113872534E+03  0.65113872534E+03  0.00000000000E+00 0.  1.
          2   -1    0    0  501    0  0.00000000000E+00 -0.00000000000E+00 -0.32771735987E+04  0.32771735987E+04  0.00000000000E+00 0. -1.
         23    2    1    2    0    0 -0.26561523040E+03  0.10714281758E+04 -0.25977232719E+04  0.28240880111E+04  0.93792913321E+02 0.  0.
         11    1    3    3    0    0 -0.19283086732E+03  0.62454736671E+03 -0.14635001630E+04  0.16028337044E+04  0.00000000000E+00 0.  1.
        -11    1    3    3    0    0 -0.72784363071E+02  0.44688080906E+03 -0.11342231089E+04  0.12212543068E+04  0.00000000000E+00 0. -1.
         22    1    1    2    0    0  0.26561523040E+03 -0.10714281758E+04 -0.28311601418E+02  0.11042243129E+04  0.00000000000E+00 0.  1.
<mgrwt>
<rscale>  0 0.29215712E+04</rscale>
<asrwt>0</asrwt>
<pdfrwt beam="1">  1        2 0.50418055E+00 0.29215712E+04</pdfrwt>
<pdfrwt beam="2">  1       -2 0.10017519E+00 0.29215712E+04</pdfrwt>
<totfact> 0.81700758E-01</totfact>
</mgrwt>
</event>
<event>
 6    1  0.1014650E-006  0.1880572E+04  0.7818608E-02  0.8664588E-01
         -2   -1    0    0    0  501 -0.00000000000E+00  0.00000000000E+00  0.70978548525E+03  0.70978548525E+03  0.00000000000E+00 0.  1.
          2   -1    0    0  501    0  0.00000000000E+00 -0.00000000000E+00 -0.12456412150E+04  0.12456412150E+04  0.00000000000E+00 0. -1.
         23    2    1    2    0    0  0.61919678815E+03  0.53184710452E+03 -0.74938915312E+03  0.11117072398E+04  0.89682101158E+02 0.  0.
         13    1    3    3    0    0  0.32935209922E+03  0.24840340360E+03 -0.42723340248E+03  0.59389008779E+03  0.00000000000E+00 0.  1.
        -13    1    3    3    0    0  0.28984468892E+03  0.28344370092E+03 -0.32215575064E+03  0.51781715205E+03  0.00000000000E+00 0. -1.
         22    1    1    2    0    0 -0.61919678815E+03 -0.53184710452E+03  0.21353342334E+03  0.84371946043E+03  0.00000000000E+00 0.  1.
<mgrwt>
<rscale>  0 0.18805723E+04</rscale>
<asrwt>0</asrwt>
<pdfrwt beam="1">  1        2 0.19163711E+00 0.18805723E+04</pdfrwt>
<pdfrwt beam="2">  1       -2 0.10919777E+00 0.18805723E+04</pdfrwt>
<totfact> 0.11163855E+01</totfact>
</mgrwt>
</event>
<event>
 6    1  0.1014650E-006  0.1110864E+04  0.7818608E-02  0.9194668E-01
          2   -1    0    0  501    0  0.00000000000E+00  0.00000000000E+00  0.66588189547E+03  0.66588189547E+03  0.00000000000E+00 0. -1.
         -2   -1    0    0    0  501 -0.00000000000E+00 -0.00000000000E+00 -0.46330205800E+03  0.46330205800E+03  0.00000000000E+00 0.  1.
         23    2    1    2    0    0  0.43498218036E+03  0.15838606658E+03  0.40700038511E+03  0.62313711412E+03  0.91405175973E+02 0.  0.
         13    1    3    3    0    0  0.26885972354E+03  0.55277465710E+02  0.21020878406E+03  0.34572949260E+03  0.00000000000E+00 0.  1.
        -13    1    3    3    0    0  0.16612245682E+03  0.10310860087E+03  0.19679160105E+03  0.27740762152E+03  0.00000000000E+00 0. -1.
         22    1    1    2    0    0 -0.43498218036E+03 -0.15838606658E+03 -0.20442054764E+03  0.50604683935E+03  0.00000000000E+00 0.  1.
<mgrwt>
<rscale>  0 0.11108635E+04</rscale>
<asrwt>0</asrwt>
<pdfrwt beam="1">  1        2 0.10244337E+00 0.11108635E+04</pdfrwt>
<pdfrwt beam="2">  1       -2 0.71277239E-01 0.11108635E+04</pdfrwt>
<totfact> 0.77399833E+01</totfact>
</mgrwt>
</event>
<event>
 6    1  0.1014650E-006  0.1508726E+04  0.7818608E-02  0.8878671E-01
          1   -1    0    0  501    0  0.00000000000E+00  0.00000000000E+00  0.12924436380E+04  0.12924436380E+04  0.00000000000E+00 0. -1.
         -1   -1    0    0    0  501 -0.00000000000E+00 -0.00000000000E+00 -0.44030048151E+03  0.44030048151E+03  0.00000000000E+00 0.  1.
         23    2    1    2    0    0 -0.19110889063E+03 -0.69190328791E+03  0.68435488283E+03  0.99558357210E+03  0.87133664425E+02 0.  0.
         13    1    3    3    0    0 -0.10032843914E+03 -0.25101976460E+03  0.29841012017E+03  0.40264788307E+03  0.00000000000E+00 0.  1.
        -13    1    3    3    0    0 -0.90780451499E+02 -0.44088352331E+03  0.38594476266E+03  0.59293568903E+03  0.00000000000E+00 0. -1.
         22    1    1    2    0    0  0.19110889063E+03  0.69190328791E+03  0.16778827366E+03  0.73716054742E+03  0.00000000000E+00 0.  1.
<mgrwt>
<rscale>  0 0.15087260E+04</rscale>
<asrwt>0</asrwt>
<pdfrwt beam="1">  1        1 0.19883748E+00 0.15087260E+04</pdfrwt>
<pdfrwt beam="2">  1       -1 0.67738536E-01 0.15087260E+04</pdfrwt>
<totfact> 0.19538764E+01</totfact>
</mgrwt>
</event>
<event>
 6    1  0.1014650E-006  0.4590679E+04  0.7818608E-02  0.7894951E-01
         -2   -1    0    0    0  501 -0.00000000000E+00  0.00000000000E+00  0.15047707765E+04  0.15047707765E+04  0.00000000000E+00 0.  1.
          2   -1    0    0  501    0  0.00000000000E+00 -0.00000000000E+00 -0.35012524812E+04  0.35012524812E+04  0.00000000000E+00 0. -1.
         23    2    1    2    0    0 -0.11363115958E+03  0.20201551597E+04 -0.21784708475E+04  0.29745068394E+04  0.89536555548E+02 0.  0.
         11    1    3    3    0    0 -0.76688307791E+02  0.17231499533E+04 -0.18915075616E+04  0.25598686907E+04  0.00000000000E+00 0.  1.
        -11    1    3    3    0    0 -0.36942851787E+02  0.29700520634E+03 -0.28696328592E+03  0.41463814870E+03  0.00000000000E+00 0. -1.
         22    1    1    2    0    0  0.11363115958E+03 -0.20201551597E+04  0.18198914272E+03  0.20315164183E+04  0.00000000000E+00 0. -1.
<mgrwt>
<rscale>  0 0.45906786E+04</rscale>
<asrwt>0</asrwt>
<pdfrwt beam="1">  1        2 0.53865423E+00 0.45906786E+04</pdfrwt>
<pdfrwt beam="2">  1       -2 0.23150320E+00 0.45906786E+04</pdfrwt>
<totfact> 0.50961195E-02</totfact>
</mgrwt>
</event>
<event>
 6    1  0.1014650E-006  0.1531832E+04  0.7818608E-02  0.8863557E-01
          3   -1    0    0  501    0  0.00000000000E+00  0.00000000000E+00  0.98252159032E+03  0.98252159032E+03  0.00000000000E+00 0. -1.
         -3   -1    0    0    0  501 -0.00000000000E+00 -0.00000000000E+00 -0.59706274027E+03  0.59706274027E+03  0.00000000000E+00 0.  1.
         23    2    1    2    0    0 -0.15466454389E+03  0.67380603608E+03  0.52731387543E+03  0.87385170161E+03  0.87299357260E+02 0.  0.
         11    1    3    3    0    0 -0.10562055951E+03  0.41930776710E+03  0.27694127527E+03  0.51348921711E+03  0.00000000000E+00 0. -1.
        -11    1    3    3    0    0 -0.49043984379E+02  0.25449826898E+03  0.25037260016E+03  0.36036248449E+03  0.00000000000E+00 0.  1.
         22    1    1    2    0    0  0.15466454389E+03 -0.67380603608E+03 -0.14185502538E+03  0.70573262899E+03  0.00000000000E+00 0.  1.
<mgrwt>
<rscale>  0 0.15318316E+04</rscale>
<asrwt>0</asrwt>
<pdfrwt beam="1">  1        3 0.15115717E+00 0.15318316E+04</pdfrwt>
<pdfrwt beam="2">  1       -3 0.91855806E-01 0.15318316E+04</pdfrwt>
<totfact> 0.85178519E-01</totfact>
</mgrwt>
</event>
<event>
 6    1  0.1014650E-006  0.2168500E+04  0.7818608E-02  0.8531655E-01
          1   -1    0    0  501    0  0.00000000000E+00  0.00000000000E+00  0.41353791742E+03  0.41353791742E+03  0.00000000000E+00 0. -1.
         -1   -1    0    0    0  501 -0.00000000000E+00 -0.00000000000E+00 -0.28427812885E+04  0.28427812885E+04  0.00000000000E+00 0.  1.
         23    2    1    2    0    0  0.33149502333E+03  0.85264824080E+03 -0.34843353401E+03  0.98328872853E+03  0.92481473815E+02 0.  0.
         13    1    3    3    0    0  0.74178045064E+02  0.19104442386E+03 -0.37703729888E+02  0.20837928281E+03  0.00000000000E+00 0. -1.
        -13    1    3    3    0    0  0.25731697826E+03  0.66160381694E+03 -0.31072980412E+03  0.77490944572E+03  0.00000000000E+00 0.  1.
         22    1    1    2    0    0 -0.33149502333E+03 -0.85264824080E+03 -0.20808098370E+04  0.22730304773E+04  0.00000000000E+00 0.  1.
<mgrwt>
<rscale>  0 0.21684998E+04</rscale>
<asrwt>0</asrwt>
<pdfrwt beam="1">  1        1 0.63621218E-01 0.21684998E+04</pdfrwt>
<pdfrwt beam="2">  1       -1 0.43735097E+00 0.21684998E+04</pdfrwt>
<totfact> 0.20764942E-01</totfact>
</mgrwt>
</event>
<event>
 6    1  0.1014650E-006  0.8366959E+03  0.7818608E-02  0.9508369E-01
          2   -1    0    0  501    0  0.00000000000E+00  0.00000000000E+00  0.22293867184E+04  0.22293867184E+04  0.00000000000E+00 0. -1.
         -2   -1    0    0    0  501 -0.00000000000E+00 -0.00000000000E+00 -0.78503649118E+02  0.78503649118E+02  0.00000000000E+00 0.  1.
         23    2    1    2    0    0  0.97489923444E+02 -0.17548789459E+03  0.20851088321E+04  0.20966404288E+04  0.89005392540E+02 0.  0.
         13    1    3    3    0    0  0.54158348296E+02 -0.32260273004E+02  0.88427047661E+03  0.88651459532E+03  0.00000000000E+00 0. -1.
        -13    1    3    3    0    0  0.43331575148E+02 -0.14322762159E+03  0.12008383555E+04  0.12101258335E+04  0.00000000000E+00 0.  1.
         22    1    1    2    0    0 -0.97489923444E+02  0.17548789459E+03  0.65774237236E+02  0.21124993871E+03  0.00000000000E+00 0.  1.
<mgrwt>
<rscale>  0 0.83669587E+03</rscale>
<asrwt>0</asrwt>
<pdfrwt beam="1">  1        2 0.34298252E+00 0.83669587E+03</pdfrwt>
<pdfrwt beam="2">  1       -2 0.12077486E-01 0.83669587E+03</pdfrwt>
<totfact> 0.25584908E+02</totfact>
</mgrwt>
</event>
<event>
 6    1  0.1014650E-006  0.1234065E+04  0.7818608E-02  0.9083551E-01
          1   -1    0    0  501    0  0.00000000000E+00  0.00000000000E+00  0.10271553788E+04  0.10271553788E+04  0.00000000000E+00 0. -1.
         -1   -1    0    0    0  501 -0.00000000000E+00 -0.00000000000E+00 -0.37066372327E+03  0.37066372327E+03  0.00000000000E+00 0.  1.
         23    2    1    2    0    0 -0.56684372549E+03  0.48162690695E+02  0.69066145042E+02  0.58007819918E+03  0.89939595672E+02 0.  0.
         13    1    3    3    0    0 -0.37171809344E+03  0.71931738411E+02  0.59657212299E+02  0.38328514054E+03  0.00000000000E+00 0.  1.
        -13    1    3    3    0    0 -0.19512563205E+03 -0.23769047715E+02  0.94089327422E+01  0.19679305864E+03  0.00000000000E+00 0. -1.
         22    1    1    2    0    0  0.56684372549E+03 -0.48162690695E+02  0.58742551049E+03  0.81774090290E+03  0.00000000000E+00 0. -1.
<mgrwt>
<rscale>  0 0.12340652E+04</rscale>
<asrwt>0</asrwt>
<pdfrwt beam="1">  1        1 0.15802390E+00 0.12340652E+04</pdfrwt>
<pdfrwt beam="2">  1       -1 0.57025189E-01 0.12340652E+04</pdfrwt>
<totfact> 0.44298661E+01</totfact>
</mgrwt>
</event>
<event>
 6    1  0.1014650E-006  0.3337633E+04  0.7818608E-02  0.8153385E-01
          2   -1    0    0  501    0  0.00000000000E+00  0.00000000000E+00  0.29349288246E+04  0.29349288246E+04  0.00000000000E+00 0. -1.
         -2   -1    0    0    0  501 -0.00000000000E+00 -0.00000000000E+00 -0.94889825507E+03  0.94889825507E+03  0.00000000000E+00 0.  1.
         23    2    1    2    0    0  0.73053886171E+03  0.83351691231E+03 -0.45613892627E+03  0.12019193039E+04  0.90054547004E+02 0.  0.
         13    1    3    3    0    0  0.11679292838E+03  0.10280451936E+03 -0.90516183005E+02  0.18000704627E+03  0.00000000000E+00 0. -1.
        -13    1    3    3    0    0  0.61374593333E+03  0.73071239296E+03 -0.36562274327E+03  0.10219122576E+04  0.00000000000E+00 0.  1.
         22    1    1    2    0    0 -0.73053886171E+03 -0.83351691231E+03  0.24421694958E+04  0.26819077758E+04  0.00000000000E+00 0. -1.
<mgrwt>
<rscale>  0 0.33376332E+04</rscale>
<asrwt>0</asrwt>
<pdfrwt beam="1">  1        2 0.45152751E+00 0.33376332E+04</pdfrwt>
<pdfrwt beam="2">  1       -2 0.14598435E+00 0.33376332E+04</pdfrwt>
<totfact> 0.51205408E-01</totfact>
</mgrwt>
</event>
<event>
 6    1  0.1014650E-006  0.1523790E+04  0.7818608E-02  0.8868785E-01
         -2   -1    0    0    0  501 -0.00000000000E+00  0.00000000000E+00  0.22194495145E+03  0.22194495145E+03  0.00000000000E+00 0.  1.
          2   -1    0    0  501    0  0.00000000000E+00 -0.00000000000E+00 -0.26154401744E+04  0.26154401744E+04  0.00000000000E+00 0. -1.
         23    2    1    2    0    0  0.15980216273E+03 -0.72970318459E+03 -0.14444045766E+04  0.16295869127E+04  0.10604459503E+03 0.  0.
         13    1    3    3    0    0  0.14780510263E+02 -0.10585219374E+03 -0.29520759451E+03  0.31395966979E+03  0.00000000000E+00 0. -1.
        -13    1    3    3    0    0  0.14502165247E+03 -0.62385099086E+03 -0.11491969821E+04  0.13156272429E+04  0.00000000000E+00 0.  1.
         22    1    1    2    0    0 -0.15980216273E+03  0.72970318459E+03 -0.94909064628E+03  0.12077982131E+04  0.00000000000E+00 0.  1.
<mgrwt>
<rscale>  0 0.15237897E+04</rscale>
<asrwt>0</asrwt>
<pdfrwt beam="1">  1        2 0.40237542E+00 0.15237897E+04</pdfrwt>
<pdfrwt beam="2">  1       -2 0.34145376E-01 0.15237897E+04</pdfrwt>
<totfact> 0.23164795E+01</totfact>
</mgrwt>
</event>
<event>
 6    1  0.1014650E-006  0.5008216E+04  0.7818608E-02  0.7827241E-01
         -2   -1    0    0    0  501 -0.00000000000E+00  0.00000000000E+00  0.20060284551E+04  0.20060284551E+04  0.00000000000E+00 0.  1.
          2   -1    0    0  501    0  0.00000000000E+00 -0.00000000000E+00 -0.31258563198E+04  0.31258563198E+04  0.00000000000E+00 0. -1.
         23    2    1    2    0    0 -0.18825155896E+04  0.11691149971E+04 -0.17532534598E+04  0.28271238749E+04  0.89648692492E+02 0.  0.
         11    1    3    3    0    0 -0.66596332145E+03  0.41003027645E+03 -0.56469233202E+03  0.96462915308E+03  0.00000000000E+00 0.  1.
        -11    1    3    3    0    0 -0.12165522682E+04  0.75908472069E+03 -0.11885611278E+04  0.18624947218E+04  0.00000000000E+00 0. -1.
         22    1    1    2    0    0  0.18825155896E+04 -0.11691149971E+04  0.63342559509E+03  0.23047609000E+04  0.00000000000E+00 0.  1.
<mgrwt>
<rscale>  0 0.50082159E+04</rscale>
<asrwt>0</asrwt>
<pdfrwt beam="1">  1        2 0.48090097E+00 0.50082159E+04</pdfrwt>
<pdfrwt beam="2">  1       -2 0.30861976E+00 0.50082159E+04</pdfrwt>
<totfact> 0.29631894E-02</totfact>
</mgrwt>
</event>
<event>
 6    1  0.1014650E-006  0.2036764E+04  0.7818608E-02  0.8589623E-01
         -2   -1    0    0    0  501 -0.00000000000E+00  0.00000000000E+00  0.51337882921E+03  0.51337882921E+03  0.00000000000E+00 0.  1.
          2   -1    0    0  501    0  0.00000000000E+00 -0.00000000000E+00 -0.20201493806E+04  0.20201493806E+04  0.00000000000E+00 0. -1.
         23    2    1    2    0    0 -0.69671227201E+03  0.27551765566E+03  0.99872868228E+02  0.76078427840E+03  0.86603463606E+02 0.  0.
         13    1    3    3    0    0 -0.26013363089E+03  0.14103626843E+03  0.62509518211E+02  0.30243705923E+03  0.00000000000E+00 0.  1.
        -13    1    3    3    0    0 -0.43657864112E+03  0.13448138723E+03  0.37363350017E+02  0.45834721917E+03  0.00000000000E+00 0. -1.
         22    1    1    2    0    0  0.69671227201E+03 -0.27551765566E+03 -0.16066434196E+04  0.17727439314E+04  0.00000000000E+00 0. -1.
<mgrwt>
<rscale>  0 0.20367640E+04</rscale>
<asrwt>0</asrwt>
<pdfrwt beam="1">  1        2 0.31079221E+00 0.20367640E+04</pdfrwt>
<pdfrwt beam="2">  1       -2 0.78981359E-01 0.20367640E+04</pdfrwt>
<totfact> 0.85795038E+00</totfact>
</mgrwt>
</event>
<event>
 6    1  0.1014650E-006  0.3712452E+04  0.7818608E-02  0.8065208E-01
         -2   -1    0    0    0  501 -0.00000000000E+00  0.00000000000E+00  0.25551354307E+04  0.25551354307E+04  0.00000000000E+00 0.  1.
          2   -1    0    0  501    0  0.00000000000E+00 -0.00000000000E+00 -0.13484901055E+04  0.13484901055E+04  0.00000000000E+00 0. -1.
         23    2    1    2    0    0  0.12752970933E+04  0.28444358937E+03 -0.78091345240E+03  0.15250375672E+04  0.92859731252E+02 0.  0.
         11    1    3    3    0    0  0.63219160820E+03  0.10885298980E+03 -0.42279551074E+03  0.76829112111E+03  0.00000000000E+00 0.  1.
        -11    1    3    3    0    0  0.64310548505E+03  0.17559059958E+03 -0.35811794166E+03  0.75674644611E+03  0.00000000000E+00 0. -1.
         22    1    1    2    0    0 -0.12752970933E+04 -0.28444358937E+03  0.19875587776E+04  0.23785879690E+04  0.00000000000E+00 0.  1.
<mgrwt>
<rscale>  0 0.37124519E+04</rscale>
<asrwt>0</asrwt>
<pdfrwt beam="1">  1        2 0.20746002E+00 0.37124519E+04</pdfrwt>
<pdfrwt beam="2">  1       -2 0.39309776E+00 0.37124519E+04</pdfrwt>
<totfact> 0.10294877E-01</totfact>
</mgrwt>
</event>
<event>
 6    1  0.1014650E-006  0.3961462E+04  0.7818608E-02  0.8012366E-01
         -2   -1    0    0    0  501 -0.00000000000E+00  0.00000000000E+00  0.28032772815E+04  0.28032772815E+04  0.00000000000E+00 0.  1.
          2   -1    0    0  501    0  0.00000000000E+00 -0.00000000000E+00 -0.13995385646E+04  0.13995385646E+04  0.00000000000E+00 0. -1.
         23    2    1    2    0    0  0.13153097915E+04  0.13148412215E+03 -0.86144905529E+03  0.15801447715E+04  0.86227037417E+02 0.  0.
         13    1    3    3    0    0  0.68604272430E+03  0.38381007295E+02 -0.41046320032E+03  0.80037975993E+03  0.00000000000E+00 0.  1.
        -13    1    3    3    0    0  0.62926706724E+03  0.93103114859E+02 -0.45098585497E+03  0.77976501158E+03  0.00000000000E+00 0. -1.
         22    1    1    2    0    0 -0.13153097915E+04 -0.13148412215E+03  0.22651877722E+04  0.26226710746E+04  0.00000000000E+00 0.  1.
<mgrwt>
<rscale>  0 0.39614617E+04</rscale>
<asrwt>0</asrwt>
<pdfrwt beam="1">  1        2 0.21531363E+00 0.39614617E+04</pdfrwt>
<pdfrwt beam="2">  1       -2 0.43127343E+00 0.39614617E+04</pdfrwt>
<totfact> 0.52893187E-02</totfact>
</mgrwt>
</event>
<event>
 6    1  0.1014650E-006  0.1980242E+04  0.7818608E-02  0.8615914E-01
         -2   -1    0    0    0  501 -0.00000000000E+00  0.00000000000E+00  0.47325712033E+03  0.47325712033E+03  0.00000000000E+00 0.  1.
          2   -1    0    0  501    0  0.00000000000E+00 -0.00000000000E+00 -0.20714728580E+04  0.20714728580E+04  0.00000000000E+00 0. -1.
         23    2    1    2    0    0 -0.46056371719E+03 -0.75128765067E+03 -0.22692359418E+03  0.91470107845E+03  0.92906801013E+02 0.  0.
         13    1    3    3    0    0 -0.25491666787E+03 -0.34481976422E+03 -0.13885218057E+03  0.45073618160E+03  0.00000000000E+00 0. -1.
        -13    1    3    3    0    0 -0.20564704932E+03 -0.40646788646E+03 -0.88071413603E+02  0.46396489685E+03  0.00000000000E+00 0.  1.
         22    1    1    2    0    0  0.46056371719E+03  0.75128765067E+03 -0.13712921435E+04  0.16300288999E+04  0.00000000000E+00 0. -1.
<mgrwt>
<rscale>  0 0.19802417E+04</rscale>
<asrwt>0</asrwt>
<pdfrwt beam="1">  1        2 0.31868814E+00 0.19802417E+04</pdfrwt>
<pdfrwt beam="2">  1       -2 0.72808787E-01 0.19802417E+04</pdfrwt>
<totfact> 0.96709327E+00</totfact>
</mgrwt>
</event>
<event>
 6    1  0.1014650E-006  0.1735547E+04  0.7818608E-02  0.8741346E-01
         -2   -1    0    0    0  501 -0.00000000000E+00  0.00000000000E+00  0.16534159759E+03  0.16534159759E+03  0.00000000000E+00 0.  1.
          2   -1    0    0  501    0  0.00000000000E+00 -0.00000000000E+00 -0.45543966773E+04  0.45543966773E+04  0.00000000000E+00 0. -1.
         23    2    1    2    0    0  0.28000924142E+03  0.71105986059E+03 -0.10966583089E+04  0.13398140454E+04  0.91820091120E+02 0.  0.
         13    1    3    3    0    0  0.19588956259E+03  0.41625234826E+03 -0.59848928734E+03  0.75486963459E+03  0.00000000000E+00 0.  1.
        -13    1    3    3    0    0  0.84119678833E+02  0.29480751234E+03 -0.49816902153E+03  0.58494441078E+03  0.00000000000E+00 0. -1.
         22    1    1    2    0    0 -0.28000924142E+03 -0.71105986059E+03 -0.32923967709E+04  0.33799242296E+04  0.00000000000E+00 0. -1.
<mgrwt>
<rscale>  0 0.17355474E+04</rscale>
<asrwt>0</asrwt>
<pdfrwt beam="1">  1        2 0.70067636E+00 0.17355474E+04</pdfrwt>
<pdfrwt beam="2">  1       -2 0.25437171E-01 0.17355474E+04</pdfrwt>
<totfact> 0.14718925E+00</totfact>
</mgrwt>
</event>
<event>
 6    1  0.1014650E-006  0.1287605E+04  0.7818608E-02  0.9039452E-01
          2   -1    0    0  501    0  0.00000000000E+00  0.00000000000E+00  0.14625852557E+04  0.14625852557E+04  0.00000000000E+00 0. -1.
         -2   -1    0    0    0  501 -0.00000000000E+00 -0.00000000000E+00 -0.28338993481E+03  0.28338993481E+03  0.00000000000E+00 0.  1.
         23    2    1    2    0    0 -0.51564487706E+02 -0.27730616174E+03 -0.18758074529E+03  0.35039845710E+03  0.89637821302E+02 0.  0.
         11    1    3    3    0    0  0.17474055115E+02 -0.65244114636E+02 -0.17072560078E+02  0.69667850580E+02  0.00000000000E+00 0.  1.
        -11    1    3    3    0    0 -0.69038542821E+02 -0.21206204710E+03 -0.17050818521E+03  0.28073060652E+03  0.00000000000E+00 0. -1.
         22    1    1    2    0    0  0.51564487706E+02  0.27730616174E+03  0.13667760662E+04  0.13955767334E+04  0.00000000000E+00 0. -1.
<mgrwt>
<rscale>  0 0.12876054E+04</rscale>
<asrwt>0</asrwt>
<pdfrwt beam="1">  1        2 0.22501311E+00 0.12876054E+04</pdfrwt>
<pdfrwt beam="2">  1       -2 0.43598453E-01 0.12876054E+04</pdfrwt>
<totfact> 0.65203394E+01</totfact>
</mgrwt>
</event>
<event>
 6    1  0.1014650E-006  0.2782358E+04  0.7818608E-02  0.8308766E-01
         -1   -1    0    0    0  501 -0.00000000000E+00  0.00000000000E+00  0.20792783312E+04  0.20792783312E+04  0.00000000000E+00 0.  1.
          1   -1    0    0  501    0  0.00000000000E+00 -0.00000000000E+00 -0.93079382948E+03  0.93079382948E+03  0.00000000000E+00 0. -1.
         23    2    1    2    0    0  0.38656251427E+03 -0.25886912558E+03  0.19914943212E+04  0.20472069794E+04  0.92536391499E+02 0.  0.
         11    1    3    3    0    0  0.24109601030E+03 -0.10613204933E+03  0.11029345087E+04  0.11339558319E+04  0.00000000000E+00 0. -1.
        -11    1    3    3    0    0  0.14546650397E+03 -0.15273707626E+03  0.88855981246E+03  0.91325114758E+03  0.00000000000E+00 0.  1.
         22    1    1    2    0    0 -0.38656251427E+03  0.25886912558E+03 -0.84300981944E+03  0.96286518127E+03  0.00000000000E+00 0. -1.
<mgrwt>
<rscale>  0 0.27823583E+04</rscale>
<asrwt>0</asrwt>
<pdfrwt beam="1">  1        1 0.14319905E+00 0.27823583E+04</pdfrwt>
<pdfrwt beam="2">  1       -1 0.31988897E+00 0.27823583E+04</pdfrwt>
<totfact> 0.36505711E-01</totfact>
</mgrwt>
</event>
<event>
 6    1  0.1014650E-006  0.1719239E+04  0.7818608E-02  0.8750467E-01
          2   -1    0    0  501    0  0.00000000000E+00  0.00000000000E+00  0.33133721018E+04  0.33133721018E+04  0.00000000000E+00 0. -1.
         -2   -1    0    0    0  501 -0.00000000000E+00 -0.00000000000E+00 -0.22301914812E+03  0.22301914812E+03  0.00000000000E+00 0.  1.
         23    2    1    2    0    0 -0.85356007452E+03 -0.90165126542E+01  0.17034454938E+04  0.19078463778E+04  0.97494371764E+02 0.  0.
         13    1    3    3    0    0 -0.38094209534E+03  0.33616177584E+02  0.82843568995E+03  0.91244321455E+03  0.00000000000E+00 0.  1.
        -13    1    3    3    0    0 -0.47261797918E+03 -0.42632690238E+02  0.87500980383E+03  0.99540316321E+03  0.00000000000E+00 0. -1.
         22    1    1    2    0    0  0.85356007452E+03  0.90165126542E+01  0.13869074599E+04  0.16285448721E+04  0.00000000000E+00 0.  1.
<mgrwt>
<rscale>  0 0.17192387E+04</rscale>
<asrwt>0</asrwt>
<pdfrwt beam="1">  1        2 0.50974952E+00 0.17192387E+04</pdfrwt>
<pdfrwt beam="2">  1       -2 0.34310641E-01 0.17192387E+04</pdfrwt>
<totfact> 0.83124365E+00</totfact>
</mgrwt>
</event>
<event>
 6    1  0.1014650E-006  0.3738231E+04  0.7818608E-02  0.8059542E-01
          2   -1    0    0  501    0  0.00000000000E+00  0.00000000000E+00  0.22822894778E+04  0.22822894778E+04  0.00000000000E+00 0. -1.
         -2   -1    0    0    0  501 -0.00000000000E+00 -0.00000000000E+00 -0.15307404889E+04  0.15307404889E+04  0.00000000000E+00 0.  1.
         23    2    1    2    0    0  0.51668778472E+03  0.16797229126E+04  0.10221872010E+04  0.20349185046E+04  0.87128160981E+02 0.  0.
         11    1    3    3    0    0  0.41398279140E+03  0.12401571690E+04  0.73423455971E+03  0.14994905615E+04  0.00000000000E+00 0. -1.
        -11    1    3    3    0    0  0.10270499332E+03  0.43956574359E+03  0.28795264127E+03  0.53542794306E+03  0.00000000000E+00 0.  1.
         22    1    1    2    0    0 -0.51668778472E+03 -0.16797229126E+04 -0.27063821207E+03  0.17781114622E+04  0.00000000000E+00 0.  1.
<mgrwt>
<rscale>  0 0.37382311E+04</rscale>
<asrwt>0</asrwt>
<pdfrwt beam="1">  1        2 0.35112146E+00 0.37382311E+04</pdfrwt>
<pdfrwt beam="2">  1       -2 0.23549854E+00 0.37382311E+04</pdfrwt>
<totfact> 0.29539754E-01</totfact>
</mgrwt>
</event>
<event>
 6    1  0.1014650E-006  0.3364649E+04  0.7818608E-02  0.8146638E-01
          1   -1    0    0  501    0  0.00000000000E+00  0.00000000000E+00  0.29656241736E+04  0.29656241736E+04  0.00000000000E+00 0. -1.
         -1   -1    0    0    0  501 -0.00000000000E+00 -0.00000000000E+00 -0.95434057860E+03  0.95434057860E+03  0.00000000000E+00 0.  1.
         23    2    1    2    0    0  0.15703513060E+04 -0.47154637880E+03  0.14345004078E+04  0.21818513909E+04  0.11968650849E+03 0.  0.
         11    1    3    3    0    0  0.56438395935E+03 -0.16444276966E+03  0.59129414960E+03  0.83378621325E+03  0.00000000000E+00 0. -1.
        -11    1    3    3    0    0  0.10059673467E+04 -0.30710360914E+03  0.84320625825E+03  0.13480651777E+04  0.00000000000E+00 0.  1.
         22    1    1    2    0    0 -0.15703513060E+04  0.47154637880E+03  0.57678318712E+03  0.17381133613E+04  0.00000000000E+00 0.  1.
<mgrwt>
<rscale>  0 0.33646489E+04</rscale>
<asrwt>0</asrwt>
<pdfrwt beam="1">  1        1 0.45624987E+00 0.33646489E+04</pdfrwt>
<pdfrwt beam="2">  1       -1 0.14682163E+00 0.33646489E+04</pdfrwt>
<totfact> 0.19295387E-01</totfact>
</mgrwt>
</event>
<event>
 6    1  0.1014650E-006  0.2640378E+04  0.7818608E-02  0.8354614E-01
         -2   -1    0    0    0  501 -0.00000000000E+00  0.00000000000E+00  0.91280928401E+03  0.91280928401E+03  0.00000000000E+00 0.  1.
          2   -1    0    0  501    0  0.00000000000E+00 -0.00000000000E+00 -0.19093787672E+04  0.19093787672E+04  0.00000000000E+00 0. -1.
         23    2    1    2    0    0  0.42687352995E+02  0.10608373475E+04  0.33695909093E+03  0.11176363372E+04  0.91495711926E+02 0.  0.
         11    1    3    3    0    0  0.49353704355E+02  0.73552071187E+03  0.27250119214E+03  0.78592837170E+03  0.00000000000E+00 0.  1.
        -11    1    3    3    0    0 -0.66663513608E+01  0.32531663559E+03  0.64457898792E+02  0.33170796546E+03  0.00000000000E+00 0. -1.
         22    1    1    2    0    0 -0.42687352995E+02 -0.10608373475E+04 -0.13335285741E+04  0.17045517140E+04  0.00000000000E+00 0. -1.
<mgrwt>
<rscale>  0 0.26403777E+04</rscale>
<asrwt>0</asrwt>
<pdfrwt beam="1">  1        2 0.29375057E+00 0.26403777E+04</pdfrwt>
<pdfrwt beam="2">  1       -2 0.14043220E+00 0.26403777E+04</pdfrwt>
<totfact> 0.23569843E+00</totfact>
</mgrwt>
</event>
<event>
 6    1  0.1014650E-006  0.1510914E+04  0.7818608E-02  0.8877228E-01
          1   -1    0    0  501    0  0.00000000000E+00  0.00000000000E+00  0.10205462557E+04  0.10205462557E+04  0.00000000000E+00 0. -1.
         -1   -1    0    0    0  501 -0.00000000000E+00 -0.00000000000E+00 -0.55922510882E+03  0.55922510882E+03  0.00000000000E+00 0.  1.
         23    2    1    2    0    0 -0.68999380108E+03  0.18921080308E+03  0.47656858379E+03  0.86414250972E+03  0.87934569544E+02 0.  0.
         13    1    3    3    0    0 -0.52444641679E+03  0.17579675255E+03  0.34140504876E+03  0.65000457660E+03  0.00000000000E+00 0.  1.
        -13    1    3    3    0    0 -0.16554738429E+03  0.13414050529E+02  0.13516353503E+03  0.21413793312E+03  0.00000000000E+00 0. -1.
         22    1    1    2    0    0  0.68999380108E+03 -0.18921080308E+03 -0.15247436879E+02  0.71562885483E+03  0.00000000000E+00 0.  1.
<mgrwt>
<rscale>  0 0.15109138E+04</rscale>
<asrwt>0</asrwt>
<pdfrwt beam="1">  1        1 0.15700712E+00 0.15109138E+04</pdfrwt>
<pdfrwt beam="2">  1       -1 0.86034632E-01 0.15109138E+04</pdfrwt>
<totfact> 0.18799604E+01</totfact>
</mgrwt>
</event>
<event>
 6    1  0.1014650E-006  0.2067699E+04  0.7818608E-02  0.8575607E-01
         -2   -1    0    0    0  501 -0.00000000000E+00  0.00000000000E+00  0.12977477912E+04  0.12977477912E+04  0.00000000000E+00 0.  1.
          2   -1    0    0  501    0  0.00000000000E+00 -0.00000000000E+00 -0.82361502106E+03  0.82361502106E+03  0.00000000000E+00 0. -1.
         23    2    1    2    0    0  0.66112469899E+03 -0.52177325163E+03 -0.37394841232E+03  0.92613275669E+03  0.92473099903E+02 0.  0.
         11    1    3    3    0    0  0.35777545414E+03 -0.23329329860E+03 -0.16089570598E+03  0.45641698803E+03  0.00000000000E+00 0. -1.
        -11    1    3    3    0    0  0.30334924485E+03 -0.28847995303E+03 -0.21305270634E+03  0.46971576866E+03  0.00000000000E+00 0.  1.
         22    1    1    2    0    0 -0.66112469899E+03  0.52177325163E+03  0.84808118246E+03  0.11952300556E+04  0.00000000000E+00 0.  1.
<mgrwt>
<rscale>  0 0.20676988E+04</rscale>
<asrwt>0</asrwt>
<pdfrwt beam="1">  1        2 0.12671000E+00 0.20676988E+04</pdfrwt>
<pdfrwt beam="2">  1       -2 0.19965351E+00 0.20676988E+04</pdfrwt>
<totfact> 0.40905436E+00</totfact>
</mgrwt>
</event>
<event>
 6    1  0.1014650E-006  0.3870686E+04  0.7818608E-02  0.8031154E-01
          2   -1    0    0  501    0  0.00000000000E+00  0.00000000000E+00  0.32760140795E+04  0.32760140795E+04  0.00000000000E+00 0. -1.
         -2   -1    0    0    0  501 -0.00000000000E+00 -0.00000000000E+00 -0.11433260256E+04  0.11433260256E+04  0.00000000000E+00 0.  1.
         23    2    1    2    0    0  0.42940636849E+02 -0.11291674517E+04  0.28593651353E+04  0.30758660216E+04  0.90109788224E+02 0.  0.
         11    1    3    3    0    0 -0.16852285819E+02 -0.33603652635E+03  0.92943555707E+03  0.98846092554E+03  0.00000000000E+00 0. -1.
        -11    1    3    3    0    0  0.59792922667E+02 -0.79313092539E+03  0.19299295782E+04  0.20874050961E+04  0.00000000000E+00 0.  1.
         22    1    1    2    0    0 -0.42940636849E+02  0.11291674517E+04 -0.72667708142E+03  0.13434740835E+04  0.00000000000E+00 0.  1.
<mgrwt>
<rscale>  0 0.38706858E+04</rscale>
<asrwt>0</asrwt>
<pdfrwt beam="1">  1        2 0.50400216E+00 0.38706858E+04</pdfrwt>
<pdfrwt beam="2">  1       -2 0.17589631E+00 0.38706858E+04</pdfrwt>
<totfact> 0.17818146E-01</totfact>
</mgrwt>
</event>
<event>
 6    1  0.1014650E-006  0.1697579E+04  0.7818608E-02  0.8762746E-01
         -1   -1    0    0    0  501 -0.00000000000E+00  0.00000000000E+00  0.81638273968E+03  0.81638273968E+03  0.00000000000E+00 0.  1.
          1   -1    0    0  501    0  0.00000000000E+00 -0.00000000000E+00 -0.88248278435E+03  0.88248278435E+03  0.00000000000E+00 0. -1.
         23    2    1    2    0    0  0.70836980276E+03  0.13039984335E+02 -0.49587258763E+03  0.87021465826E+03  0.97088153904E+02 0.  0.
         11    1    3    3    0    0  0.40843771719E+03 -0.48424972189E+01 -0.34148255142E+03  0.53240506339E+03  0.00000000000E+00 0.  1.
        -11    1    3    3    0    0  0.29993208558E+03  0.17882481554E+02 -0.15439003621E+03  0.33780959487E+03  0.00000000000E+00 0. -1.
         22    1    1    2    0    0 -0.70836980276E+03 -0.13039984335E+02  0.42977254297E+03  0.82865086577E+03  0.00000000000E+00 0.  1.
<mgrwt>
<rscale>  0 0.16975791E+04</rscale>
<asrwt>0</asrwt>
<pdfrwt beam="1">  1        1 0.13576658E+00 0.16975791E+04</pdfrwt>
<pdfrwt beam="2">  1       -1 0.12559735E+00 0.16975791E+04</pdfrwt>
<totfact> 0.99041829E+00</totfact>
</mgrwt>
</event>
<event>
 6    1  0.1014650E-006  0.1518538E+04  0.7818608E-02  0.8872218E-01
         -1   -1    0    0    0  501 -0.00000000000E+00  0.00000000000E+00  0.29853602349E+03  0.29853602349E+03  0.00000000000E+00 0.  1.
          1   -1    0    0  501    0  0.00000000000E+00 -0.00000000000E+00 -0.19310539248E+04  0.19310539248E+04  0.00000000000E+00 0. -1.
         23    2    1    2    0    0 -0.25319934827E+03  0.44278154864E+03  0.35730249441E+00  0.51890387511E+03  0.95371348735E+02 0.  0.
         11    1    3    3    0    0 -0.18614804588E+03  0.38520284794E+03 -0.19698226093E+02  0.42827601983E+03  0.00000000000E+00 0. -1.
        -11    1    3    3    0    0 -0.67051302390E+02  0.57578700694E+02  0.20055528588E+02  0.90627855280E+02  0.00000000000E+00 0.  1.
         22    1    1    2    0    0  0.25319934827E+03 -0.44278154864E+03 -0.16328752038E+04  0.17106860732E+04  0.00000000000E+00 0. -1.
<mgrwt>
<rscale>  0 0.15185377E+04</rscale>
<asrwt>0</asrwt>
<pdfrwt beam="1">  1        1 0.29708522E+00 0.15185377E+04</pdfrwt>
<pdfrwt beam="2">  1       -1 0.45928619E-01 0.15185377E+04</pdfrwt>
<totfact> 0.15117266E+01</totfact>
</mgrwt>
</event>
<event>
 6    1  0.1014650E-006  0.1743462E+04  0.7818608E-02  0.8736957E-01
         -2   -1    0    0    0  501 -0.00000000000E+00  0.00000000000E+00  0.55068416673E+03  0.55068416673E+03  0.00000000000E+00 0.  1.
          2   -1    0    0  501    0  0.00000000000E+00 -0.00000000000E+00 -0.13799467283E+04  0.13799467283E+04  0.00000000000E+00 0. -1.
         23    2    1    2    0    0  0.45282622969E+03 -0.41802025300E+03  0.26314056076E+03  0.67638326880E+03  0.91971981465E+02 0.  0.
         11    1    3    3    0    0  0.15418641670E+03 -0.19803066546E+03  0.85692715589E+02  0.26520338810E+03  0.00000000000E+00 0.  1.
        -11    1    3    3    0    0  0.29863981299E+03 -0.21998958755E+03  0.17744784518E+03  0.41117988069E+03  0.00000000000E+00 0. -1.
         22    1    1    2    0    0 -0.45282622969E+03  0.41802025300E+03 -0.10924031224E+04  0.12542476263E+04  0.00000000000E+00 0. -1.
<mgrwt>
<rscale>  0 0.17434619E+04</rscale>
<asrwt>0</asrwt>
<pdfrwt beam="1">  1        2 0.21229950E+00 0.17434619E+04</pdfrwt>
<pdfrwt beam="2">  1       -2 0.84720641E-01 0.17434619E+04</pdfrwt>
<totfact> 0.17107578E+01</totfact>
</mgrwt>
</event>
<event>
 6    1  0.1014650E-006  0.5811424E+03  0.7818608E-02  0.9945321E-01
          2   -1    0    0  501    0  0.00000000000E+00  0.00000000000E+00  0.34627185130E+03  0.34627185130E+03  0.00000000000E+00 0. -1.
         -2   -1    0    0    0  501 -0.00000000000E+00 -0.00000000000E+00 -0.24383046789E+03  0.24383046789E+03  0.00000000000E+00 0.  1.
         23    2    1    2    0    0 -0.27606743499E+03  0.38847620382E+02 -0.86059349512E+01  0.29001254398E+03  0.79440841387E+02 0.  0.
         11    1    3    3    0    0 -0.12567451896E+03 -0.10972371438E+02 -0.31268241456E+02  0.12996992181E+03  0.00000000000E+00 0. -1.
        -11    1    3    3    0    0 -0.15039291602E+03  0.49819991821E+02  0.22662306505E+02  0.16004262217E+03  0.00000000000E+00 0.  1.
         22    1    1    2    0    0  0.27606743499E+03 -0.38847620382E+02  0.11104731837E+03  0.30008977521E+03  0.00000000000E+00 0.  1.
<mgrwt>
<rscale>  0 0.58114242E+03</rscale>
<asrwt>0</asrwt>
<pdfrwt beam="1">  1        2 0.53272592E-01 0.58114242E+03</pdfrwt>
<pdfrwt beam="2">  1       -2 0.37512380E-01 0.58114242E+03</pdfrwt>
<totfact> 0.63103049E+02</totfact>
</mgrwt>
</event>
<event>
 6    1  0.1014650E-006  0.2936469E+04  0.7818608E-02  0.8262109E-01
          2   -1    0    0  501    0  0.00000000000E+00  0.00000000000E+00  0.34025287148E+04  0.34025287148E+04  0.00000000000E+00 0. -1.
         -2   -1    0    0    0  501 -0.00000000000E+00 -0.00000000000E+00 -0.63356179021E+03  0.63356179021E+03  0.00000000000E+00 0.  1.
         23    2    1    2    0    0 -0.14392660389E+04  0.29266193872E+02  0.99956546826E+03  0.17550546100E+04  0.93500362875E+02 0.  0.
         11    1    3    3    0    0 -0.40461471008E+03  0.21608909997E+02  0.23359529770E+03  0.46770372215E+03  0.00000000000E+00 0.  1.
        -11    1    3    3    0    0 -0.10346513288E+04  0.76572838742E+01  0.76597017055E+03  0.12873508878E+04  0.00000000000E+00 0. -1.
         22    1    1    2    0    0  0.14392660389E+04 -0.29266193872E+02  0.17694014563E+04  0.22810358950E+04  0.00000000000E+00 0. -1.
<mgrwt>
<rscale>  0 0.29364688E+04</rscale>
<asrwt>0</asrwt>
<pdfrwt beam="1">  1        2 0.52346595E+00 0.29364688E+04</pdfrwt>
<pdfrwt beam="2">  1       -2 0.97471047E-01 0.29364688E+04</pdfrwt>
<totfact> 0.71659014E-01</totfact>
</mgrwt>
</event>
<event>
 6    1  0.1014650E-006  0.1627652E+04  0.7818608E-02  0.8803738E-01
         -1   -1    0    0    0  501 -0.00000000000E+00  0.00000000000E+00  0.15747786827E+04  0.15747786827E+04  0.00000000000E+00 0.  1.
          1   -1    0    0  501    0  0.00000000000E+00 -0.00000000000E+00 -0.42057491724E+03  0.42057491724E+03  0.00000000000E+00 0. -1.
         23    2    1    2    0    0 -0.49834019194E+03 -0.10858880794E+03 -0.19379667530E+03  0.55409038164E+03  0.96563572636E+02 0.  0.
         11    1    3    3    0    0 -0.43085072422E+03 -0.67216726336E+02 -0.18754572512E+03  0.47468287716E+03  0.00000000000E+00 0. -1.
        -11    1    3    3    0    0 -0.67489467725E+02 -0.41372081607E+02 -0.62509501727E+01  0.79407504484E+02  0.00000000000E+00 0.  1.
         22    1    1    2    0    0  0.49834019194E+03  0.10858880794E+03  0.13480004407E+04  0.14412632183E+04  0.00000000000E+00 0.  1.
<mgrwt>
<rscale>  0 0.16276516E+04</rscale>
<asrwt>0</asrwt>
<pdfrwt beam="1">  1        1 0.64703835E-01 0.16276516E+04</pdfrwt>
<pdfrwt beam="2">  1       -1 0.24227364E+00 0.16276516E+04</pdfrwt>
<totfact> 0.42078258E+00</totfact>
</mgrwt>
</event>
<event>
 6    1  0.1014650E-006  0.2775068E+04  0.7818608E-02  0.8311051E-01
          1   -1    0    0  501    0  0.00000000000E+00  0.00000000000E+00  0.19260881364E+04  0.19260881364E+04  0.00000000000E+00 0. -1.
         -1   -1    0    0    0  501 -0.00000000000E+00 -0.00000000000E+00 -0.99956506874E+03  0.99956506874E+03  0.00000000000E+00 0.  1.
         23    2    1    2    0    0 -0.12169660508E+04 -0.56548104600E+03  0.82936134669E+03  0.15802106823E+04  0.91925921345E+02 0.  0.
         13    1    3    3    0    0 -0.35229572930E+03 -0.20650984514E+03  0.23239112229E+03  0.46985554242E+03  0.00000000000E+00 0.  1.
        -13    1    3    3    0    0 -0.86467032149E+03 -0.35897120086E+03  0.59697022440E+03  0.11103551399E+04  0.00000000000E+00 0. -1.
         22    1    1    2    0    0  0.12169660508E+04  0.56548104600E+03  0.97161720946E+02  0.13454425228E+04  0.00000000000E+00 0.  1.
<mgrwt>
<rscale>  0 0.27750679E+04</rscale>
<asrwt>0</asrwt>
<pdfrwt beam="1">  1        1 0.29632125E+00 0.27750679E+04</pdfrwt>
<pdfrwt beam="2">  1       -1 0.15377924E+00 0.27750679E+04</pdfrwt>
<totfact> 0.94628370E-01</totfact>
</mgrwt>
</event>
<event>
 6    1  0.1014650E-006  0.2939912E+04  0.7818608E-02  0.8261100E-01
         -2   -1    0    0    0  501 -0.00000000000E+00  0.00000000000E+00  0.79370695047E+03  0.79370695047E+03  0.00000000000E+00 0.  1.
          2   -1    0    0  501    0  0.00000000000E+00 -0.00000000000E+00 -0.27223790017E+04  0.27223790017E+04  0.00000000000E+00 0. -1.
         23    2    1    2    0    0 -0.78787812044E+03 -0.42994453407E+02 -0.24465874979E+04  0.25722444053E+04  0.89724244981E+02 0.  0.
         13    1    3    3    0    0 -0.69666365320E+02  0.21714651742E+02 -0.23260016558E+03  0.24377810727E+03  0.00000000000E+00 0.  1.
        -13    1    3    3    0    0 -0.71821175512E+03 -0.64709105149E+02 -0.22139873323E+04  0.23284662980E+04  0.00000000000E+00 0. -1.
         22    1    1    2    0    0  0.78787812044E+03  0.42994453407E+02  0.51791544665E+03  0.94384154686E+03  0.00000000000E+00 0.  1.
<mgrwt>
<rscale>  0 0.29399123E+04</rscale>
<asrwt>0</asrwt>
<pdfrwt beam="1">  1        2 0.41882753E+00 0.29399123E+04</pdfrwt>
<pdfrwt beam="2">  1       -2 0.12210876E+00 0.29399123E+04</pdfrwt>
<totfact> 0.11258377E+00</totfact>
</mgrwt>
</event>
<event>
 6    1  0.1014650E-006  0.4058722E+04  0.7818608E-02  0.7992804E-01
         -1   -1    0    0    0  501 -0.00000000000E+00  0.00000000000E+00  0.11914034492E+04  0.11914034492E+04  0.00000000000E+00 0.  1.
          1   -1    0    0  501    0  0.00000000000E+00 -0.00000000000E+00 -0.34566845257E+04  0.34566845257E+04  0.00000000000E+00 0. -1.
         23    2    1    2    0    0 -0.97613959427E+03 -0.31383155987E+03 -0.31375753358E+04  0.33018948126E+04  0.82411228997E+02 0.  0.
         13    1    3    3    0    0 -0.59877286140E+03 -0.16187562230E+03 -0.18045167954E+04  0.19081439992E+04  0.00000000000E+00 0. -1.
        -13    1    3    3    0    0 -0.37736673287E+03 -0.15195593757E+03 -0.13330585404E+04  0.13937508135E+04  0.00000000000E+00 0.  1.
         22    1    1    2    0    0  0.97613959427E+03  0.31383155987E+03  0.87229425927E+03  0.13461931623E+04  0.00000000000E+00 0.  1.
<mgrwt>
<rscale>  0 0.40587219E+04</rscale>
<asrwt>0</asrwt>
<pdfrwt beam="1">  1        1 0.53179761E+00 0.40587219E+04</pdfrwt>
<pdfrwt beam="2">  1       -1 0.18329284E+00 0.40587219E+04</pdfrwt>
<totfact> 0.41435106E-02</totfact>
</mgrwt>
</event>
<event>
 6    1  0.1014650E-006  0.2311303E+04  0.7818608E-02  0.8473478E-01
         -1   -1    0    0    0  501 -0.00000000000E+00  0.00000000000E+00  0.16801546263E+04  0.16801546263E+04  0.00000000000E+00 0.  1.
          1   -1    0    0  501    0  0.00000000000E+00 -0.00000000000E+00 -0.79488561498E+03  0.79488561498E+03  0.00000000000E+00 0. -1.
         23    2    1    2    0    0 -0.15557443804E+03  0.67956956895E+03  0.14280813284E+04  0.15914886488E+04  0.86032749550E+02 0.  0.
         11    1    3    3    0    0 -0.16574987860E+03  0.63087060463E+03  0.13400848335E+04  0.14904019938E+04  0.00000000000E+00 0.  1.
        -11    1    3    3    0    0  0.10175440560E+02  0.48698964320E+02  0.87996494931E+02  0.10108665509E+03  0.00000000000E+00 0. -1.
         22    1    1    2    0    0  0.15557443804E+03 -0.67956956895E+03 -0.54281231713E+03  0.88355159241E+03  0.00000000000E+00 0. -1.
<mgrwt>
<rscale>  0 0.23113033E+04</rscale>
<asrwt>0</asrwt>
<pdfrwt beam="1">  1        1 0.12229009E+00 0.23113033E+04</pdfrwt>
<pdfrwt beam="2">  1       -1 0.25848533E+00 0.23113033E+04</pdfrwt>
<totfact> 0.12380829E+00</totfact>
</mgrwt>
</event>
<event>
 6    1  0.1014650E-006  0.4349862E+04  0.7818608E-02  0.7937462E-01
         -2   -1    0    0    0  501 -0.00000000000E+00  0.00000000000E+00  0.15774918083E+04  0.15774918083E+04  0.00000000000E+00 0.  1.
          2   -1    0    0  501    0  0.00000000000E+00 -0.00000000000E+00 -0.29986362499E+04  0.29986362499E+04  0.00000000000E+00 0. -1.
         23    2    1    2    0    0 -0.18955940532E+03 -0.10661390651E+04  0.12722398657E+04  0.16732149865E+04  0.92026305816E+02 0.  0.
         13    1    3    3    0    0 -0.12697774205E+03 -0.88842870777E+03  0.10765850400E+04  0.14015934732E+04  0.00000000000E+00 0. -1.
        -13    1    3    3    0    0 -0.62581663271E+02 -0.17771035733E+03  0.19565482576E+03  0.27162151337E+03  0.00000000000E+00 0.  1.
         22    1    1    2    0    0  0.18955940532E+03  0.10661390651E+04 -0.26933843073E+04  0.29029130716E+04  0.00000000000E+00 0. -1.
<mgrwt>
<rscale>  0 0.43498617E+04</rscale>
<asrwt>0</asrwt>
<pdfrwt beam="1">  1        2 0.46132864E+00 0.43498617E+04</pdfrwt>
<pdfrwt beam="2">  1       -2 0.24269105E+00 0.43498617E+04</pdfrwt>
<totfact> 0.95331934E-02</totfact>
</mgrwt>
</event>
<event>
 6    1  0.1014650E-006  0.1406789E+04  0.7818608E-02  0.8948919E-01
          2   -1    0    0  501    0  0.00000000000E+00  0.00000000000E+00  0.65423683114E+03  0.65423683114E+03  0.00000000000E+00 0. -1.
         -2   -1    0    0    0  501 -0.00000000000E+00 -0.00000000000E+00 -0.75624566988E+03  0.75624566988E+03  0.00000000000E+00 0.  1.
         23    2    1    2    0    0  0.56225022467E+03 -0.19110488927E+03  0.32176721024E+03  0.68093981307E+03  0.86593865818E+02 0.  0.
         11    1    3    3    0    0  0.31140531606E+03 -0.68412764890E+02  0.19949231480E+03  0.37609940299E+03  0.00000000000E+00 0.  1.
        -11    1    3    3    0    0  0.25084490861E+03 -0.12269212438E+03  0.12227489544E+03  0.30484041008E+03  0.00000000000E+00 0. -1.
         22    1    1    2    0    0 -0.56225022467E+03  0.19110488927E+03 -0.42377604899E+03  0.72954268795E+03  0.00000000000E+00 0.  1.
<mgrwt>
<rscale>  0 0.14067889E+04</rscale>
<asrwt>0</asrwt>
<pdfrwt beam="1">  1        2 0.10065182E+00 0.14067889E+04</pdfrwt>
<pdfrwt beam="2">  1       -2 0.11634549E+00 0.14067889E+04</pdfrwt>
<totfact> 0.24864567E+01</totfact>
</mgrwt>
</event>
<event>
 6    1  0.1014650E-006  0.2801177E+04  0.7818608E-02  0.8302903E-01
         -2   -1    0    0    0  501 -0.00000000000E+00  0.00000000000E+00  0.94946113601E+03  0.94946113601E+03  0.00000000000E+00 0.  1.
          2   -1    0    0  501    0  0.00000000000E+00 -0.00000000000E+00 -0.20660653797E+04  0.20660653797E+04  0.00000000000E+00 0. -1.
         23    2    1    2    0    0  0.81203701179E+03  0.35429881669E+03 -0.17245737918E+04  0.19410225691E+04  0.92098264883E+02 0.  0.
         13    1    3    3    0    0  0.23740388587E+03  0.14926836811E+03 -0.56188604581E+03  0.62797896400E+03  0.00000000000E+00 0. -1.
        -13    1    3    3    0    0  0.57463312593E+03  0.20503044858E+03 -0.11626877460E+04  0.13130436051E+04  0.00000000000E+00 0.  1.
         22    1    1    2    0    0 -0.81203701179E+03 -0.35429881669E+03  0.60796954805E+03  0.10745039467E+04  0.00000000000E+00 0.  1.
<mgrwt>
<rscale>  0 0.28011775E+04</rscale>
<asrwt>0</asrwt>
<pdfrwt beam="1">  1        2 0.31785621E+00 0.28011775E+04</pdfrwt>
<pdfrwt beam="2">  1       -2 0.14607094E+00 0.28011775E+04</pdfrwt>
<totfact> 0.17164931E+00</totfact>
</mgrwt>
</event>
<event>
 6    1  0.1014650E-006  0.1677890E+04  0.7818608E-02  0.8774076E-01
          2   -1    0    0  501    0  0.00000000000E+00  0.00000000000E+00  0.24008306328E+04  0.24008306328E+04  0.00000000000E+00 0. -1.
         -2   -1    0    0    0  501 -0.00000000000E+00 -0.00000000000E+00 -0.29316032881E+03  0.29316032881E+03  0.00000000000E+00 0.  1.
         23    2    1    2    0    0  0.66372910183E+03 -0.50836826181E+03  0.11002525318E+04  0.13848442250E+04  0.90902605002E+02 0.  0.
         13    1    3    3    0    0  0.32606612383E+03 -0.25928638619E+03  0.62197186465E+03  0.74859705288E+03  0.00000000000E+00 0. -1.
        -13    1    3    3    0    0  0.33766297799E+03 -0.24908187562E+03  0.47828066713E+03  0.63624717211E+03  0.00000000000E+00 0.  1.
         22    1    1    2    0    0 -0.66372910183E+03  0.50836826181E+03  0.10074177722E+04  0.13091467366E+04  0.00000000000E+00 0. -1.
<mgrwt>
<rscale>  0 0.16778895E+04</rscale>
<asrwt>0</asrwt>
<pdfrwt beam="1">  1        2 0.36935855E+00 0.16778895E+04</pdfrwt>
<pdfrwt beam="2">  1       -2 0.45101591E-01 0.16778895E+04</pdfrwt>
<totfact> 0.17669853E+01</totfact>
</mgrwt>
</event>
<event>
 6    1  0.1014650E-006  0.4093932E+04  0.7818608E-02  0.7985861E-01
          2   -1    0    0  501    0  0.00000000000E+00  0.00000000000E+00  0.30643187668E+04  0.30643187668E+04  0.00000000000E+00 0. -1.
         -2   -1    0    0    0  501 -0.00000000000E+00 -0.00000000000E+00 -0.13673741128E+04  0.13673741128E+04  0.00000000000E+00 0.  1.
         23    2    1    2    0    0  0.16402095212E+04 -0.90493079129E+03  0.17393915603E+04  0.25579296208E+04  0.91290385294E+02 0.  0.
         11    1    3    3    0    0  0.11943647650E+03 -0.40422363319E+02  0.11065107938E+03  0.16775786343E+03  0.00000000000E+00 0. -1.
        -11    1    3    3    0    0  0.15207730447E+04 -0.86450842797E+03  0.16287404809E+04  0.23901717574E+04  0.00000000000E+00 0.  1.
         22    1    1    2    0    0 -0.16402095212E+04  0.90493079129E+03 -0.42446906293E+02  0.18737632588E+04  0.00000000000E+00 0. -1.
<mgrwt>
<rscale>  0 0.40939322E+04</rscale>
<asrwt>0</asrwt>
<pdfrwt beam="1">  1        2 0.47143365E+00 0.40939322E+04</pdfrwt>
<pdfrwt beam="2">  1       -2 0.21036525E+00 0.40939322E+04</pdfrwt>
<totfact> 0.14130099E-01</totfact>
</mgrwt>
</event>
<event>
 6    1  0.1014650E-006  0.1553741E+04  0.7818608E-02  0.8849482E-01
         -2   -1    0    0    0  501 -0.00000000000E+00  0.00000000000E+00  0.60267612353E+03  0.60267612353E+03  0.00000000000E+00 0.  1.
          2   -1    0    0  501    0  0.00000000000E+00 -0.00000000000E+00 -0.10014128963E+04  0.10014128963E+04  0.00000000000E+00 0. -1.
         23    2    1    2    0    0  0.23841151726E+03  0.19125463862E+03 -0.93434166645E+03  0.98741164030E+03  0.92568944031E+02 0.  0.
         13    1    3    3    0    0  0.91894538232E+02  0.13302546670E+03 -0.46894357197E+03  0.49603271529E+03  0.00000000000E+00 0. -1.
        -13    1    3    3    0    0  0.14651697903E+03  0.58229171915E+02 -0.46539809447E+03  0.49137892501E+03  0.00000000000E+00 0.  1.
         22    1    1    2    0    0 -0.23841151726E+03 -0.19125463862E+03  0.53560489364E+03  0.61667737955E+03  0.00000000000E+00 0.  1.
<mgrwt>
<rscale>  0 0.15537408E+04</rscale>
<asrwt>0</asrwt>
<pdfrwt beam="1">  1        2 0.15406352E+00 0.15537408E+04</pdfrwt>
<pdfrwt beam="2">  1       -2 0.92719403E-01 0.15537408E+04</pdfrwt>
<totfact> 0.23863614E+01</totfact>
</mgrwt>
</event>
<event>
 6    1  0.1014650E-006  0.3423266E+04  0.7818608E-02  0.8132220E-01
         -1   -1    0    0    0  501 -0.00000000000E+00  0.00000000000E+00  0.31929151518E+04  0.31929151518E+04  0.00000000000E+00 0.  1.
          1   -1    0    0  501    0  0.00000000000E+00 -0.00000000000E+00 -0.91755901652E+03  0.91755901652E+03  0.00000000000E+00 0. -1.
         23    2    1    2    0    0 -0.82660751243E+03 -0.13249287475E+04  0.19762604914E+04  0.25204507818E+04  0.91380786266E+02 0.  0.
         13    1    3    3    0    0 -0.72111137287E+03 -0.11214717645E+04  0.17278623590E+04  0.21824776889E+04  0.00000000000E+00 0. -1.
        -13    1    3    3    0    0 -0.10549613956E+03 -0.20345698292E+03  0.24839813241E+03  0.33797309294E+03  0.00000000000E+00 0.  1.
         22    1    1    2    0    0  0.82660751243E+03  0.13249287475E+04  0.29909564383E+03  0.15900233865E+04  0.00000000000E+00 0.  1.
<mgrwt>
<rscale>  0 0.34232663E+04</rscale>
<asrwt>0</asrwt>
<pdfrwt beam="1">  1        1 0.14116293E+00 0.34232663E+04</pdfrwt>
<pdfrwt beam="2">  1       -1 0.49121771E+00 0.34232663E+04</pdfrwt>
<totfact> 0.24553016E-02</totfact>
</mgrwt>
</event>
<event>
 6    1  0.1014650E-006  0.1257700E+04  0.7818608E-02  0.9063798E-01
          1   -1    0    0  501    0  0.00000000000E+00  0.00000000000E+00  0.91014604444E+03  0.91014604444E+03  0.00000000000E+00 0. -1.
         -1   -1    0    0    0  501 -0.00000000000E+00 -0.00000000000E+00 -0.43449359297E+03  0.43449359297E+03  0.00000000000E+00 0.  1.
         23    2    1    2    0    0  0.48060141888E+03  0.45123954090E+02 -0.18642949052E+03  0.52527012798E+03  0.90215615900E+02 0.  0.
         11    1    3    3    0    0  0.35788594696E+03  0.40468316179E+02 -0.95933526934E+02  0.37272413021E+03  0.00000000000E+00 0.  1.
        -11    1    3    3    0    0  0.12271547192E+03  0.46556379111E+01 -0.90495963583E+02  0.15254599777E+03  0.00000000000E+00 0. -1.
         22    1    1    2    0    0 -0.48060141888E+03 -0.45123954090E+02  0.66208194199E+03  0.81936950943E+03  0.00000000000E+00 0. -1.
<mgrwt>
<rscale>  0 0.12577005E+04</rscale>
<asrwt>0</asrwt>
<pdfrwt beam="1">  1        1 0.14002247E+00 0.12577005E+04</pdfrwt>
<pdfrwt beam="2">  1       -1 0.66845168E-01 0.12577005E+04</pdfrwt>
<totfact> 0.39900125E+01</totfact>
</mgrwt>
</event>
<event>
 6    1  0.1014650E-006  0.6273366E+03  0.7818608E-02  0.9850260E-01
          1   -1    0    0  501    0  0.00000000000E+00  0.00000000000E+00  0.18771994026E+03  0.18771994026E+03  0.00000000000E+00 0. -1.
         -1   -1    0    0    0  501 -0.00000000000E+00 -0.00000000000E+00 -0.52412007188E+03  0.52412007188E+03  0.00000000000E+00 0.  1.
         23    2    1    2    0    0 -0.10408076078E+03  0.14399835249E+03  0.11256639568E+03  0.22899503399E+03  0.90549444352E+02 0.  0.
         13    1    3    3    0    0 -0.76067771703E+02  0.13278254836E+03  0.52513665370E+02  0.16178750289E+03  0.00000000000E+00 0. -1.
        -13    1    3    3    0    0 -0.28012989076E+02  0.11215804130E+02  0.60052730309E+02  0.67207531102E+02  0.00000000000E+00 0.  1.
         22    1    1    2    0    0  0.10408076078E+03 -0.14399835249E+03 -0.44896652730E+03  0.48284497815E+03  0.00000000000E+00 0.  1.
<mgrwt>
<rscale>  0 0.62733656E+03</rscale>
<asrwt>0</asrwt>
<pdfrwt beam="1">  1        1 0.28879991E-01 0.62733656E+03</pdfrwt>
<pdfrwt beam="2">  1       -1 0.80633857E-01 0.62733656E+03</pdfrwt>
<totfact> 0.25176846E+02</totfact>
</mgrwt>
</event>
<event>
 6    1  0.1014650E-006  0.3704026E+04  0.7818608E-02  0.8067070E-01
          1   -1    0    0  501    0  0.00000000000E+00  0.00000000000E+00  0.16392221958E+04  0.16392221958E+04  0.00000000000E+00 0. -1.
         -1   -1    0    0    0  501 -0.00000000000E+00 -0.00000000000E+00 -0.20924268773E+04  0.20924268773E+04  0.00000000000E+00 0.  1.
         23    2    1    2    0    0  0.17022832574E+04  0.36182122627E+03 -0.86136072103E+03  0.19441160689E+04  0.94668418966E+02 0.  0.
         13    1    3    3    0    0  0.62175680541E+03  0.85794554921E+02 -0.30698374514E+03  0.69869968549E+03  0.00000000000E+00 0. -1.
        -13    1    3    3    0    0  0.10805264520E+04  0.27602667135E+03 -0.55437697589E+03  0.12454163834E+04  0.00000000000E+00 0.  1.
         22    1    1    2    0    0 -0.17022832574E+04 -0.36182122627E+03  0.40815603951E+03  0.17875330041E+04  0.00000000000E+00 0. -1.
<mgrwt>
<rscale>  0 0.37040262E+04</rscale>
<asrwt>0</asrwt>
<pdfrwt beam="1">  1        1 0.25218803E+00 0.37040262E+04</pdfrwt>
<pdfrwt beam="2">  1       -1 0.32191183E+00 0.37040262E+04</pdfrwt>
<totfact> 0.10001703E-01</totfact>
</mgrwt>
</event>
<event>
 6    1  0.1014650E-006  0.2330860E+04  0.7818608E-02  0.8465852E-01
         -2   -1    0    0    0  501 -0.00000000000E+00  0.00000000000E+00  0.71932084524E+03  0.71932084524E+03  0.00000000000E+00 0.  1.
          2   -1    0    0  501    0  0.00000000000E+00 -0.00000000000E+00 -0.18882082775E+04  0.18882082775E+04  0.00000000000E+00 0. -1.
         23    2    1    2    0    0  0.74587778535E+03  0.18749045992E+03 -0.15622275251E+04  0.17436988316E+04  0.91893588621E+02 0.  0.
         11    1    3    3    0    0  0.43079476269E+03  0.12903890407E+03 -0.10020841927E+04  0.10983660117E+04  0.00000000000E+00 0. -1.
        -11    1    3    3    0    0  0.31508302267E+03  0.58451555848E+02 -0.56014333243E+03  0.64533281988E+03  0.00000000000E+00 0.  1.
         22    1    1    2    0    0 -0.74587778535E+03 -0.18749045992E+03  0.39334009289E+03  0.86383029116E+03  0.00000000000E+00 0.  1.
<mgrwt>
<rscale>  0 0.23308604E+04</rscale>
<asrwt>0</asrwt>
<pdfrwt beam="1">  1        2 0.29049358E+00 0.23308604E+04</pdfrwt>
<pdfrwt beam="2">  1       -2 0.11066475E+00 0.23308604E+04</pdfrwt>
<totfact> 0.45138876E+00</totfact>
</mgrwt>
</event>
<event>
 6    1  0.1014650E-006  0.1418227E+04  0.7818608E-02  0.8940730E-01
         -1   -1    0    0    0  501 -0.00000000000E+00  0.00000000000E+00  0.19206585840E+04  0.19206585840E+04  0.00000000000E+00 0.  1.
          1   -1    0    0  501    0  0.00000000000E+00 -0.00000000000E+00 -0.26180686646E+03  0.26180686646E+03  0.00000000000E+00 0. -1.
         23    2    1    2    0    0 -0.21330265247E+03 -0.53076792887E+03  0.19646782580E+03  0.61218545546E+03  0.94650987469E+02 0.  0.
         11    1    3    3    0    0 -0.79506309402E+02 -0.16947475959E+03  0.11070983985E+03  0.21748474892E+03  0.00000000000E+00 0. -1.
        -11    1    3    3    0    0 -0.13379634306E+03 -0.36129316928E+03  0.85757985952E+02  0.39470070654E+03  0.00000000000E+00 0.  1.
         22    1    1    2    0    0  0.21330265247E+03  0.53076792887E+03  0.14623838918E+04  0.15702799950E+04  0.00000000000E+00 0.  1.
<mgrwt>
<rscale>  0 0.14182265E+04</rscale>
<asrwt>0</asrwt>
<pdfrwt beam="1">  1        1 0.40277981E-01 0.14182265E+04</pdfrwt>
<pdfrwt beam="2">  1       -1 0.29548593E+00 0.14182265E+04</pdfrwt>
<totfact> 0.36130379E+00</totfact>
</mgrwt>
</event>
<event>
 6    1  0.1035995E-006  0.4701508E+04  0.7818608E-02  0.7876278E-01
         -1   -1    0    0    0  501 -0.00000000000E+00  0.00000000000E+00  0.19627691426E+04  0.19627691426E+04  0.00000000000E+00 0.  1.
          1   -1    0    0  501    0  0.00000000000E+00 -0.00000000000E+00 -0.28154327960E+04  0.28154327960E+04  0.00000000000E+00 0. -1.
         23    2    1    2    0    0 -0.36773865333E+03 -0.26357742616E+03 -0.27698913810E+04  0.28083118564E+04  0.98043071433E+02 0.  0.
         11    1    3    3    0    0 -0.25581569544E+03 -0.13830804343E+03 -0.15682734472E+04  0.15950085862E+04  0.00000000000E+00 0. -1.
        -11    1    3    3    0    0 -0.11192295789E+03 -0.12526938274E+03 -0.12016179337E+04  0.12133032702E+04  0.00000000000E+00 0.  1.
         22    1    1    2    0    0  0.36773865333E+03  0.26357742616E+03  0.19172277275E+04  0.19698900822E+04  0.00000000000E+00 0.  1.
<mgrwt>
<rscale>  0 0.47015081E+04</rscale>
<asrwt>0</asrwt>
<pdfrwt beam="1">  1        1 0.43314351E+00 0.47015081E+04</pdfrwt>
<pdfrwt beam="2">  1       -1 0.30196448E+00 0.47015081E+04</pdfrwt>
<totfact> 0.19263155E-02</totfact>
</mgrwt>
</event>
<event>
 6    1  0.1053555E-006  0.3723752E+04  0.7818608E-02  0.8062718E-01
         -2   -1    0    0    0  501 -0.00000000000E+00  0.00000000000E+00  0.20779143649E+04  0.20779143649E+04  0.00000000000E+00 0.  1.
          2   -1    0    0  501    0  0.00000000000E+00 -0.00000000000E+00 -0.16682985047E+04  0.16682985047E+04  0.00000000000E+00 0. -1.
         23    2    1    2    0    0  0.12442184311E+04 -0.13551983338E+04 -0.75742628061E+02  0.18435266394E+04  0.90617306030E+02 0.  0.
         11    1    3    3    0    0  0.65787862832E+03 -0.76163115636E+03 -0.81259750637E+01  0.10064553340E+04  0.00000000000E+00 0.  1.
        -11    1    3    3    0    0  0.58633980280E+03 -0.59356717747E+03 -0.67616652997E+02  0.83707130538E+03  0.00000000000E+00 0. -1.
         22    1    1    2    0    0 -0.12442184311E+04  0.13551983338E+04  0.48535848832E+03  0.19026862302E+04  0.00000000000E+00 0.  1.
<mgrwt>
<rscale>  0 0.37237516E+04</rscale>
<asrwt>0</asrwt>
<pdfrwt beam="1">  1        2 0.25666131E+00 0.37237516E+04</pdfrwt>
<pdfrwt beam="2">  1       -2 0.31967914E+00 0.37237516E+04</pdfrwt>
<totfact> 0.19819462E-01</totfact>
</mgrwt>
</event>
<event>
 6    1  0.1014650E-006  0.2227897E+04  0.7818608E-02  0.8506906E-01
         -1   -1    0    0    0  501 -0.00000000000E+00  0.00000000000E+00  0.68853704674E+03  0.68853704674E+03  0.00000000000E+00 0.  1.
          1   -1    0    0  501    0  0.00000000000E+00 -0.00000000000E+00 -0.18021990948E+04  0.18021990948E+04  0.00000000000E+00 0. -1.
         23    2    1    2    0    0  0.36155226287E+03 -0.25205365709E+03  0.58450130491E+03  0.73631034995E+03  0.79120611515E+02 0.  0.
         11    1    3    3    0    0  0.62977773502E+02 -0.37198821023E+02  0.15094406933E+03  0.16773212068E+03  0.00000000000E+00 0.  1.
        -11    1    3    3    0    0  0.29857448936E+03 -0.21485483607E+03  0.43355723558E+03  0.56857822927E+03  0.00000000000E+00 0. -1.
         22    1    1    2    0    0 -0.36155226287E+03  0.25205365709E+03 -0.16981633530E+04  0.17544257916E+04  0.00000000000E+00 0. -1.
<mgrwt>
<rscale>  0 0.22278966E+04</rscale>
<asrwt>0</asrwt>
<pdfrwt beam="1">  1        1 0.27726140E+00 0.22278966E+04</pdfrwt>
<pdfrwt beam="2">  1       -1 0.10592878E+00 0.22278966E+04</pdfrwt>
<totfact> 0.30793374E+00</totfact>
</mgrwt>
</event>
<event>
 6    1  0.1014650E-006  0.2100022E+04  0.7818608E-02  0.8561234E-01
         -2   -1    0    0    0  501 -0.00000000000E+00  0.00000000000E+00  0.38875644034E+03  0.38875644034E+03  0.00000000000E+00 0.  1.
          2   -1    0    0  501    0  0.00000000000E+00 -0.00000000000E+00 -0.28360264032E+04  0.28360264032E+04  0.00000000000E+00 0. -1.
         23    2    1    2    0    0  0.63467895330E+03  0.31408573825E+03 -0.41123265298E+02  0.71659442260E+03  0.10173111037E+03 0.  0.
         13    1    3    3    0    0  0.48663446838E+03  0.22641848318E+03  0.10922403246E+02  0.53684051098E+03  0.00000000000E+00 0.  1.
        -13    1    3    3    0    0  0.14804448492E+03  0.87667255075E+02 -0.52045668544E+02  0.17975391161E+03  0.00000000000E+00 0. -1.
         22    1    1    2    0    0 -0.63467895330E+03 -0.31408573825E+03 -0.24061466976E+04  0.25081884210E+04  0.00000000000E+00 0. -1.
<mgrwt>
<rscale>  0 0.21000224E+04</rscale>
<asrwt>0</asrwt>
<pdfrwt beam="1">  1        2 0.43631175E+00 0.21000224E+04</pdfrwt>
<pdfrwt beam="2">  1       -2 0.59808683E-01 0.21000224E+04</pdfrwt>
<totfact> 0.52897546E+00</totfact>
</mgrwt>
</event>
<event>
 6    1  0.1014650E-006  0.3001196E+04  0.7818608E-02  0.8243389E-01
          1   -1    0    0  501    0  0.00000000000E+00  0.00000000000E+00  0.18692021040E+04  0.18692021040E+04  0.00000000000E+00 0. -1.
         -1   -1    0    0    0  501 -0.00000000000E+00 -0.00000000000E+00 -0.12046823460E+04  0.12046823460E+04  0.00000000000E+00 0.  1.
         23    2    1    2    0    0  0.35348619037E+03  0.84578761156E+03 -0.88250244056E+03  0.12756667620E+04  0.90586750739E+02 0.  0.
         13    1    3    3    0    0  0.88917939817E+02  0.12657457507E+03 -0.15638109062E+03  0.21996037956E+03  0.00000000000E+00 0. -1.
        -13    1    3    3    0    0  0.26456825055E+03  0.71921303649E+03 -0.72612134994E+03  0.10557063824E+04  0.00000000000E+00 0.  1.
         22    1    1    2    0    0 -0.35348619037E+03 -0.84578761156E+03  0.15470221985E+04  0.17982176880E+04  0.00000000000E+00 0. -1.
<mgrwt>
<rscale>  0 0.30011963E+04</rscale>
<asrwt>0</asrwt>
<pdfrwt beam="1">  1        1 0.28756956E+00 0.30011963E+04</pdfrwt>
<pdfrwt beam="2">  1       -1 0.18533574E+00 0.30011963E+04</pdfrwt>
<totfact> 0.59306645E-01</totfact>
</mgrwt>
</event>
<event>
 6    1  0.1166602E-006  0.5010086E+04  0.7818608E-02  0.7826953E-01
         -2   -1    0    0    0  501 -0.00000000000E+00  0.00000000000E+00  0.53739723280E+04  0.53739723280E+04  0.00000000000E+00 0.  1.
          2   -1    0    0  501    0  0.00000000000E+00 -0.00000000000E+00 -0.11677096710E+04  0.11677096710E+04  0.00000000000E+00 0. -1.
         23    2    1    2    0    0  0.98512552733E+03  0.20902998708E+04  0.84385516967E+03  0.24617788181E+04  0.91856122384E+02 0.  0.
         13    1    3    3    0    0  0.52826060510E+03  0.11627063875E+04  0.51101153655E+03  0.13755283352E+04  0.00000000000E+00 0.  1.
        -13    1    3    3    0    0  0.45686492223E+03  0.92759348328E+03  0.33284363312E+03  0.10862504828E+04  0.00000000000E+00 0. -1.
         22    1    1    2    0    0 -0.98512552733E+03 -0.20902998708E+04  0.33624074874E+04  0.40799031809E+04  0.00000000000E+00 0. -1.
<mgrwt>
<rscale>  0 0.50100856E+04</rscale>
<asrwt>0</asrwt>
<pdfrwt beam="1">  1        2 0.17964764E+00 0.50100856E+04</pdfrwt>
<pdfrwt beam="2">  1       -2 0.82676496E+00 0.50100856E+04</pdfrwt>
<totfact> 0.73376391E-04</totfact>
</mgrwt>
</event>
<event>
 6    1  0.1014650E-006  0.9943199E+03  0.7818608E-02  0.9314797E-01
          2   -1    0    0  501    0  0.00000000000E+00  0.00000000000E+00  0.16748362436E+04  0.16748362436E+04  0.00000000000E+00 0. -1.
         -2   -1    0    0    0  501 -0.00000000000E+00 -0.00000000000E+00 -0.14757743005E+03  0.14757743005E+03  0.00000000000E+00 0.  1.
         23    2    1    2    0    0  0.27311094584E+03  0.50734959871E+02  0.23577983203E+02  0.29328985118E+03  0.91100991329E+02 0.  0.
         11    1    3    3    0    0  0.12743071695E+03  0.58253733667E+02 -0.18835412649E+02  0.14137488418E+03  0.00000000000E+00 0.  1.
        -11    1    3    3    0    0  0.14568022889E+03 -0.75187737960E+01  0.42413395852E+02  0.15191496699E+03  0.00000000000E+00 0. -1.
         22    1    1    2    0    0 -0.27311094584E+03 -0.50734959871E+02  0.15036808303E+04  0.15291238225E+04  0.00000000000E+00 0. -1.
<mgrwt>
<rscale>  0 0.99431993E+03</rscale>
<asrwt>0</asrwt>
<pdfrwt beam="1">  1        2 0.25766710E+00 0.99431993E+03</pdfrwt>
<pdfrwt beam="2">  1       -2 0.22704221E-01 0.99431993E+03</pdfrwt>
<totfact> 0.17268696E+02</totfact>
</mgrwt>
</event>
<event>
 6    1  0.1014650E-006  0.4669763E+03  0.7818608E-02  0.1022777E+00
          2   -1    0    0  501    0  0.00000000000E+00  0.00000000000E+00  0.34737424234E+03  0.34737424234E+03  0.00000000000E+00 0. -1.
         -2   -1    0    0    0  501 -0.00000000000E+00 -0.00000000000E+00 -0.15693942630E+03  0.15693942630E+03  0.00000000000E+00 0.  1.
         23    2    1    2    0    0 -0.12061459630E+03  0.98446787717E+02  0.27311240205E+03  0.32803197906E+03  0.93674672572E+02 0.  0.
         11    1    3    3    0    0 -0.87752529756E+02  0.11140593191E+03  0.18500193325E+03  0.23310406142E+03  0.00000000000E+00 0.  1.
        -11    1    3    3    0    0 -0.32862066541E+02 -0.12959144196E+02  0.88110468798E+02  0.94927917640E+02  0.00000000000E+00 0. -1.
         22    1    1    2    0    0  0.12061459630E+03 -0.98446787717E+02 -0.82677586006E+02  0.17628168958E+03  0.00000000000E+00 0.  1.
<mgrwt>
<rscale>  0 0.46697629E+03</rscale>
<asrwt>0</asrwt>
<pdfrwt beam="1">  1        2 0.53442191E-01 0.46697629E+03</pdfrwt>
<pdfrwt beam="2">  1       -2 0.24144527E-01 0.46697629E+03</pdfrwt>
<totfact> 0.14184297E+03</totfact>
</mgrwt>
</event>
<event>
 6    1  0.1014650E-006  0.2724357E+04  0.7818608E-02  0.8327145E-01
         -1   -1    0    0    0  501 -0.00000000000E+00  0.00000000000E+00  0.13009796354E+04  0.13009796354E+04  0.00000000000E+00 0.  1.
          1   -1    0    0  501    0  0.00000000000E+00 -0.00000000000E+00 -0.14262557548E+04  0.14262557548E+04  0.00000000000E+00 0. -1.
         23    2    1    2    0    0  0.30990780897E+03  0.18685814967E+03  0.12496708151E+04  0.13054625916E+04  0.10768757467E+03 0.  0.
         13    1    3    3    0    0  0.12950017412E+03  0.85915370722E+02  0.36040226337E+03  0.39248125747E+03  0.00000000000E+00 0. -1.
        -13    1    3    3    0    0  0.18040763486E+03  0.10094277894E+03  0.88926855175E+03  0.91298133413E+03  0.00000000000E+00 0.  1.
         22    1    1    2    0    0 -0.30990780897E+03 -0.18685814967E+03 -0.13749469345E+04  0.14217727986E+04  0.00000000000E+00 0. -1.
<mgrwt>
<rscale>  0 0.27243566E+04</rscale>
<asrwt>0</asrwt>
<pdfrwt beam="1">  1        1 0.21942396E+00 0.27243566E+04</pdfrwt>
<pdfrwt beam="2">  1       -1 0.20015071E+00 0.27243566E+04</pdfrwt>
<totfact> 0.96341005E-01</totfact>
</mgrwt>
</event>
<event>
 6    1  0.1014650E-006  0.2969635E+04  0.7818608E-02  0.8252455E-01
          2   -1    0    0  501    0  0.00000000000E+00  0.00000000000E+00  0.28056018585E+04  0.28056018585E+04  0.00000000000E+00 0. -1.
         -2   -1    0    0    0  501 -0.00000000000E+00 -0.00000000000E+00 -0.78581461973E+03  0.78581461973E+03  0.00000000000E+00 0.  1.
         23    2    1    2    0    0  0.11995718119E+04  0.86764125090E+03  0.89821775125E+03  0.17340818322E+04  0.92036948209E+02 0.  0.
         11    1    3    3    0    0  0.29602784195E+03  0.20736495936E+03  0.17433919317E+03  0.40128152693E+03  0.00000000000E+00 0. -1.
        -11    1    3    3    0    0  0.90354396993E+03  0.66027629154E+03  0.72387855808E+03  0.13328003052E+04  0.00000000000E+00 0.  1.
         22    1    1    2    0    0 -0.11995718119E+04 -0.86764125090E+03  0.11215694875E+04  0.18573346460E+04  0.00000000000E+00 0. -1.
<mgrwt>
<rscale>  0 0.29696350E+04</rscale>
<asrwt>0</asrwt>
<pdfrwt beam="1">  1        2 0.43163105E+00 0.29696350E+04</pdfrwt>
<pdfrwt beam="2">  1       -2 0.12089456E+00 0.29696350E+04</pdfrwt>
<totfact> 0.10259055E+00</totfact>
</mgrwt>
</event>
<event>
 6    1  0.1014650E-006  0.8351843E+03  0.7818608E-02  0.9510441E-01
          2   -1    0    0  501    0  0.00000000000E+00  0.00000000000E+00  0.14407412557E+04  0.14407412557E+04  0.00000000000E+00 0. -1.
         -2   -1    0    0    0  501 -0.00000000000E+00 -0.00000000000E+00 -0.12103715280E+03  0.12103715280E+03  0.00000000000E+00 0.  1.
         23    2    1    2    0    0  0.10871408434E+03 -0.22845689283E+03  0.12776236928E+04  0.13052982632E+04  0.86428880731E+02 0.  0.
         11    1    3    3    0    0  0.35915010095E+02 -0.13308166728E+03  0.85230160058E+03  0.86337630062E+03  0.00000000000E+00 0.  1.
        -11    1    3    3    0    0  0.72799074243E+02 -0.95375225544E+02  0.42532209222E+03  0.44192196255E+03  0.00000000000E+00 0. -1.
         22    1    1    2    0    0 -0.10871408434E+03  0.22845689283E+03  0.42080410050E+02  0.25648014528E+03  0.00000000000E+00 0.  1.
<mgrwt>
<rscale>  0 0.83518434E+03</rscale>
<asrwt>0</asrwt>
<pdfrwt beam="1">  1        2 0.22165249E+00 0.83518434E+03</pdfrwt>
<pdfrwt beam="2">  1       -2 0.18621101E-01 0.83518434E+03</pdfrwt>
<totfact> 0.33393041E+02</totfact>
</mgrwt>
</event>
<event>
 6    1  0.1014650E-006  0.1940979E+04  0.7818608E-02  0.8634723E-01
          2   -1    0    0  501    0  0.00000000000E+00  0.00000000000E+00  0.32534863092E+03  0.32534863092E+03  0.00000000000E+00 0. -1.
         -2   -1    0    0    0  501 -0.00000000000E+00 -0.00000000000E+00 -0.28948933010E+04  0.28948933010E+04  0.00000000000E+00 0.  1.
         23    2    1    2    0    0  0.54633288615E+03  0.77179865507E+03 -0.16353082325E+04  0.18909750258E+04  0.86027591258E+02 0.  0.
         11    1    3    3    0    0  0.35426908567E+03  0.44752926169E+03 -0.10419224435E+04  0.11880199507E+04  0.00000000000E+00 0.  1.
        -11    1    3    3    0    0  0.19206380047E+03  0.32426939339E+03 -0.59338578897E+03  0.70295507502E+03  0.00000000000E+00 0. -1.
         22    1    1    2    0    0 -0.54633288615E+03 -0.77179865507E+03 -0.93423643765E+03  0.13292669062E+04  0.00000000000E+00 0. -1.
<mgrwt>
<rscale>  0 0.19409787E+04</rscale>
<asrwt>0</asrwt>
<pdfrwt beam="1">  1        2 0.50053634E-01 0.19409787E+04</pdfrwt>
<pdfrwt beam="2">  1       -2 0.44536821E+00 0.19409787E+04</pdfrwt>
<totfact> 0.34948132E-01</totfact>
</mgrwt>
</event>
<event>
 6    1  0.1014650E-006  0.4652729E+04  0.7818608E-02  0.7884431E-01
          1   -1    0    0  501    0  0.00000000000E+00  0.00000000000E+00  0.28977169983E+04  0.28977169983E+04  0.00000000000E+00 0. -1.
         -1   -1    0    0    0  501 -0.00000000000E+00 -0.00000000000E+00 -0.18676676407E+04  0.18676676407E+04  0.00000000000E+00 0.  1.
         23    2    1    2    0    0 -0.95010274111E+03 -0.16827712717E+04 -0.81068367123E+03  0.20965436068E+04  0.62231093785E+02 0.  0.
         11    1    3    3    0    0 -0.36425159856E+03 -0.59913225544E+03 -0.31534238694E+03  0.76881695322E+03  0.00000000000E+00 0.  1.
        -11    1    3    3    0    0 -0.58585114255E+03 -0.10836390162E+04 -0.49534128429E+03  0.13277266536E+04  0.00000000000E+00 0. -1.
         22    1    1    2    0    0  0.95010274111E+03  0.16827712717E+04  0.18407330288E+04  0.26688410321E+04  0.00000000000E+00 0. -1.
<mgrwt>
<rscale>  0 0.46527292E+04</rscale>
<asrwt>0</asrwt>
<pdfrwt beam="1">  1        1 0.44580261E+00 0.46527292E+04</pdfrwt>
<pdfrwt beam="2">  1       -1 0.28733348E+00 0.46527292E+04</pdfrwt>
<totfact> 0.20997132E-02</totfact>
</mgrwt>
</event>
<event>
 6    1  0.1014650E-006  0.5144550E+04  0.7818608E-02  0.7806588E-01
         -2   -1    0    0    0  501 -0.00000000000E+00  0.00000000000E+00  0.33669197130E+04  0.33669197130E+04  0.00000000000E+00 0.  1.
          2   -1    0    0  501    0  0.00000000000E+00 -0.00000000000E+00 -0.19651788934E+04  0.19651788934E+04  0.00000000000E+00 0. -1.
         23    2    1    2    0    0 -0.11747482292E+04 -0.12118976152E+04  0.27117847190E+04  0.31955255910E+04  0.94224247452E+02 0.  0.
         13    1    3    3    0    0 -0.73077539607E+02 -0.77834477888E+02  0.21864559270E+03  0.24331960042E+03  0.00000000000E+00 0. -1.
        -13    1    3    3    0    0 -0.11016706896E+04 -0.11340631373E+04  0.24931391263E+04  0.29522059906E+04  0.00000000000E+00 0.  1.
         22    1    1    2    0    0  0.11747482292E+04  0.12118976152E+04 -0.13100438994E+04  0.21365730154E+04  0.00000000000E+00 0. -1.
<mgrwt>
<rscale>  0 0.51445503E+04</rscale>
<asrwt>0</asrwt>
<pdfrwt beam="1">  1        2 0.30233521E+00 0.51445503E+04</pdfrwt>
<pdfrwt beam="2">  1       -2 0.51798765E+00 0.51445503E+04</pdfrwt>
<totfact> 0.65142183E-03</totfact>
</mgrwt>
</event>
<event>
 6    1  0.1014650E-006  0.2065158E+04  0.7818608E-02  0.8576749E-01
          1   -1    0    0  501    0  0.00000000000E+00  0.00000000000E+00  0.14735150242E+04  0.14735150242E+04  0.00000000000E+00 0. -1.
         -1   -1    0    0    0  501 -0.00000000000E+00 -0.00000000000E+00 -0.72358893918E+03  0.72358893918E+03  0.00000000000E+00 0.  1.
         23    2    1    2    0    0  0.59416334384E+03 -0.80354581473E+03  0.11053699194E+03  0.10107084273E+04  0.10294242565E+03 0.  0.
         11    1    3    3    0    0  0.19854782900E+03 -0.19641819791E+03  0.47811888622E+02  0.28335018186E+03  0.00000000000E+00 0. -1.
        -11    1    3    3    0    0  0.39561551484E+03 -0.60712761682E+03  0.62725103318E+02  0.72735824548E+03  0.00000000000E+00 0.  1.
         22    1    1    2    0    0 -0.59416334384E+03  0.80354581473E+03  0.63938909304E+03  0.11863955360E+04  0.00000000000E+00 0. -1.
<mgrwt>
<rscale>  0 0.20651578E+04</rscale>
<asrwt>0</asrwt>
<pdfrwt beam="1">  1        1 0.22669462E+00 0.20651578E+04</pdfrwt>
<pdfrwt beam="2">  1       -1 0.11132138E+00 0.20651578E+04</pdfrwt>
<totfact> 0.46704531E+00</totfact>
</mgrwt>
</event>
<event>
 6    1  0.1014650E-006  0.8501403E+03  0.7818608E-02  0.9490149E-01
         -2   -1    0    0    0  501 -0.00000000000E+00  0.00000000000E+00  0.19596001702E+03  0.19596001702E+03  0.00000000000E+00 0.  1.
          2   -1    0    0  501    0  0.00000000000E+00 -0.00000000000E+00 -0.92204844768E+03  0.92204844768E+03  0.00000000000E+00 0. -1.
         23    2    1    2    0    0  0.34783565246E+03  0.18635576820E+03 -0.55564400975E+03  0.68816033562E+03  0.95426770270E+02 0.  0.
         13    1    3    3    0    0  0.10865173340E+03  0.27890675113E+02 -0.21727800040E+03  0.24452570087E+03  0.00000000000E+00 0.  1.
        -13    1    3    3    0    0  0.23918391906E+03  0.15846509309E+03 -0.33836600935E+03  0.44363463475E+03  0.00000000000E+00 0. -1.
         22    1    1    2    0    0 -0.34783565246E+03 -0.18635576820E+03 -0.17044442091E+03  0.42984812909E+03  0.00000000000E+00 0.  1.
<mgrwt>
<rscale>  0 0.85014029E+03</rscale>
<asrwt>0</asrwt>
<pdfrwt beam="1">  1        2 0.14185361E+00 0.85014029E+03</pdfrwt>
<pdfrwt beam="2">  1       -2 0.30147695E-01 0.85014029E+03</pdfrwt>
<totfact> 0.28873967E+02</totfact>
</mgrwt>
</event>
<event>
 6    1  0.1014650E-006  0.1951124E+04  0.7818608E-02  0.8629819E-01
          2   -1    0    0  501    0  0.00000000000E+00  0.00000000000E+00  0.60298032752E+03  0.60298032752E+03  0.00000000000E+00 0. -1.
         -2   -1    0    0    0  501 -0.00000000000E+00 -0.00000000000E+00 -0.15783615770E+04  0.15783615770E+04  0.00000000000E+00 0.  1.
         23    2    1    2    0    0  0.79977998843E+03 -0.34412970415E+03 -0.20663090262E+01  0.87542641856E+03  0.91070640199E+02 0.  0.
         11    1    3    3    0    0  0.31648900760E+03 -0.90873278463E+02 -0.15394286418E+02  0.32963651000E+03  0.00000000000E+00 0.  1.
        -11    1    3    3    0    0  0.48329098082E+03 -0.25325642569E+03  0.13327977391E+02  0.54578990856E+03  0.00000000000E+00 0. -1.
         22    1    1    2    0    0 -0.79977998843E+03  0.34412970415E+03 -0.97331494045E+03  0.13059154860E+04  0.00000000000E+00 0.  1.
<mgrwt>
<rscale>  0 0.19511238E+04</rscale>
<asrwt>0</asrwt>
<pdfrwt beam="1">  1        2 0.92766206E-01 0.19511238E+04</pdfrwt>
<pdfrwt beam="2">  1       -2 0.24282485E+00 0.19511238E+04</pdfrwt>
<totfact> 0.32708350E+00</totfact>
</mgrwt>
</event>
<event>
 6    1  0.1014650E-006  0.2867865E+04  0.7818608E-02  0.8282503E-01
         -1   -1    0    0    0  501 -0.00000000000E+00  0.00000000000E+00  0.86048430649E+03  0.86048430649E+03  0.00000000000E+00 0.  1.
          1   -1    0    0  501    0  0.00000000000E+00 -0.00000000000E+00 -0.23895410935E+04  0.23895410935E+04  0.00000000000E+00 0. -1.
         23    2    1    2    0    0 -0.12685250931E+04  0.11254147068E+03 -0.22015763286E+02  0.12769582086E+04  0.91192534771E+02 0.  0.
         11    1    3    3    0    0 -0.55940262016E+03  0.65075085010E+02  0.32864911869E+02  0.56413310536E+03  0.00000000000E+00 0.  1.
        -11    1    3    3    0    0 -0.70912247291E+03  0.47466385667E+02 -0.54880675154E+02  0.71282510327E+03  0.00000000000E+00 0. -1.
         22    1    1    2    0    0  0.12685250931E+04 -0.11254147068E+03 -0.15070410237E+04  0.19730671913E+04  0.00000000000E+00 0. -1.
<mgrwt>
<rscale>  0 0.28678651E+04</rscale>
<asrwt>0</asrwt>
<pdfrwt beam="1">  1        1 0.36762170E+00 0.28678651E+04</pdfrwt>
<pdfrwt beam="2">  1       -1 0.13238220E+00 0.28678651E+04</pdfrwt>
<totfact> 0.67308958E-01</totfact>
</mgrwt>
</event>
<event>
 6    1  0.1014650E-006  0.7768808E+03  0.7818608E-02  0.9594097E-01
         -2   -1    0    0    0  501 -0.00000000000E+00  0.00000000000E+00  0.61301893276E+02  0.61301893276E+02  0.00000000000E+00 0.  1.
          2   -1    0    0  501    0  0.00000000000E+00 -0.00000000000E+00 -0.24613587510E+04  0.24613587510E+04  0.00000000000E+00 0. -1.
         23    2    1    2    0    0  0.25220719181E+03 -0.19365139081E+03 -0.52131806702E+03  0.61720301619E+03  0.89764733734E+02 0.  0.
         11    1    3    3    0    0  0.19618238096E+03 -0.12916688405E+03 -0.44248300934E+03  0.50096189884E+03  0.00000000000E+00 0. -1.
        -11    1    3    3    0    0  0.56024810849E+02 -0.64484506755E+02 -0.78835057688E+02  0.11624111735E+03  0.00000000000E+00 0.  1.
         22    1    1    2    0    0 -0.25220719181E+03  0.19365139081E+03 -0.18787387907E+04  0.19054576281E+04  0.00000000000E+00 0. -1.
<mgrwt>
<rscale>  0 0.77688082E+03</rscale>
<asrwt>0</asrwt>
<pdfrwt beam="1">  1        2 0.37867054E+00 0.77688082E+03</pdfrwt>
<pdfrwt beam="2">  1       -2 0.94310615E-02 0.77688082E+03</pdfrwt>
<totfact> 0.28613590E+02</totfact>
</mgrwt>
</event>
<event>
 6    1  0.1014650E-006  0.3496890E+04  0.7818608E-02  0.8114527E-01
         -1   -1    0    0    0  501 -0.00000000000E+00  0.00000000000E+00  0.13957251355E+04  0.13957251355E+04  0.00000000000E+00 0.  1.
          1   -1    0    0  501    0  0.00000000000E+00 -0.00000000000E+00 -0.21903018328E+04  0.21903018328E+04  0.00000000000E+00 0. -1.
         23    2    1    2    0    0 -0.21206016383E+02  0.98507568361E+03 -0.18775747010E+04  0.21218861029E+04  0.79310012277E+02 0.  0.
         13    1    3    3    0    0  0.22222059575E+02  0.51264630940E+03 -0.92924773343E+03  0.10615090242E+04  0.00000000000E+00 0. -1.
        -13    1    3    3    0    0 -0.43428075958E+02  0.47242937421E+03 -0.94832696760E+03  0.10603770786E+04  0.00000000000E+00 0.  1.
         22    1    1    2    0    0  0.21206016383E+02 -0.98507568361E+03  0.10829980037E+04  0.14641408654E+04  0.00000000000E+00 0.  1.
<mgrwt>
<rscale>  0 0.34968897E+04</rscale>
<asrwt>0</asrwt>
<pdfrwt beam="1">  1        1 0.33696951E+00 0.34968897E+04</pdfrwt>
<pdfrwt beam="2">  1       -1 0.21472694E+00 0.34968897E+04</pdfrwt>
<totfact> 0.21557227E-01</totfact>
</mgrwt>
</event>
<event>
 6    1  0.1014650E-006  0.1549238E+04  0.7818608E-02  0.8852354E-01
          3   -1    0    0  501    0  0.00000000000E+00  0.00000000000E+00  0.63840030390E+03  0.63840030390E+03  0.00000000000E+00 0. -1.
         -3   -1    0    0    0  501 -0.00000000000E+00 -0.00000000000E+00 -0.93990376746E+03  0.93990376746E+03  0.00000000000E+00 0.  1.
         23    2    1    2    0    0 -0.47617784667E+03 -0.49579152282E+03 -0.50909022232E+03  0.86021853455E+03  0.90821236275E+02 0.  0.
         13    1    3    3    0    0 -0.87799245617E+02 -0.11681325481E+03 -0.15064450620E+03  0.20987570436E+03  0.00000000000E+00 0. -1.
        -13    1    3    3    0    0 -0.38837860105E+03 -0.37897826801E+03 -0.35844571613E+03  0.65034283019E+03  0.00000000000E+00 0.  1.
         22    1    1    2    0    0  0.47617784667E+03  0.49579152282E+03  0.20758675877E+03  0.71808553681E+03  0.00000000000E+00 0. -1.
<mgrwt>
<rscale>  0 0.15492383E+04</rscale>
<asrwt>0</asrwt>
<pdfrwt beam="1">  1        3 0.98215431E-01 0.15492383E+04</pdfrwt>
<pdfrwt beam="2">  1       -3 0.14460058E+00 0.15492383E+04</pdfrwt>
<totfact> 0.81548736E-01</totfact>
</mgrwt>
</event>
<event>
 6    1  0.1014650E-006  0.3556280E+04  0.7818608E-02  0.8100580E-01
          2   -1    0    0  501    0  0.00000000000E+00  0.00000000000E+00  0.70992876539E+03  0.70992876539E+03  0.00000000000E+00 0. -1.
         -2   -1    0    0    0  501 -0.00000000000E+00 -0.00000000000E+00 -0.44536606721E+04  0.44536606721E+04  0.00000000000E+00 0.  1.
         23    2    1    2    0    0  0.13179121080E+04  0.85323523951E+03 -0.30816382316E+04  0.34596907512E+04  0.89795353868E+02 0.  0.
         11    1    3    3    0    0  0.67498893284E+03  0.38422355649E+03 -0.15060599726E+04  0.16945366452E+04  0.00000000000E+00 0.  1.
        -11    1    3    3    0    0  0.64292317516E+03  0.46901168302E+03 -0.15755782590E+04  0.17651541060E+04  0.00000000000E+00 0. -1.
         22    1    1    2    0    0 -0.13179121080E+04 -0.85323523951E+03 -0.66209367516E+03  0.17038986863E+04  0.00000000000E+00 0. -1.
<mgrwt>
<rscale>  0 0.35562800E+04</rscale>
<asrwt>0</asrwt>
<pdfrwt beam="1">  1        2 0.10921981E+00 0.35562800E+04</pdfrwt>
<pdfrwt beam="2">  1       -2 0.68517855E+00 0.35562800E+04</pdfrwt>
<totfact> 0.83939960E-03</totfact>
</mgrwt>
</event>
<event>
 6    1  0.1014650E-006  0.2751150E+04  0.7818608E-02  0.8318597E-01
         -1   -1    0    0    0  501 -0.00000000000E+00  0.00000000000E+00  0.96181378037E+03  0.96181378037E+03  0.00000000000E+00 0.  1.
          1   -1    0    0  501    0  0.00000000000E+00 -0.00000000000E+00 -0.19673320964E+04  0.19673320964E+04  0.00000000000E+00 0. -1.
         23    2    1    2    0    0  0.97650081522E+03 -0.36900185775E+03 -0.14539587084E+04  0.17930054811E+04  0.10562441186E+03 0.  0.
         11    1    3    3    0    0  0.27961783636E+03 -0.15416441910E+03 -0.41347155717E+03  0.52240935205E+03  0.00000000000E+00 0. -1.
        -11    1    3    3    0    0  0.69688297887E+03 -0.21483743865E+03 -0.10404871512E+04  0.12705961290E+04  0.00000000000E+00 0.  1.
         22    1    1    2    0    0 -0.97650081522E+03  0.36900185775E+03  0.44844039236E+03  0.11361403957E+04  0.00000000000E+00 0.  1.
<mgrwt>
<rscale>  0 0.27511504E+04</rscale>
<asrwt>0</asrwt>
<pdfrwt beam="1">  1        1 0.30266648E+00 0.27511504E+04</pdfrwt>
<pdfrwt beam="2">  1       -1 0.14797135E+00 0.27511504E+04</pdfrwt>
<totfact> 0.98664765E-01</totfact>
</mgrwt>
</event>
<event>
 6    1  0.1014650E-006  0.3225996E+04  0.7818608E-02  0.8181985E-01
         -1   -1    0    0    0  501 -0.00000000000E+00  0.00000000000E+00  0.10406221612E+04  0.10406221612E+04  0.00000000000E+00 0.  1.
          1   -1    0    0  501    0  0.00000000000E+00 -0.00000000000E+00 -0.25001984351E+04  0.25001984351E+04  0.00000000000E+00 0. -1.
         23    2    1    2    0    0  0.11376810951E+04  0.86318950358E+03  0.89655744194E+02  0.14338003689E+04  0.91274049266E+02 0.  0.
         13    1    3    3    0    0  0.67038442055E+03  0.55893575167E+03  0.74122496503E+02  0.87596723129E+03  0.00000000000E+00 0. -1.
        -13    1    3    3    0    0  0.46729667454E+03  0.30425375191E+03  0.15533247692E+02  0.55783313757E+03  0.00000000000E+00 0.  1.
         22    1    1    2    0    0 -0.11376810951E+04 -0.86318950358E+03 -0.15492320180E+04  0.21070202274E+04  0.00000000000E+00 0. -1.
<mgrwt>
<rscale>  0 0.32259956E+04</rscale>
<asrwt>0</asrwt>
<pdfrwt beam="1">  1        1 0.38464591E+00 0.32259956E+04</pdfrwt>
<pdfrwt beam="2">  1       -1 0.16009572E+00 0.32259956E+04</pdfrwt>
<totfact> 0.32974475E-01</totfact>
</mgrwt>
</event>
<event>
 6    1  0.1014650E-006  0.2942523E+04  0.7818608E-02  0.8260337E-01
          1   -1    0    0  501    0  0.00000000000E+00  0.00000000000E+00  0.18295110339E+04  0.18295110339E+04  0.00000000000E+00 0. -1.
         -1   -1    0    0    0  501 -0.00000000000E+00 -0.00000000000E+00 -0.11831634926E+04  0.11831634926E+04  0.00000000000E+00 0.  1.
         23    2    1    2    0    0 -0.96611040902E+03 -0.82186489002E+00 -0.81069694177E+03  0.12644329460E+04  0.90504948299E+02 0.  0.
         11    1    3    3    0    0 -0.58346717325E+03 -0.27585957023E+02 -0.53452373655E+03  0.79177683233E+03  0.00000000000E+00 0.  1.
        -11    1    3    3    0    0 -0.38264323578E+03  0.26764092133E+02 -0.27617320522E+03  0.47265611368E+03  0.00000000000E+00 0. -1.
         22    1    1    2    0    0  0.96611040902E+03  0.82186489002E+00  0.14570444831E+04  0.17482415805E+04  0.00000000000E+00 0. -1.
<mgrwt>
<rscale>  0 0.29425232E+04</rscale>
<asrwt>0</asrwt>
<pdfrwt beam="1">  1        1 0.28146324E+00 0.29425232E+04</pdfrwt>
<pdfrwt beam="2">  1       -1 0.18202515E+00 0.29425232E+04</pdfrwt>
<totfact> 0.66963027E-01</totfact>
</mgrwt>
</event>
<event>
 6    1  0.1014650E-006  0.2891072E+04  0.7818608E-02  0.8275539E-01
         -1   -1    0    0    0  501 -0.00000000000E+00  0.00000000000E+00  0.79923232183E+03  0.79923232183E+03  0.00000000000E+00 0.  1.
          1   -1    0    0  501    0  0.00000000000E+00 -0.00000000000E+00 -0.26144775092E+04  0.26144775092E+04  0.00000000000E+00 0. -1.
         23    2    1    2    0    0 -0.98225922517E+03  0.27118580607E+03 -0.21168289465E+04  0.23510115245E+04  0.88968943788E+02 0.  0.
         11    1    3    3    0    0 -0.34166313085E+03  0.65008225155E+02 -0.65072348002E+03  0.73783521993E+03  0.00000000000E+00 0. -1.
        -11    1    3    3    0    0 -0.64059609432E+03  0.20617758092E+03 -0.14661054664E+04  0.16131763046E+04  0.00000000000E+00 0.  1.
         22    1    1    2    0    0  0.98225922517E+03 -0.27118580607E+03  0.30158375913E+03  0.10626983065E+04  0.00000000000E+00 0.  1.
<mgrwt>
<rscale>  0 0.28910724E+04</rscale>
<asrwt>0</asrwt>
<pdfrwt beam="1">  1        1 0.40222731E+00 0.28910724E+04</pdfrwt>
<pdfrwt beam="2">  1       -1 0.12295882E+00 0.28910724E+04</pdfrwt>
<totfact> 0.56423167E-01</totfact>
</mgrwt>
</event>
<event>
 6    1  0.1014650E-006  0.3299431E+04  0.7818608E-02  0.8163040E-01
         -2   -1    0    0    0  501 -0.00000000000E+00  0.00000000000E+00  0.88022701670E+03  0.88022701670E+03  0.00000000000E+00 0.  1.
          2   -1    0    0  501    0  0.00000000000E+00 -0.00000000000E+00 -0.30918854904E+04  0.30918854904E+04  0.00000000000E+00 0. -1.
         23    2    1    2    0    0 -0.11496321497E+03 -0.13587057641E+04 -0.22218672413E+04  0.26085135509E+04  0.91383878329E+02 0.  0.
         11    1    3    3    0    0 -0.72486679258E+02 -0.10689193109E+04 -0.16796796463E+04  0.19922767192E+04  0.00000000000E+00 0. -1.
        -11    1    3    3    0    0 -0.42476535708E+02 -0.28978645327E+03 -0.54218759502E+03  0.61623683173E+03  0.00000000000E+00 0.  1.
         22    1    1    2    0    0  0.11496321497E+03  0.13587057641E+04  0.10208767603E+02  0.13635989562E+04  0.00000000000E+00 0.  1.
<mgrwt>
<rscale>  0 0.32994309E+04</rscale>
<asrwt>0</asrwt>
<pdfrwt beam="1">  1        2 0.47567469E+00 0.32994309E+04</pdfrwt>
<pdfrwt beam="2">  1       -2 0.13541954E+00 0.32994309E+04</pdfrwt>
<totfact> 0.49744034E-01</totfact>
</mgrwt>
</event>
<event>
 6    1  0.1014650E-006  0.4905032E+03  0.7818608E-02  0.1016288E+00
          2   -1    0    0  501    0  0.00000000000E+00  0.00000000000E+00  0.35467395206E+03  0.35467395206E+03  0.00000000000E+00 0. -1.
         -2   -1    0    0    0  501 -0.00000000000E+00 -0.00000000000E+00 -0.16958769673E+03  0.16958769673E+03  0.00000000000E+00 0.  1.
         23    2    1    2    0    0  0.17544814891E+03  0.48641737489E+02 -0.66166305445E+02  0.21397803518E+03  0.90887556817E+02 0.  0.
         13    1    3    3    0    0  0.23041399039E+02  0.40611026164E+02 -0.34637775364E+02  0.58137225578E+02  0.00000000000E+00 0. -1.
        -13    1    3    3    0    0  0.15240674987E+03  0.80307113257E+01 -0.31528530081E+02  0.15584080961E+03  0.00000000000E+00 0.  1.
         22    1    1    2    0    0 -0.17544814891E+03 -0.48641737489E+02  0.25125256077E+03  0.31028361361E+03  0.00000000000E+00 0. -1.
<mgrwt>
<rscale>  0 0.49050316E+03</rscale>
<asrwt>0</asrwt>
<pdfrwt beam="1">  1        2 0.54565223E-01 0.49050316E+03</pdfrwt>
<pdfrwt beam="2">  1       -2 0.26090415E-01 0.49050316E+03</pdfrwt>
<totfact> 0.12070223E+03</totfact>
</mgrwt>
</event>
<event>
 6    1  0.1014650E-006  0.4888807E+04  0.7818608E-02  0.7845892E-01
         -2   -1    0    0    0  501 -0.00000000000E+00  0.00000000000E+00  0.17280863478E+04  0.17280863478E+04  0.00000000000E+00 0.  1.
          2   -1    0    0  501    0  0.00000000000E+00 -0.00000000000E+00 -0.34576442972E+04  0.34576442972E+04  0.00000000000E+00 0. -1.
         23    2    1    2    0    0 -0.13425698131E+04  0.10801380729E+04  0.97272399063E+03  0.19808094848E+04  0.90676863839E+02 0.  0.
         11    1    3    3    0    0 -0.47293842475E+03  0.41741631444E+03  0.31835512182E+03  0.70658128815E+03  0.00000000000E+00 0. -1.
        -11    1    3    3    0    0 -0.86963138832E+03  0.66272175844E+03  0.65436886881E+03  0.12742281966E+04  0.00000000000E+00 0.  1.
         22    1    1    2    0    0  0.13425698131E+04 -0.10801380729E+04 -0.27022819401E+04  0.32049211602E+04  0.00000000000E+00 0. -1.
<mgrwt>
<rscale>  0 0.48888068E+04</rscale>
<asrwt>0</asrwt>
<pdfrwt beam="1">  1        2 0.53194527E+00 0.48888068E+04</pdfrwt>
<pdfrwt beam="2">  1       -2 0.26585944E+00 0.48888068E+04</pdfrwt>
<totfact> 0.32774784E-02</totfact>
</mgrwt>
</event>
<event>
 6    1  0.1014650E-006  0.3046857E+04  0.7818608E-02  0.8230476E-01
         -2   -1    0    0    0  501 -0.00000000000E+00  0.00000000000E+00  0.27385252220E+04  0.27385252220E+04  0.00000000000E+00 0.  1.
          2   -1    0    0  501    0  0.00000000000E+00 -0.00000000000E+00 -0.84747626418E+03  0.84747626418E+03  0.00000000000E+00 0. -1.
         23    2    1    2    0    0 -0.13260691174E+04 -0.74689178493E+03  0.92338086941E+03  0.17824804379E+04  0.91091376939E+02 0.  0.
         11    1    3    3    0    0 -0.76921177125E+03 -0.47795906155E+03  0.52293131112E+03  0.10457479475E+04  0.00000000000E+00 0.  1.
        -11    1    3    3    0    0 -0.55685734612E+03 -0.26893272338E+03  0.40044955829E+03  0.73673249037E+03  0.00000000000E+00 0. -1.
         22    1    1    2    0    0  0.13260691174E+04  0.74689178493E+03  0.96766808844E+03  0.18035210483E+04  0.00000000000E+00 0.  1.
<mgrwt>
<rscale>  0 0.30468575E+04</rscale>
<asrwt>0</asrwt>
<pdfrwt beam="1">  1        2 0.13038097E+00 0.30468575E+04</pdfrwt>
<pdfrwt beam="2">  1       -2 0.42131157E+00 0.30468575E+04</pdfrwt>
<totfact> 0.14590511E-01</totfact>
</mgrwt>
</event>
<event>
 6    1  0.1328060E-006  0.2781374E+04  0.7818608E-02  0.8309074E-01
         -2   -1    0    0    0  501 -0.00000000000E+00  0.00000000000E+00  0.13955335290E+04  0.13955335290E+04  0.00000000000E+00 0.  1.
          2   -1    0    0  501    0  0.00000000000E+00 -0.00000000000E+00 -0.13858574912E+04  0.13858574912E+04  0.00000000000E+00 0. -1.
         23    2    1    2    0    0 -0.10335857214E+04 -0.69016681576E+03  0.62545985740E+03  0.13943728553E+04  0.91901846385E+02 0.  0.
         13    1    3    3    0    0 -0.67875762150E+03 -0.45852061608E+03  0.46018560509E+03  0.93953384998E+03  0.00000000000E+00 0. -1.
        -13    1    3    3    0    0 -0.35482809990E+03 -0.23164619968E+03  0.16527425230E+03  0.45483900534E+03  0.00000000000E+00 0.  1.
         22    1    1    2    0    0  0.10335857214E+04  0.69016681576E+03 -0.61578381965E+03  0.13870181648E+04  0.00000000000E+00 0. -1.
<mgrwt>
<rscale>  0 0.27813742E+04</rscale>
<asrwt>0</asrwt>
<pdfrwt beam="1">  1        2 0.21320884E+00 0.27813742E+04</pdfrwt>
<pdfrwt beam="2">  1       -2 0.21469747E+00 0.27813742E+04</pdfrwt>
<totfact> 0.13726522E+00</totfact>
</mgrwt>
</event>
<event>
 6    1  0.1014650E-006  0.1170518E+04  0.7818608E-02  0.9139061E-01
          1   -1    0    0  501    0  0.00000000000E+00  0.00000000000E+00  0.34863843783E+03  0.34863843783E+03  0.00000000000E+00 0. -1.
         -1   -1    0    0    0  501 -0.00000000000E+00 -0.00000000000E+00 -0.98247296365E+03  0.98247296365E+03  0.00000000000E+00 0.  1.
         23    2    1    2    0    0 -0.15852041045E+03 -0.50068271909E+03 -0.60315359776E+03  0.80503799873E+03  0.92086976175E+02 0.  0.
         11    1    3    3    0    0 -0.77461770354E+02 -0.24520882837E+03 -0.36502384299E+03  0.44650879200E+03  0.00000000000E+00 0. -1.
        -11    1    3    3    0    0 -0.81058640099E+02 -0.25547389073E+03 -0.23812975477E+03  0.35852920674E+03  0.00000000000E+00 0.  1.
         22    1    1    2    0    0  0.15852041045E+03  0.50068271909E+03 -0.30680928063E+02  0.52607340275E+03  0.00000000000E+00 0. -1.
<mgrwt>
<rscale>  0 0.11705176E+04</rscale>
<asrwt>0</asrwt>
<pdfrwt beam="1">  1        1 0.53636683E-01 0.11705176E+04</pdfrwt>
<pdfrwt beam="2">  1       -1 0.15114969E+00 0.11705176E+04</pdfrwt>
<totfact> 0.24402591E+01</totfact>
</mgrwt>
</event>
<event>
 6    1  0.1014650E-006  0.7710736E+03  0.7818608E-02  0.9602857E-01
         -1   -1    0    0    0  501 -0.00000000000E+00  0.00000000000E+00  0.59184925436E+03  0.59184925436E+03  0.00000000000E+00 0.  1.
          1   -1    0    0  501    0  0.00000000000E+00 -0.00000000000E+00 -0.25114268958E+03  0.25114268958E+03  0.00000000000E+00 0. -1.
         23    2    1    2    0    0 -0.34464942796E+03  0.15069183336E+03  0.11393953675E+03  0.40377156437E+03  0.92509466130E+02 0.  0.
         11    1    3    3    0    0 -0.69176496633E+02 -0.13266385268E+01  0.14014768853E+00  0.69189358268E+02  0.00000000000E+00 0.  1.
        -11    1    3    3    0    0 -0.27547293132E+03  0.15201847189E+03  0.11379938906E+03  0.33458220610E+03  0.00000000000E+00 0. -1.
         22    1    1    2    0    0  0.34464942796E+03 -0.15069183336E+03  0.22676702803E+03  0.43922037958E+03  0.00000000000E+00 0.  1.
<mgrwt>
<rscale>  0 0.77107357E+03</rscale>
<asrwt>0</asrwt>
<pdfrwt beam="1">  1        1 0.38637337E-01 0.77107357E+03</pdfrwt>
<pdfrwt beam="2">  1       -1 0.91053732E-01 0.77107357E+03</pdfrwt>
<totfact> 0.13190343E+02</totfact>
</mgrwt>
</event>
<event>
 6    1  0.1014650E-006  0.2032912E+04  0.7818608E-02  0.8591386E-01
         -1   -1    0    0    0  501 -0.00000000000E+00  0.00000000000E+00  0.84232688092E+03  0.84232688092E+03  0.00000000000E+00 0.  1.
          1   -1    0    0  501    0  0.00000000000E+00 -0.00000000000E+00 -0.12265818215E+04  0.12265818215E+04  0.00000000000E+00 0. -1.
         23    2    1    2    0    0 -0.82343011805E+03  0.36029829069E+02 -0.79445107324E+03  0.11482588368E+04  0.89501623917E+02 0.  0.
         13    1    3    3    0    0 -0.72567355247E+03  0.29941443653E+02 -0.73688452170E+03  0.10346484394E+04  0.00000000000E+00 0.  1.
        -13    1    3    3    0    0 -0.97756565571E+02  0.60883854165E+01 -0.57566551544E+02  0.11361039744E+03  0.00000000000E+00 0. -1.
         22    1    1    2    0    0  0.82343011805E+03 -0.36029829069E+02  0.41019613262E+03  0.92064986564E+03  0.00000000000E+00 0.  1.
<mgrwt>
<rscale>  0 0.20329120E+04</rscale>
<asrwt>0</asrwt>
<pdfrwt beam="1">  1        1 0.18870489E+00 0.20329120E+04</pdfrwt>
<pdfrwt beam="2">  1       -1 0.12958875E+00 0.20329120E+04</pdfrwt>
<totfact> 0.48328342E+00</totfact>
</mgrwt>
</event>
<event>
 6    1  0.1014650E-006  0.3994141E+04  0.7818608E-02  0.8005729E-01
          2   -1    0    0  501    0  0.00000000000E+00  0.00000000000E+00  0.25306577667E+04  0.25306577667E+04  0.00000000000E+00 0. -1.
         -2   -1    0    0    0  501 -0.00000000000E+00 -0.00000000000E+00 -0.15759899422E+04  0.15759899422E+04  0.00000000000E+00 0.  1.
         23    2    1    2    0    0 -0.79824864443E+03  0.15484650968E+04  0.14792630522E+04  0.22872672629E+04  0.91800325231E+02 0.  0.
         11    1    3    3    0    0 -0.42163518485E+03  0.86958997633E+03  0.76900589383E+03  0.12350437323E+04  0.00000000000E+00 0.  1.
        -11    1    3    3    0    0 -0.37661345959E+03  0.67887512051E+03  0.71025715840E+03  0.10522235306E+04  0.00000000000E+00 0. -1.
         22    1    1    2    0    0  0.79824864443E+03 -0.15484650968E+04 -0.52459522774E+03  0.18193804460E+04  0.00000000000E+00 0.  1.
<mgrwt>
<rscale>  0 0.39941413E+04</rscale>
<asrwt>0</asrwt>
<pdfrwt beam="1">  1        2 0.38933196E+00 0.39941413E+04</pdfrwt>
<pdfrwt beam="2">  1       -2 0.24245999E+00 0.39941413E+04</pdfrwt>
<totfact> 0.18860766E-01</totfact>
</mgrwt>
</event>
<event>
 6    1  0.1014650E-006  0.3122030E+04  0.7818608E-02  0.8209718E-01
         -1   -1    0    0    0  501 -0.00000000000E+00  0.00000000000E+00  0.11994184809E+04  0.11994184809E+04  0.00000000000E+00 0.  1.
          1   -1    0    0  501    0  0.00000000000E+00 -0.00000000000E+00 -0.20316247312E+04  0.20316247312E+04  0.00000000000E+00 0. -1.
         23    2    1    2    0    0  0.14675118632E+04 -0.51888482111E+03 -0.51867309991E+03  0.16432347971E+04  0.91467412930E+02 0.  0.
         13    1    3    3    0    0  0.48349425147E+03 -0.21689364269E+03 -0.17561468222E+03  0.55825626737E+03  0.00000000000E+00 0. -1.
        -13    1    3    3    0    0  0.98401761175E+03 -0.30199117842E+03 -0.34305841769E+03  0.10849785298E+04  0.00000000000E+00 0.  1.
         22    1    1    2    0    0 -0.14675118632E+04  0.51888482111E+03 -0.31353315031E+03  0.15878084150E+04  0.00000000000E+00 0. -1.
<mgrwt>
<rscale>  0 0.31220303E+04</rscale>
<asrwt>0</asrwt>
<pdfrwt beam="1">  1        1 0.31255765E+00 0.31220303E+04</pdfrwt>
<pdfrwt beam="2">  1       -1 0.18452592E+00 0.31220303E+04</pdfrwt>
<totfact> 0.46143123E-01</totfact>
</mgrwt>
</event>
<event>
 6    1  0.1014650E-006  0.1383191E+04  0.7818608E-02  0.8966076E-01
         -2   -1    0    0    0  501 -0.00000000000E+00  0.00000000000E+00  0.99270705416E+03  0.99270705416E+03  0.00000000000E+00 0.  1.
          2   -1    0    0  501    0  0.00000000000E+00 -0.00000000000E+00 -0.48181848984E+03  0.48181848984E+03  0.00000000000E+00 0. -1.
         23    2    1    2    0    0 -0.78145251347E+02 -0.36625370415E+03  0.87210604024E+03  0.95421167620E+03  0.98501377995E+02 0.  0.
         11    1    3    3    0    0 -0.18283837018E+02 -0.11783875713E+03  0.17515662013E+03  0.21189646754E+03  0.00000000000E+00 0.  1.
        -11    1    3    3    0    0 -0.59861414329E+02 -0.24841494702E+03  0.69694942011E+03  0.74231520867E+03  0.00000000000E+00 0. -1.
         22    1    1    2    0    0  0.78145251347E+02  0.36625370415E+03 -0.36121747592E+03  0.52031386780E+03  0.00000000000E+00 0. -1.
<mgrwt>
<rscale>  0 0.13831914E+04</rscale>
<asrwt>0</asrwt>
<pdfrwt beam="1">  1        2 0.74125922E-01 0.13831914E+04</pdfrwt>
<pdfrwt beam="2">  1       -2 0.15272416E+00 0.13831914E+04</pdfrwt>
<totfact> 0.17874843E+01</totfact>
</mgrwt>
</event>
<event>
 6    1  0.1014650E-006  0.5344887E+04  0.7818608E-02  0.7777401E-01
         -2   -1    0    0    0  501 -0.00000000000E+00  0.00000000000E+00  0.28689899144E+04  0.28689899144E+04  0.00000000000E+00 0.  1.
          2   -1    0    0  501    0  0.00000000000E+00 -0.00000000000E+00 -0.24893616161E+04  0.24893616161E+04  0.00000000000E+00 0. -1.
         23    2    1    2    0    0  0.14153070539E+04 -0.22280921349E+03 -0.20708875645E+04  0.25197310916E+04  0.87928759583E+02 0.  0.
         13    1    3    3    0    0  0.45258452806E+03 -0.41273983229E+02 -0.70646218368E+03  0.84001494850E+03  0.00000000000E+00 0. -1.
        -13    1    3    3    0    0  0.96272252580E+03 -0.18153523026E+03 -0.13644253808E+04  0.16797161431E+04  0.00000000000E+00 0.  1.
         22    1    1    2    0    0 -0.14153070539E+04  0.22280921349E+03  0.24505158628E+04  0.28386204389E+04  0.00000000000E+00 0.  1.
<mgrwt>
<rscale>  0 0.53448867E+04</rscale>
<asrwt>0</asrwt>
<pdfrwt beam="1">  1        2 0.38297871E+00 0.53448867E+04</pdfrwt>
<pdfrwt beam="2">  1       -2 0.44138307E+00 0.53448867E+04</pdfrwt>
<totfact> 0.99297401E-03</totfact>
</mgrwt>
</event>
<event>
 6    1  0.1014650E-006  0.2030159E+04  0.7818608E-02  0.8592649E-01
         -1   -1    0    0    0  501 -0.00000000000E+00  0.00000000000E+00  0.13025727092E+04  0.13025727092E+04  0.00000000000E+00 0.  1.
          1   -1    0    0  501    0  0.00000000000E+00 -0.00000000000E+00 -0.79103948687E+03  0.79103948687E+03  0.00000000000E+00 0. -1.
         23    2    1    2    0    0  0.47647638759E+02  0.85855710002E+03 -0.29598955108E+03  0.91400055614E+03  0.91633022465E+02 0.  0.
         13    1    3    3    0    0  0.35978668910E+02  0.27791191294E+03 -0.13666591419E+03  0.31178048059E+03  0.00000000000E+00 0.  1.
        -13    1    3    3    0    0  0.11668969849E+02  0.58064518707E+03 -0.15932363689E+03  0.60222007555E+03  0.00000000000E+00 0. -1.
         22    1    1    2    0    0 -0.47647638759E+02 -0.85855710002E+03  0.80752277338E+03  0.11796116399E+04  0.00000000000E+00 0.  1.
<mgrwt>
<rscale>  0 0.20301591E+04</rscale>
<asrwt>0</asrwt>
<pdfrwt beam="1">  1        1 0.12169838E+00 0.20301591E+04</pdfrwt>
<pdfrwt beam="2">  1       -1 0.20039580E+00 0.20301591E+04</pdfrwt>
<totfact> 0.31149777E+00</totfact>
</mgrwt>
</event>
<event>
 6    1  0.1014650E-006  0.2102077E+04  0.7818608E-02  0.8560329E-01
          2   -1    0    0  501    0  0.00000000000E+00  0.00000000000E+00  0.13286830093E+04  0.13286830093E+04  0.00000000000E+00 0. -1.
         -2   -1    0    0    0  501 -0.00000000000E+00 -0.00000000000E+00 -0.83141128052E+03  0.83141128052E+03  0.00000000000E+00 0.  1.
         23    2    1    2    0    0 -0.68223717581E+03  0.73615371320E+03 -0.64427698568E+02  0.10099307796E+04  0.91866194904E+02 0.  0.
         11    1    3    3    0    0 -0.11591785788E+03  0.16239879593E+03  0.13623997759E+02  0.19998982977E+03  0.00000000000E+00 0.  1.
        -11    1    3    3    0    0 -0.56631931793E+03  0.57375491727E+03 -0.78051696327E+02  0.80994094986E+03  0.00000000000E+00 0. -1.
         22    1    1    2    0    0  0.68223717581E+03 -0.73615371320E+03  0.56169942738E+03  0.11501635102E+04  0.00000000000E+00 0. -1.
<mgrwt>
<rscale>  0 0.21020771E+04</rscale>
<asrwt>0</asrwt>
<pdfrwt beam="1">  1        2 0.20441277E+00 0.21020771E+04</pdfrwt>
<pdfrwt beam="2">  1       -2 0.12790943E+00 0.21020771E+04</pdfrwt>
<totfact> 0.66334145E+00</totfact>
</mgrwt>
</event>
<event>
 6    1  0.1014650E-006  0.1160491E+04  0.7818608E-02  0.9148160E-01
          1   -1    0    0  501    0  0.00000000000E+00  0.00000000000E+00  0.93787708497E+03  0.93787708497E+03  0.00000000000E+00 0. -1.
         -1   -1    0    0    0  501 -0.00000000000E+00 -0.00000000000E+00 -0.35898593737E+03  0.35898593737E+03  0.00000000000E+00 0.  1.
         23    2    1    2    0    0 -0.18031435619E+03  0.15163520290E+03 -0.29692798792E+03  0.38990896620E+03  0.91412636425E+02 0.  0.
         11    1    3    3    0    0 -0.11820152142E+03  0.40888134486E+02 -0.13325772851E+03  0.18275957271E+03  0.00000000000E+00 0.  1.
        -11    1    3    3    0    0 -0.62112834773E+02  0.11074706842E+03 -0.16367025941E+03  0.20714939349E+03  0.00000000000E+00 0. -1.
         22    1    1    2    0    0  0.18031435619E+03 -0.15163520290E+03  0.87581913552E+03  0.90695405614E+03  0.00000000000E+00 0. -1.
<mgrwt>
<rscale>  0 0.11604907E+04</rscale>
<asrwt>0</asrwt>
<pdfrwt beam="1">  1        1 0.14428878E+00 0.11604907E+04</pdfrwt>
<pdfrwt beam="2">  1       -1 0.55228606E-01 0.11604907E+04</pdfrwt>
<totfact> 0.55747604E+01</totfact>
</mgrwt>
</event>
<event>
 6    1  0.1014650E-006  0.8569241E+03  0.7818608E-02  0.9481090E-01
         -2   -1    0    0    0  501 -0.00000000000E+00  0.00000000000E+00  0.21656180553E+03  0.21656180553E+03  0.00000000000E+00 0.  1.
          2   -1    0    0  501    0  0.00000000000E+00 -0.00000000000E+00 -0.84770134511E+03  0.84770134511E+03  0.00000000000E+00 0. -1.
         23    2    1    2    0    0 -0.40380353197E+03  0.12788383147E+03 -0.30925788327E+03  0.53226750455E+03  0.90866337279E+02 0.  0.
         11    1    3    3    0    0 -0.21691272549E+03  0.58805012171E+02 -0.10902736791E+03  0.24979216739E+03  0.00000000000E+00 0.  1.
        -11    1    3    3    0    0 -0.18689080649E+03  0.69078819300E+02 -0.20023051535E+03  0.28247533716E+03  0.00000000000E+00 0. -1.
         22    1    1    2    0    0  0.40380353197E+03 -0.12788383147E+03 -0.32188165631E+03  0.53199564609E+03  0.00000000000E+00 0.  1.
<mgrwt>
<rscale>  0 0.85692411E+03</rscale>
<asrwt>0</asrwt>
<pdfrwt beam="1">  1        2 0.13041559E+00 0.85692411E+03</pdfrwt>
<pdfrwt beam="2">  1       -2 0.33317201E-01 0.85692411E+03</pdfrwt>
<totfact> 0.26892003E+02</totfact>
</mgrwt>
</event>
<event>
 6    1  0.1014650E-006  0.1562297E+04  0.7818608E-02  0.8844051E-01
          2   -1    0    0  501    0  0.00000000000E+00  0.00000000000E+00  0.53414573920E+03  0.53414573920E+03  0.00000000000E+00 0. -1.
         -2   -1    0    0    0  501 -0.00000000000E+00 -0.00000000000E+00 -0.11423717645E+04  0.11423717645E+04  0.00000000000E+00 0.  1.
         23    2    1    2    0    0  0.64752713061E+03 -0.13900843623E+03 -0.74420673715E+03  0.10004217382E+04  0.91571045513E+02 0.  0.
         11    1    3    3    0    0  0.46117592483E+03 -0.57702207821E+02 -0.49984126903E+03  0.68253503402E+03  0.00000000000E+00 0. -1.
        -11    1    3    3    0    0  0.18635120578E+03 -0.81306228408E+02 -0.24436546812E+03  0.31788670416E+03  0.00000000000E+00 0.  1.
         22    1    1    2    0    0 -0.64752713061E+03  0.13900843623E+03  0.13598071181E+03  0.67609576556E+03  0.00000000000E+00 0.  1.
<mgrwt>
<rscale>  0 0.15622970E+04</rscale>
<asrwt>0</asrwt>
<pdfrwt beam="1">  1        2 0.82176269E-01 0.15622970E+04</pdfrwt>
<pdfrwt beam="2">  1       -2 0.17574950E+00 0.15622970E+04</pdfrwt>
<totfact> 0.10627843E+01</totfact>
</mgrwt>
</event>
<event>
 6    1  0.1014650E-006  0.1346234E+04  0.7818608E-02  0.8993684E-01
         -2   -1    0    0    0  501 -0.00000000000E+00  0.00000000000E+00  0.25073033965E+03  0.25073033965E+03  0.00000000000E+00 0.  1.
          2   -1    0    0  501    0  0.00000000000E+00 -0.00000000000E+00 -0.18070668440E+04  0.18070668440E+04  0.00000000000E+00 0. -1.
         23    2    1    2    0    0 -0.43795398496E+03 -0.39411179707E+02 -0.84883424159E+01  0.44870089491E+03  0.88901671010E+02 0.  0.
         13    1    3    3    0    0 -0.18953510410E+03  0.98682803996E+01  0.31235259497E+02  0.19234495075E+03  0.00000000000E+00 0.  1.
        -13    1    3    3    0    0 -0.24841888087E+03 -0.49279460107E+02 -0.39723601913E+02  0.25635594417E+03  0.00000000000E+00 0. -1.
         22    1    1    2    0    0  0.43795398496E+03  0.39411179707E+02 -0.15478481619E+04  0.16090962887E+04  0.00000000000E+00 0. -1.
<mgrwt>
<rscale>  0 0.13462340E+04</rscale>
<asrwt>0</asrwt>
<pdfrwt beam="1">  1        2 0.27801029E+00 0.13462340E+04</pdfrwt>
<pdfrwt beam="2">  1       -2 0.38573898E-01 0.13462340E+04</pdfrwt>
<totfact> 0.53049770E+01</totfact>
</mgrwt>
</event>
<event>
 6    1  0.1014650E-006  0.1397722E+04  0.7818608E-02  0.8955469E-01
         -2   -1    0    0    0  501 -0.00000000000E+00  0.00000000000E+00  0.84256478035E+03  0.84256478035E+03  0.00000000000E+00 0.  1.
          2   -1    0    0  501    0  0.00000000000E+00 -0.00000000000E+00 -0.57966684597E+03  0.57966684597E+03  0.00000000000E+00 0. -1.
         23    2    1    2    0    0 -0.52413658104E+03  0.89403037477E+02  0.58886149338E+03  0.79856160099E+03  0.90723279817E+02 0.  0.
         13    1    3    3    0    0 -0.37573104072E+03  0.70045663699E+02  0.47955953557E+03  0.61323532035E+03  0.00000000000E+00 0.  1.
        -13    1    3    3    0    0 -0.14840554032E+03  0.19357373778E+02  0.10930195781E+03  0.18532628065E+03  0.00000000000E+00 0. -1.
         22    1    1    2    0    0  0.52413658104E+03 -0.89403037477E+02 -0.32596355900E+03  0.62367002533E+03  0.00000000000E+00 0. -1.
<mgrwt>
<rscale>  0 0.13977222E+04</rscale>
<asrwt>0</asrwt>
<pdfrwt beam="1">  1        2 0.89179515E-01 0.13977222E+04</pdfrwt>
<pdfrwt beam="2">  1       -2 0.12962535E+00 0.13977222E+04</pdfrwt>
<totfact> 0.22010176E+01</totfact>
</mgrwt>
</event>
<event>
 6    1  0.1014650E-006  0.2444757E+04  0.7818608E-02  0.8422935E-01
         -1   -1    0    0    0  501 -0.00000000000E+00  0.00000000000E+00  0.63927341278E+03  0.63927341278E+03  0.00000000000E+00 0.  1.
          1   -1    0    0  501    0  0.00000000000E+00 -0.00000000000E+00 -0.23373548031E+04  0.23373548031E+04  0.00000000000E+00 0. -1.
         23    2    1    2    0    0  0.70028915882E+03 -0.99982538424E+03 -0.84547456666E+03  0.14876708288E+04  0.91003004978E+02 0.  0.
         13    1    3    3    0    0  0.61606498093E+03 -0.92479576014E+03 -0.76323439807E+03  0.13480764092E+04  0.00000000000E+00 0.  1.
        -13    1    3    3    0    0  0.84224177897E+02 -0.75029624101E+02 -0.82240168592E+02  0.13959441953E+03  0.00000000000E+00 0. -1.
         22    1    1    2    0    0 -0.70028915882E+03  0.99982538424E+03 -0.85260682364E+03  0.14889573871E+04  0.00000000000E+00 0. -1.
<mgrwt>
<rscale>  0 0.24447567E+04</rscale>
<asrwt>0</asrwt>
<pdfrwt beam="1">  1        1 0.35959305E+00 0.24447567E+04</pdfrwt>
<pdfrwt beam="2">  1       -1 0.98349755E-01 0.24447567E+04</pdfrwt>
<totfact> 0.15501034E+00</totfact>
</mgrwt>
</event>
<event>
 6    1  0.1014650E-006  0.9064976E+03  0.7818608E-02  0.9417495E-01
         -3   -1    0    0    0  501 -0.00000000000E+00  0.00000000000E+00  0.21059924232E+03  0.21059924232E+03  0.00000000000E+00 0.  1.
          3   -1    0    0  501    0  0.00000000000E+00 -0.00000000000E+00 -0.97547590806E+03  0.97547590806E+03  0.00000000000E+00 0. -1.
         23    2    1    2    0    0 -0.11286691757E+03  0.12382025425E+03 -0.93126247169E+03  0.94995096089E+03  0.84182186191E+02 0.  0.
         13    1    3    3    0    0 -0.60845424512E+02  0.11967219853E+03 -0.71369241047E+03  0.72620965123E+03  0.00000000000E+00 0. -1.
        -13    1    3    3    0    0 -0.52021493055E+02  0.41480557173E+01 -0.21757006122E+03  0.22374130965E+03  0.00000000000E+00 0.  1.
         22    1    1    2    0    0  0.11286691757E+03 -0.12382025425E+03  0.16638580594E+03  0.23612418949E+03  0.00000000000E+00 0.  1.
<mgrwt>
<rscale>  0 0.90649763E+03</rscale>
<asrwt>0</asrwt>
<pdfrwt beam="1">  1        3 0.15007322E+00 0.90649763E+03</pdfrwt>
<pdfrwt beam="2">  1       -3 0.32399884E-01 0.90649763E+03</pdfrwt>
<totfact> 0.79593672E+00</totfact>
</mgrwt>
</event>
<event>
 6    1  0.1014650E-006  0.5768456E+04  0.7818608E-02  0.7719792E-01
         -2   -1    0    0    0  501 -0.00000000000E+00  0.00000000000E+00  0.21891476316E+04  0.21891476316E+04  0.00000000000E+00 0.  1.
          2   -1    0    0  501    0  0.00000000000E+00 -0.00000000000E+00 -0.38000050490E+04  0.38000050490E+04  0.00000000000E+00 0. -1.
         23    2    1    2    0    0 -0.46336083925E+02 -0.17161441466E+04 -0.32110208795E+04  0.36422779779E+04  0.90752491216E+02 0.  0.
         11    1    3    3    0    0  0.16733114072E+01 -0.85953386059E+03 -0.15265779258E+04  0.17519250614E+04  0.00000000000E+00 0. -1.
        -11    1    3    3    0    0 -0.48009395332E+02 -0.85661028604E+03 -0.16844429537E+04  0.18903529164E+04  0.00000000000E+00 0.  1.
         22    1    1    2    0    0  0.46336083925E+02  0.17161441466E+04  0.16001634622E+04  0.23468747027E+04  0.00000000000E+00 0.  1.
<mgrwt>
<rscale>  0 0.57684563E+04</rscale>
<asrwt>0</asrwt>
<pdfrwt beam="1">  1        2 0.58461616E+00 0.57684563E+04</pdfrwt>
<pdfrwt beam="2">  1       -2 0.33679195E+00 0.57684563E+04</pdfrwt>
<totfact> 0.63135174E-03</totfact>
</mgrwt>
</event>
<event>
 6    1  0.1014650E-006  0.1683387E+04  0.7818608E-02  0.8770896E-01
         -2   -1    0    0    0  501 -0.00000000000E+00  0.00000000000E+00  0.80302340137E+03  0.80302340137E+03  0.00000000000E+00 0.  1.
          2   -1    0    0  501    0  0.00000000000E+00 -0.00000000000E+00 -0.88222578065E+03  0.88222578065E+03  0.00000000000E+00 0. -1.
         23    2    1    2    0    0 -0.70955081208E+03 -0.32736423344E+02 -0.48725352651E+03  0.86607901222E+03  0.90237619454E+02 0.  0.
         11    1    3    3    0    0 -0.28714655086E+03 -0.48372509402E+01 -0.14505531175E+03  0.32174148650E+03  0.00000000000E+00 0.  1.
        -11    1    3    3    0    0 -0.42240426122E+03 -0.27899172404E+02 -0.34219821476E+03  0.54433752571E+03  0.00000000000E+00 0. -1.
         22    1    1    2    0    0  0.70955081208E+03  0.32736423344E+02  0.40805114723E+03  0.81917016980E+03  0.00000000000E+00 0.  1.
<mgrwt>
<rscale>  0 0.16833870E+04</rscale>
<asrwt>0</asrwt>
<pdfrwt beam="1">  1        2 0.13572704E+00 0.16833870E+04</pdfrwt>
<pdfrwt beam="2">  1       -2 0.12354206E+00 0.16833870E+04</pdfrwt>
<totfact> 0.14184896E+01</totfact>
</mgrwt>
</event>
<event>
 6    1  0.1014650E-006  0.6112238E+03  0.7818608E-02  0.9882390E-01
          2   -1    0    0  501    0  0.00000000000E+00  0.00000000000E+00  0.17322784082E+04  0.17322784082E+04  0.00000000000E+00 0. -1.
         -2   -1    0    0    0  501 -0.00000000000E+00 -0.00000000000E+00 -0.53916644560E+02  0.53916644560E+02  0.00000000000E+00 0.  1.
         23    2    1    2    0    0 -0.16397730137E+03  0.24944187193E+03  0.87600501681E+03  0.93010735163E+03  0.92763641824E+02 0.  0.
         13    1    3    3    0    0 -0.26964264137E+02  0.12362846623E+03  0.34701552164E+03  0.36936545786E+03  0.00000000000E+00 0. -1.
        -13    1    3    3    0    0 -0.13701303724E+03  0.12581340570E+03  0.52898949517E+03  0.56074189377E+03  0.00000000000E+00 0.  1.
         22    1    1    2    0    0  0.16397730137E+03 -0.24944187193E+03  0.80235674683E+03  0.85608770113E+03  0.00000000000E+00 0.  1.
<mgrwt>
<rscale>  0 0.61122382E+03</rscale>
<asrwt>0</asrwt>
<pdfrwt beam="1">  1        2 0.26650433E+00 0.61122382E+03</pdfrwt>
<pdfrwt beam="2">  1       -2 0.82948697E-02 0.61122382E+03</pdfrwt>
<totfact> 0.89517217E+02</totfact>
</mgrwt>
</event>
<event>
 6    1  0.1014650E-006  0.1233748E+04  0.7818608E-02  0.9083819E-01
         -2   -1    0    0    0  501 -0.00000000000E+00  0.00000000000E+00  0.48708075703E+03  0.48708075703E+03  0.00000000000E+00 0.  1.
          2   -1    0    0  501    0  0.00000000000E+00 -0.00000000000E+00 -0.78125331430E+03  0.78125331430E+03  0.00000000000E+00 0. -1.
         23    2    1    2    0    0 -0.45114878801E+03 -0.20890883979E+03  0.22191798679E+03  0.55172568320E+03  0.89305679394E+02 0.  0.
         11    1    3    3    0    0 -0.30454133994E+03 -0.13726949024E+03  0.10216140501E+03  0.34932118939E+03  0.00000000000E+00 0. -1.
        -11    1    3    3    0    0 -0.14660744807E+03 -0.71639349556E+02  0.11975658178E+03  0.20240449381E+03  0.00000000000E+00 0.  1.
         22    1    1    2    0    0  0.45114878801E+03  0.20890883979E+03 -0.51609054406E+03  0.71660838813E+03  0.00000000000E+00 0. -1.
<mgrwt>
<rscale>  0 0.12337479E+04</rscale>
<asrwt>0</asrwt>
<pdfrwt beam="1">  1        2 0.12019282E+00 0.12337479E+04</pdfrwt>
<pdfrwt beam="2">  1       -2 0.74935501E-01 0.12337479E+04</pdfrwt>
<totfact> 0.56018604E+01</totfact>
</mgrwt>
</event>
<event>
 6    1  0.1014650E-006  0.1012568E+04  0.7818608E-02  0.9294867E-01
          1   -1    0    0  501    0  0.00000000000E+00  0.00000000000E+00  0.70884753800E+03  0.70884753800E+03  0.00000000000E+00 0. -1.
         -1   -1    0    0    0  501 -0.00000000000E+00 -0.00000000000E+00 -0.36160574830E+03  0.36160574830E+03  0.00000000000E+00 0.  1.
         23    2    1    2    0    0 -0.42944524749E+03 -0.22012870749E+03  0.30852154918E+02  0.49340712744E+03  0.98075835407E+02 0.  0.
         13    1    3    3    0    0 -0.22111278337E+03 -0.79078248746E+02  0.53352934981E+02  0.24081272405E+03  0.00000000000E+00 0. -1.
        -13    1    3    3    0    0 -0.20833246412E+03 -0.14105045875E+03 -0.22500780064E+02  0.25259440339E+03  0.00000000000E+00 0.  1.
         22    1    1    2    0    0  0.42944524749E+03  0.22012870749E+03  0.31638963478E+03  0.57704615886E+03  0.00000000000E+00 0. -1.
<mgrwt>
<rscale>  0 0.10125677E+04</rscale>
<asrwt>0</asrwt>
<pdfrwt beam="1">  1        1 0.10905347E+00 0.10125677E+04</pdfrwt>
<pdfrwt beam="2">  1       -1 0.55631654E-01 0.10125677E+04</pdfrwt>
<totfact> 0.87494135E+01</totfact>
</mgrwt>
</event>
<event>
 6    1  0.1014650E-006  0.1552777E+04  0.7818608E-02  0.8850096E-01
         -2   -1    0    0    0  501 -0.00000000000E+00  0.00000000000E+00  0.26847488221E+03  0.26847488221E+03  0.00000000000E+00 0.  1.
          2   -1    0    0  501    0  0.00000000000E+00 -0.00000000000E+00 -0.22451959813E+04  0.22451959813E+04  0.00000000000E+00 0. -1.
         23    2    1    2    0    0 -0.59626481249E+03  0.40740575321E+03 -0.54245750426E+03  0.90786164886E+03  0.91877392140E+02 0.  0.
         11    1    3    3    0    0 -0.26303975188E+03  0.14994382399E+03 -0.17990892655E+03  0.35219353099E+03  0.00000000000E+00 0. -1.
        -11    1    3    3    0    0 -0.33322506061E+03  0.25746192922E+03 -0.36254857771E+03  0.55566811787E+03  0.00000000000E+00 0.  1.
         22    1    1    2    0    0  0.59626481249E+03 -0.40740575321E+03 -0.14342635948E+04  0.16058092146E+04  0.00000000000E+00 0. -1.
<mgrwt>
<rscale>  0 0.15527765E+04</rscale>
<asrwt>0</asrwt>
<pdfrwt beam="1">  1        2 0.34541476E+00 0.15527765E+04</pdfrwt>
<pdfrwt beam="2">  1       -2 0.41303829E-01 0.15527765E+04</pdfrwt>
<totfact> 0.26050016E+01</totfact>
</mgrwt>
</event>
<event>
 6    1  0.1014650E-006  0.2900005E+04  0.7818608E-02  0.8272876E-01
         -1   -1    0    0    0  501 -0.00000000000E+00  0.00000000000E+00  0.12237279773E+04  0.12237279773E+04  0.00000000000E+00 0.  1.
          1   -1    0    0  501    0  0.00000000000E+00 -0.00000000000E+00 -0.17181165564E+04  0.17181165564E+04  0.00000000000E+00 0. -1.
         23    2    1    2    0    0 -0.13325001768E+04 -0.42655940884E+03 -0.62675946508E+03  0.15364863224E+04  0.10224060633E+03 0.  0.
         13    1    3    3    0    0 -0.12662252489E+04 -0.38724883278E+03 -0.60877554347E+03  0.14573591533E+04  0.00000000000E+00 0. -1.
        -13    1    3    3    0    0 -0.66274927864E+02 -0.39310576064E+02 -0.17983921608E+02  0.79127169103E+02  0.00000000000E+00 0.  1.
         22    1    1    2    0    0  0.13325001768E+04  0.42655940884E+03  0.13237088594E+03  0.14053582112E+04  0.00000000000E+00 0.  1.
<mgrwt>
<rscale>  0 0.29000050E+04</rscale>
<asrwt>0</asrwt>
<pdfrwt beam="1">  1        1 0.26432562E+00 0.29000050E+04</pdfrwt>
<pdfrwt beam="2">  1       -1 0.18826584E+00 0.29000050E+04</pdfrwt>
<totfact> 0.72263699E-01</totfact>
</mgrwt>
</event>
<event>
 6    1  0.1014650E-006  0.1703321E+04  0.7818608E-02  0.8759473E-01
          1   -1    0    0  501    0  0.00000000000E+00  0.00000000000E+00  0.49688372742E+03  0.49688372742E+03  0.00000000000E+00 0. -1.
         -1   -1    0    0    0  501 -0.00000000000E+00 -0.00000000000E+00 -0.14597491692E+04  0.14597491692E+04  0.00000000000E+00 0.  1.
         23    2    1    2    0    0 -0.59176751374E+03 -0.51106116974E+03 -0.86367693817E+03  0.11684637087E+04  0.89427487793E+02 0.  0.
         11    1    3    3    0    0 -0.28390592530E+03 -0.25986537761E+03 -0.36074728445E+03  0.52751416297E+03  0.00000000000E+00 0. -1.
        -11    1    3    3    0    0 -0.30786158844E+03 -0.25119579213E+03 -0.50292965372E+03  0.64094954576E+03  0.00000000000E+00 0.  1.
         22    1    1    2    0    0  0.59176751374E+03  0.51106116974E+03 -0.99188503662E+02  0.78816918793E+03  0.00000000000E+00 0. -1.
<mgrwt>
<rscale>  0 0.17033210E+04</rscale>
<asrwt>0</asrwt>
<pdfrwt beam="1">  1        1 0.76443651E-01 0.17033210E+04</pdfrwt>
<pdfrwt beam="2">  1       -1 0.22457679E+00 0.17033210E+04</pdfrwt>
<totfact> 0.43618353E+00</totfact>
</mgrwt>
</event>
<event>
 6    1  0.1014650E-006  0.1231379E+04  0.7818608E-02  0.9085826E-01
         -2   -1    0    0    0  501 -0.00000000000E+00  0.00000000000E+00  0.26599116331E+03  0.26599116331E+03  0.00000000000E+00 0.  1.
          2   -1    0    0  501    0  0.00000000000E+00 -0.00000000000E+00 -0.14251348898E+04  0.14251348898E+04  0.00000000000E+00 0. -1.
         23    2    1    2    0    0 -0.75583388931E+02 -0.18720383146E+03 -0.13769429644E+04  0.13941502440E+04  0.83215697541E+02 0.  0.
         13    1    3    3    0    0 -0.12658478013E+01 -0.11083637431E+03 -0.63662120529E+03  0.64619877999E+03  0.00000000000E+00 0. -1.
        -13    1    3    3    0    0 -0.74317541130E+02 -0.76367457146E+02 -0.74032175912E+03  0.74795146397E+03  0.00000000000E+00 0.  1.
         22    1    1    2    0    0  0.75583388931E+02  0.18720383146E+03  0.21779923790E+03  0.29697580916E+03  0.00000000000E+00 0.  1.
<mgrwt>
<rscale>  0 0.12313786E+04</rscale>
<asrwt>0</asrwt>
<pdfrwt beam="1">  1        2 0.21925152E+00 0.12313786E+04</pdfrwt>
<pdfrwt beam="2">  1       -2 0.40921717E-01 0.12313786E+04</pdfrwt>
<totfact> 0.77921762E+01</totfact>
</mgrwt>
</event>
<event>
 6    1  0.1014650E-006  0.1463172E+04  0.7818608E-02  0.8909320E-01
          2   -1    0    0  501    0  0.00000000000E+00  0.00000000000E+00  0.71225259536E+03  0.71225259536E+03  0.00000000000E+00 0. -1.
         -2   -1    0    0    0  501 -0.00000000000E+00 -0.00000000000E+00 -0.75144384147E+03  0.75144384147E+03  0.00000000000E+00 0.  1.
         23    2    1    2    0    0 -0.65634286287E+03 -0.11920264660E+03  0.27364607477E+03  0.72690446216E+03  0.92264284887E+02 0.  0.
         13    1    3    3    0    0 -0.44832145393E+03 -0.12302582877E+03  0.17630806606E+03  0.49720419825E+03  0.00000000000E+00 0. -1.
        -13    1    3    3    0    0 -0.20802140894E+03  0.38231821629E+01  0.97338008711E+02  0.22970026391E+03  0.00000000000E+00 0.  1.
         22    1    1    2    0    0  0.65634286287E+03  0.11920264660E+03 -0.31283732088E+03  0.73679197467E+03  0.00000000000E+00 0.  1.
<mgrwt>
<rscale>  0 0.14631717E+04</rscale>
<asrwt>0</asrwt>
<pdfrwt beam="1">  1        2 0.10957732E+00 0.14631717E+04</pdfrwt>
<pdfrwt beam="2">  1       -2 0.11560675E+00 0.14631717E+04</pdfrwt>
<totfact> 0.22602105E+01</totfact>
</mgrwt>
</event>
<event>
 6    1  0.1014650E-006  0.4917320E+04  0.7818608E-02  0.7841389E-01
          1   -1    0    0  501    0  0.00000000000E+00  0.00000000000E+00  0.19189603869E+04  0.19189603869E+04  0.00000000000E+00 0. -1.
         -1   -1    0    0    0  501 -0.00000000000E+00 -0.00000000000E+00 -0.31501484631E+04  0.31501484631E+04  0.00000000000E+00 0.  1.
         23    2    1    2    0    0 -0.41668591935E+03  0.63569571504E+03 -0.30252942158E+04  0.31206343089E+04  0.90648774418E+02 0.  0.
         13    1    3    3    0    0 -0.14768682207E+03  0.29595352066E+03 -0.12175761958E+04  0.12617018968E+04  0.00000000000E+00 0. -1.
        -13    1    3    3    0    0 -0.26899909728E+03  0.33974219438E+03 -0.18077180199E+04  0.18589324121E+04  0.00000000000E+00 0.  1.
         22    1    1    2    0    0  0.41668591935E+03 -0.63569571504E+03  0.17941061395E+04  0.19484745411E+04  0.00000000000E+00 0. -1.
<mgrwt>
<rscale>  0 0.49173205E+04</rscale>
<asrwt>0</asrwt>
<pdfrwt beam="1">  1        1 0.29522468E+00 0.49173205E+04</pdfrwt>
<pdfrwt beam="2">  1       -1 0.48463822E+00 0.49173205E+04</pdfrwt>
<totfact> 0.46414288E-03</totfact>
</mgrwt>
</event>
<event>
 6    1  0.1014650E-006  0.1422337E+04  0.7818608E-02  0.8937807E-01
          1   -1    0    0  501    0  0.00000000000E+00  0.00000000000E+00  0.77000546287E+03  0.77000546287E+03  0.00000000000E+00 0. -1.
         -1   -1    0    0    0  501 -0.00000000000E+00 -0.00000000000E+00 -0.65682718246E+03  0.65682718246E+03  0.00000000000E+00 0.  1.
         23    2    1    2    0    0 -0.10253176367E+03 -0.42628703560E+03 -0.50119225137E+03  0.67205814285E+03  0.90747315368E+02 0.  0.
         11    1    3    3    0    0 -0.21600583969E+02 -0.27505779382E+03 -0.32112376891E+03  0.42337199970E+03  0.00000000000E+00 0. -1.
        -11    1    3    3    0    0 -0.80931179701E+02 -0.15122924178E+03 -0.18006848246E+03  0.24868614314E+03  0.00000000000E+00 0.  1.
         22    1    1    2    0    0  0.10253176367E+03  0.42628703560E+03  0.61437053178E+03  0.75477450249E+03  0.00000000000E+00 0. -1.
<mgrwt>
<rscale>  0 0.14223368E+04</rscale>
<asrwt>0</asrwt>
<pdfrwt beam="1">  1        1 0.11846238E+00 0.14223368E+04</pdfrwt>
<pdfrwt beam="2">  1       -1 0.10105034E+00 0.14223368E+04</pdfrwt>
<totfact> 0.21292524E+01</totfact>
</mgrwt>
</event>
<event>
 6    1  0.1014650E-006  0.4437527E+04  0.7818608E-02  0.7921666E-01
          1   -1    0    0  501    0  0.00000000000E+00  0.00000000000E+00  0.15879459819E+04  0.15879459819E+04  0.00000000000E+00 0. -1.
         -1   -1    0    0    0  501 -0.00000000000E+00 -0.00000000000E+00 -0.31001752144E+04  0.31001752144E+04  0.00000000000E+00 0.  1.
         23    2    1    2    0    0 -0.10937898377E+04 -0.12822407104E+03 -0.27902218682E+04  0.30010874685E+04  0.91489333852E+02 0.  0.
         13    1    3    3    0    0 -0.51877734254E+03 -0.43569431221E+02 -0.12038324539E+04  0.13115795071E+04  0.00000000000E+00 0.  1.
        -13    1    3    3    0    0 -0.57501249519E+03 -0.84654639815E+02 -0.15863894144E+04  0.16895079614E+04  0.00000000000E+00 0. -1.
         22    1    1    2    0    0  0.10937898377E+04  0.12822407104E+03  0.12779926358E+04  0.16870337278E+04  0.00000000000E+00 0. -1.
<mgrwt>
<rscale>  0 0.44375267E+04</rscale>
<asrwt>0</asrwt>
<pdfrwt beam="1">  1        1 0.24429939E+00 0.44375267E+04</pdfrwt>
<pdfrwt beam="2">  1       -1 0.47695002E+00 0.44375267E+04</pdfrwt>
<totfact> 0.91128614E-03</totfact>
</mgrwt>
</event>
<event>
 6    1  0.1014650E-006  0.2080081E+04  0.7818608E-02  0.8570069E-01
         -1   -1    0    0    0  501 -0.00000000000E+00  0.00000000000E+00  0.44333167591E+03  0.44333167591E+03  0.00000000000E+00 0.  1.
          1   -1    0    0  501    0  0.00000000000E+00 -0.00000000000E+00 -0.24398973830E+04  0.24398973830E+04  0.00000000000E+00 0. -1.
         23    2    1    2    0    0 -0.10102591604E+04 -0.80333145646E+02 -0.13104060276E+04  0.16593450402E+04  0.95838508698E+02 0.  0.
         11    1    3    3    0    0 -0.70697757101E+03 -0.15979363428E+02 -0.88076294643E+03  0.11295202494E+04  0.00000000000E+00 0. -1.
        -11    1    3    3    0    0 -0.30328158942E+03 -0.64353782219E+02 -0.42964308116E+03  0.52982479081E+03  0.00000000000E+00 0.  1.
         22    1    1    2    0    0  0.10102591604E+04  0.80333145646E+02 -0.68615967950E+03  0.12238840187E+04  0.00000000000E+00 0. -1.
<mgrwt>
<rscale>  0 0.20800806E+04</rscale>
<asrwt>0</asrwt>
<pdfrwt beam="1">  1        1 0.37536882E+00 0.20800806E+04</pdfrwt>
<pdfrwt beam="2">  1       -1 0.68204874E-01 0.20800806E+04</pdfrwt>
<totfact> 0.29898766E+00</totfact>
</mgrwt>
</event>
<event>
 6    1  0.1014650E-006  0.4392734E+04  0.7818608E-02  0.7929690E-01
          2   -1    0    0  501    0  0.00000000000E+00  0.00000000000E+00  0.30291672103E+04  0.30291672103E+04  0.00000000000E+00 0. -1.
         -2   -1    0    0    0  501 -0.00000000000E+00 -0.00000000000E+00 -0.15925260770E+04  0.15925260770E+04  0.00000000000E+00 0.  1.
         23    2    1    2    0    0  0.59679395524E+03  0.98853101855E+02  0.29389927901E+04  0.30021268449E+04  0.95666148995E+02 0.  0.
         11    1    3    3    0    0  0.61636537011E+02  0.19747896159E+02  0.19965955984E+03  0.20988802237E+03  0.00000000000E+00 0.  1.
        -11    1    3    3    0    0  0.53515741823E+03  0.79105205696E+02  0.27393332303E+04  0.27922388226E+04  0.00000000000E+00 0. -1.
         22    1    1    2    0    0 -0.59679395524E+03 -0.98853101855E+02 -0.15023516567E+04  0.16195664424E+04  0.00000000000E+00 0.  1.
<mgrwt>
<rscale>  0 0.43927339E+04</rscale>
<asrwt>0</asrwt>
<pdfrwt beam="1">  1        2 0.46602573E+00 0.43927339E+04</pdfrwt>
<pdfrwt beam="2">  1       -2 0.24500401E+00 0.43927339E+04</pdfrwt>
<totfact> 0.87948449E-02</totfact>
</mgrwt>
</event>
<event>
 6    1  0.1886729E-006  0.3212837E+04  0.7818608E-02  0.8185435E-01
          2   -1    0    0  501    0  0.00000000000E+00  0.00000000000E+00  0.16409048671E+04  0.16409048671E+04  0.00000000000E+00 0. -1.
         -2   -1    0    0    0  501 -0.00000000000E+00 -0.00000000000E+00 -0.15726564570E+04  0.15726564570E+04  0.00000000000E+00 0.  1.
         23    2    1    2    0    0 -0.69585674767E+02  0.15576790119E+04  0.41528081108E+03  0.16161767249E+04  0.91449349879E+02 0.  0.
         11    1    3    3    0    0 -0.45933331218E+02  0.83508725585E+03  0.17634900092E+03  0.85473947254E+03  0.00000000000E+00 0.  1.
        -11    1    3    3    0    0 -0.23652343549E+02  0.72259175608E+03  0.23893181016E+03  0.76143725232E+03  0.00000000000E+00 0. -1.
         22    1    1    2    0    0  0.69585674767E+02 -0.15576790119E+04 -0.34703240099E+03  0.15973845992E+04  0.00000000000E+00 0. -1.
<mgrwt>
<rscale>  0 0.32128365E+04</rscale>
<asrwt>0</asrwt>
<pdfrwt beam="1">  1        2 0.25244690E+00 0.32128365E+04</pdfrwt>
<pdfrwt beam="2">  1       -2 0.24194715E+00 0.32128365E+04</pdfrwt>
<totfact> 0.64121752E-01</totfact>
</mgrwt>
</event>
<event>
 6    1  0.1014650E-006  0.3302932E+04  0.7818608E-02  0.8162150E-01
         -2   -1    0    0    0  501 -0.00000000000E+00  0.00000000000E+00  0.80065051399E+03  0.80065051399E+03  0.00000000000E+00 0.  1.
          2   -1    0    0  501    0  0.00000000000E+00 -0.00000000000E+00 -0.34064058820E+04  0.34064058820E+04  0.00000000000E+00 0. -1.
         23    2    1    2    0    0 -0.54721933564E+03 -0.14523103861E+04 -0.20181858924E+04  0.25475708288E+04  0.91588058756E+02 0.  0.
         11    1    3    3    0    0 -0.24778424064E+03 -0.77883925354E+03 -0.10345286883E+04  0.13184222464E+04  0.00000000000E+00 0. -1.
        -11    1    3    3    0    0 -0.29943509501E+03 -0.67347113259E+03 -0.98365720411E+03  0.12291485825E+04  0.00000000000E+00 0.  1.
         22    1    1    2    0    0  0.54721933564E+03  0.14523103861E+04 -0.58756947555E+03  0.16594855671E+04  0.00000000000E+00 0.  1.
<mgrwt>
<rscale>  0 0.33029324E+04</rscale>
<asrwt>0</asrwt>
<pdfrwt beam="1">  1        2 0.52406244E+00 0.33029324E+04</pdfrwt>
<pdfrwt beam="2">  1       -2 0.12317700E+00 0.33029324E+04</pdfrwt>
<totfact> 0.39155813E-01</totfact>
</mgrwt>
</event>
<event>
 6    1  0.1014650E-006  0.1527917E+04  0.7818608E-02  0.8866098E-01
         -1   -1    0    0    0  501 -0.00000000000E+00  0.00000000000E+00  0.96886722733E+03  0.96886722733E+03  0.00000000000E+00 0.  1.
          1   -1    0    0  501    0  0.00000000000E+00 -0.00000000000E+00 -0.60238649341E+03  0.60238649341E+03  0.00000000000E+00 0. -1.
         23    2    1    2    0    0  0.50487877095E+03 -0.23076321278E+03  0.71946379091E+03  0.91341538782E+03  0.92440740704E+02 0.  0.
         11    1    3    3    0    0  0.21536726635E+03 -0.88847929668E+02  0.23060153790E+03  0.32780189644E+03  0.00000000000E+00 0. -1.
        -11    1    3    3    0    0  0.28951150460E+03 -0.14191528312E+03  0.48886225301E+03  0.58561349139E+03  0.00000000000E+00 0.  1.
         22    1    1    2    0    0 -0.50487877095E+03  0.23076321278E+03 -0.35298305700E+03  0.65783833292E+03  0.00000000000E+00 0. -1.
<mgrwt>
<rscale>  0 0.15279169E+04</rscale>
<asrwt>0</asrwt>
<pdfrwt beam="1">  1        1 0.92674845E-01 0.15279169E+04</pdfrwt>
<pdfrwt beam="2">  1       -1 0.14905650E+00 0.15279169E+04</pdfrwt>
<totfact> 0.11664589E+01</totfact>
</mgrwt>
</event>
<event>
 6    1  0.1014650E-006  0.6736762E+03  0.7818608E-02  0.9763340E-01
         -1   -1    0    0    0  501 -0.00000000000E+00  0.00000000000E+00  0.13279917673E+03  0.13279917673E+03  0.00000000000E+00 0.  1.
          1   -1    0    0  501    0  0.00000000000E+00 -0.00000000000E+00 -0.85437194557E+03  0.85437194557E+03  0.00000000000E+00 0. -1.
         23    2    1    2    0    0 -0.36942643110E+02 -0.32907249644E+03 -0.36072730121E+03  0.49741310214E+03  0.87419343115E+02 0.  0.
         13    1    3    3    0    0  0.18603236660E+02 -0.15053939876E+03 -0.12511441171E+03  0.19662605883E+03  0.00000000000E+00 0.  1.
        -13    1    3    3    0    0 -0.55545879770E+02 -0.17853309768E+03 -0.23561288949E+03  0.30078704331E+03  0.00000000000E+00 0. -1.
         22    1    1    2    0    0  0.36942643110E+02  0.32907249644E+03 -0.36084546764E+03  0.48975802016E+03  0.00000000000E+00 0.  1.
<mgrwt>
<rscale>  0 0.67367616E+03</rscale>
<asrwt>0</asrwt>
<pdfrwt beam="1">  1        1 0.13144184E+00 0.67367616E+03</pdfrwt>
<pdfrwt beam="2">  1       -1 0.20430642E-01 0.67367616E+03</pdfrwt>
<totfact> 0.39643769E+02</totfact>
</mgrwt>
</event>
<event>
 6    1  0.1014650E-006  0.8281769E+03  0.7818608E-02  0.9520104E-01
         -1   -1    0    0    0  501 -0.00000000000E+00  0.00000000000E+00  0.16380370267E+03  0.16380370267E+03  0.00000000000E+00 0.  1.
          1   -1    0    0  501    0  0.00000000000E+00 -0.00000000000E+00 -0.10467971057E+04  0.10467971057E+04  0.00000000000E+00 0. -1.
         23    2    1    2    0    0 -0.13144715288E+03 -0.37136463708E+03 -0.28742088820E+03  0.49653031598E+03  0.93496203316E+02 0.  0.
         11    1    3    3    0    0 -0.62789148623E+02 -0.23081726847E+03 -0.12074840808E+03  0.26795385174E+03  0.00000000000E+00 0.  1.
        -11    1    3    3    0    0 -0.68658004256E+02 -0.14054736861E+03 -0.16667248013E+03  0.22857646424E+03  0.00000000000E+00 0. -1.
         22    1    1    2    0    0  0.13144715288E+03  0.37136463708E+03 -0.59557251479E+03  0.71407049235E+03  0.00000000000E+00 0.  1.
<mgrwt>
<rscale>  0 0.82817689E+03</rscale>
<asrwt>0</asrwt>
<pdfrwt beam="1">  1        1 0.16104571E+00 0.82817689E+03</pdfrwt>
<pdfrwt beam="2">  1       -1 0.25200569E-01 0.82817689E+03</pdfrwt>
<totfact> 0.19402597E+02</totfact>
</mgrwt>
</event>
<event>
 6    1  0.1014650E-006  0.1763610E+04  0.7818608E-02  0.8725894E-01
         -1   -1    0    0    0  501 -0.00000000000E+00  0.00000000000E+00  0.55206140436E+03  0.55206140436E+03  0.00000000000E+00 0.  1.
          1   -1    0    0  501    0  0.00000000000E+00 -0.00000000000E+00 -0.14085033611E+04  0.14085033611E+04  0.00000000000E+00 0. -1.
         23    2    1    2    0    0 -0.23268779698E+03 -0.36925194682E+03  0.41936822685E+03  0.61216488572E+03  0.91572520558E+02 0.  0.
         13    1    3    3    0    0 -0.23498771977E+02 -0.76289615577E+02  0.11917639994E+03  0.14344097054E+03  0.00000000000E+00 0.  1.
        -13    1    3    3    0    0 -0.20918902500E+03 -0.29296233124E+03  0.30019182692E+03  0.46872391518E+03  0.00000000000E+00 0. -1.
         22    1    1    2    0    0  0.23268779698E+03  0.36925194682E+03 -0.12758101836E+04  0.13483998797E+04  0.00000000000E+00 0. -1.
<mgrwt>
<rscale>  0 0.17636103E+04</rscale>
<asrwt>0</asrwt>
<pdfrwt beam="1">  1        1 0.21669283E+00 0.17636103E+04</pdfrwt>
<pdfrwt beam="2">  1       -1 0.84932523E-01 0.17636103E+04</pdfrwt>
<totfact> 0.98369170E+00</totfact>
</mgrwt>
</event>
<event>
 6    1  0.1014650E-006  0.1376554E+04  0.7818608E-02  0.8970967E-01
          2   -1    0    0  501    0  0.00000000000E+00  0.00000000000E+00  0.43511146003E+03  0.43511146003E+03  0.00000000000E+00 0. -1.
         -2   -1    0    0    0  501 -0.00000000000E+00 -0.00000000000E+00 -0.10887441586E+04  0.10887441586E+04  0.00000000000E+00 0.  1.
         23    2    1    2    0    0 -0.50129652086E+03 -0.81421906398E+02  0.18099452569E+03  0.54685493687E+03  0.91452583265E+02 0.  0.
         13    1    3    3    0    0 -0.31708373240E+03 -0.45121362409E+02  0.67024409652E+02  0.32721598706E+03  0.00000000000E+00 0.  1.
        -13    1    3    3    0    0 -0.18421278846E+03 -0.36300543989E+02  0.11397011603E+03  0.21963894981E+03  0.00000000000E+00 0. -1.
         22    1    1    2    0    0  0.50129652086E+03  0.81421906398E+02 -0.83462722422E+03  0.97700068172E+03  0.00000000000E+00 0.  1.
<mgrwt>
<rscale>  0 0.13765538E+04</rscale>
<asrwt>0</asrwt>
<pdfrwt beam="1">  1        2 0.66940225E-01 0.13765538E+04</pdfrwt>
<pdfrwt beam="2">  1       -2 0.16749910E+00 0.13765538E+04</pdfrwt>
<totfact> 0.15631865E+01</totfact>
</mgrwt>
</event>
<event>
 6    1  0.1014650E-006  0.1803604E+04  0.7818608E-02  0.8704385E-01
          1   -1    0    0  501    0  0.00000000000E+00  0.00000000000E+00  0.21956274001E+04  0.21956274001E+04  0.00000000000E+00 0. -1.
         -1   -1    0    0    0  501 -0.00000000000E+00 -0.00000000000E+00 -0.37039387350E+03  0.37039387350E+03  0.00000000000E+00 0.  1.
         23    2    1    2    0    0  0.64995180776E+03  0.61818755319E+03  0.81774311934E+03  0.12170846094E+04  0.89431168064E+02 0.  0.
         13    1    3    3    0    0  0.41003671042E+03  0.43740433428E+03  0.57734389735E+03  0.83233324537E+03  0.00000000000E+00 0.  1.
        -13    1    3    3    0    0  0.23991509734E+03  0.18078321891E+03  0.24039922199E+03  0.38475136401E+03  0.00000000000E+00 0. -1.
         22    1    1    2    0    0 -0.64995180776E+03 -0.61818755319E+03  0.10074904073E+04  0.13489366642E+04  0.00000000000E+00 0. -1.
<mgrwt>
<rscale>  0 0.18036041E+04</rscale>
<asrwt>0</asrwt>
<pdfrwt beam="1">  1        1 0.33778882E+00 0.18036041E+04</pdfrwt>
<pdfrwt beam="2">  1       -1 0.56983674E-01 0.18036041E+04</pdfrwt>
<totfact> 0.64541668E+00</totfact>
</mgrwt>
</event>
<event>
 6    1  0.1014650E-006  0.2398282E+04  0.7818608E-02  0.8440147E-01
          2   -1    0    0  501    0  0.00000000000E+00  0.00000000000E+00  0.17937290588E+04  0.17937290588E+04  0.00000000000E+00 0. -1.
         -2   -1    0    0    0  501 -0.00000000000E+00 -0.00000000000E+00 -0.80164779403E+03  0.80164779403E+03  0.00000000000E+00 0.  1.
         23    2    1    2    0    0 -0.49152958947E+03  0.13401964223E+03 -0.67598881822E+03  0.85123798118E+03  0.89903372719E+02 0.  0.
         13    1    3    3    0    0 -0.20507746188E+03  0.95505768913E+02 -0.25920201803E+03  0.34404040957E+03  0.00000000000E+00 0.  1.
        -13    1    3    3    0    0 -0.28645212758E+03  0.38513873313E+02 -0.41678680019E+03  0.50719757161E+03  0.00000000000E+00 0. -1.
         22    1    1    2    0    0  0.49152958947E+03 -0.13401964223E+03  0.16680700830E+04  0.17441388717E+04  0.00000000000E+00 0. -1.
<mgrwt>
<rscale>  0 0.23982818E+04</rscale>
<asrwt>0</asrwt>
<pdfrwt beam="1">  1        2 0.27595831E+00 0.23982818E+04</pdfrwt>
<pdfrwt beam="2">  1       -2 0.12333043E+00 0.23982818E+04</pdfrwt>
<totfact> 0.38799247E+00</totfact>
</mgrwt>
</event>
<event>
 6    1  0.1014650E-006  0.4317589E+04  0.7818608E-02  0.7943374E-01
         -2   -1    0    0    0  501 -0.00000000000E+00  0.00000000000E+00  0.97518049325E+03  0.97518049325E+03  0.00000000000E+00 0.  1.
          2   -1    0    0  501    0  0.00000000000E+00 -0.00000000000E+00 -0.47790063525E+04  0.47790063525E+04  0.00000000000E+00 0. -1.
         23    2    1    2    0    0  0.20941949052E+04  0.28245988483E+02 -0.25949812041E+04  0.33359735514E+04  0.91334272330E+02 0.  0.
         11    1    3    3    0    0  0.16575903774E+04  0.49278375481E+02 -0.20936312758E+04  0.26708287360E+04  0.00000000000E+00 0. -1.
        -11    1    3    3    0    0  0.43660452772E+03 -0.21032386998E+02 -0.50134992828E+03  0.66514481544E+03  0.00000000000E+00 0.  1.
         22    1    1    2    0    0 -0.20941949052E+04 -0.28245988483E+02 -0.12088446551E+04  0.24182132943E+04  0.00000000000E+00 0. -1.
<mgrwt>
<rscale>  0 0.43175890E+04</rscale>
<asrwt>0</asrwt>
<pdfrwt beam="1">  1        2 0.73523174E+00 0.43175890E+04</pdfrwt>
<pdfrwt beam="2">  1       -2 0.15002777E+00 0.43175890E+04</pdfrwt>
<totfact> 0.14313554E-02</totfact>
</mgrwt>
</event>
<event>
 6    1  0.1014650E-006  0.1080199E+04  0.7818608E-02  0.9224709E-01
         -4   -1    0    0    0  501 -0.00000000000E+00  0.00000000000E+00  0.50742374526E+03  0.50742374526E+03  0.00000000000E+00 0.  1.
          4   -1    0    0  501    0  0.00000000000E+00 -0.00000000000E+00 -0.57487990622E+03  0.57487990622E+03  0.00000000000E+00 0. -1.
         23    2    1    2    0    0  0.14692276036E+03 -0.15913627663E+03  0.45794962907E+03  0.51400628545E+03  0.87028424420E+02 0.  0.
         11    1    3    3    0    0  0.65101168236E+02 -0.81594535978E+02  0.12704288213E+03  0.16442543692E+03  0.00000000000E+00 0.  1.
        -11    1    3    3    0    0  0.81821592124E+02 -0.77541740653E+02  0.33090674694E+03  0.34958084852E+03  0.00000000000E+00 0. -1.
         22    1    1    2    0    0 -0.14692276036E+03  0.15913627663E+03 -0.52540579003E+03  0.56829736604E+03  0.00000000000E+00 0. -1.
<mgrwt>
<rscale>  0 0.10801995E+04</rscale>
<asrwt>0</asrwt>
<pdfrwt beam="1">  1        4 0.88443063E-01 0.10801995E+04</pdfrwt>
<pdfrwt beam="2">  1       -4 0.78065191E-01 0.10801995E+04</pdfrwt>
<totfact> 0.31984233E+00</totfact>
</mgrwt>
</event>
<event>
 6    1  0.1014650E-006  0.4077220E+04  0.7818608E-02  0.7989147E-01
         -2   -1    0    0    0  501 -0.00000000000E+00  0.00000000000E+00  0.21214011181E+04  0.21214011181E+04  0.00000000000E+00 0.  1.
          2   -1    0    0  501    0  0.00000000000E+00 -0.00000000000E+00 -0.19590500528E+04  0.19590500528E+04  0.00000000000E+00 0. -1.
         23    2    1    2    0    0  0.29429958840E+03 -0.15884018919E+04  0.13236428704E+04  0.20909207051E+04  0.10142055337E+03 0.  0.
         13    1    3    3    0    0  0.16148960394E+03 -0.64533635579E+03  0.58082862227E+03  0.88311935361E+03  0.00000000000E+00 0. -1.
        -13    1    3    3    0    0  0.13280998446E+03 -0.94306553612E+03  0.74281424817E+03  0.12078013515E+04  0.00000000000E+00 0.  1.
         22    1    1    2    0    0 -0.29429958840E+03  0.15884018919E+04 -0.11612918051E+04  0.19895304659E+04  0.00000000000E+00 0. -1.
<mgrwt>
<rscale>  0 0.40772201E+04</rscale>
<asrwt>0</asrwt>
<pdfrwt beam="1">  1        2 0.30139231E+00 0.40772201E+04</pdfrwt>
<pdfrwt beam="2">  1       -2 0.32636940E+00 0.40772201E+04</pdfrwt>
<totfact> 0.12068694E-01</totfact>
</mgrwt>
</event>
<event>
 6    1  0.1014650E-006  0.2832785E+04  0.7818608E-02  0.8293162E-01
         -1   -1    0    0    0  501 -0.00000000000E+00  0.00000000000E+00  0.10813557409E+04  0.10813557409E+04  0.00000000000E+00 0.  1.
          1   -1    0    0  501    0  0.00000000000E+00 -0.00000000000E+00 -0.18552335224E+04  0.18552335224E+04  0.00000000000E+00 0. -1.
         23    2    1    2    0    0 -0.58432815528E+03 -0.37552104606E+03 -0.16652195057E+04  0.18065691226E+04  0.90997492158E+02 0.  0.
         13    1    3    3    0    0 -0.33752031336E+03 -0.16698246876E+03 -0.85186017580E+03  0.93138008671E+03  0.00000000000E+00 0.  1.
        -13    1    3    3    0    0 -0.24680784191E+03 -0.20853857730E+03 -0.81335932989E+03  0.87518903591E+03  0.00000000000E+00 0. -1.
         22    1    1    2    0    0  0.58432815528E+03  0.37552104606E+03  0.89134172422E+03  0.11300201407E+04  0.00000000000E+00 0.  1.
<mgrwt>
<rscale>  0 0.28327848E+04</rscale>
<asrwt>0</asrwt>
<pdfrwt beam="1">  1        1 0.28542054E+00 0.28327848E+04</pdfrwt>
<pdfrwt beam="2">  1       -1 0.16636242E+00 0.28327848E+04</pdfrwt>
<totfact> 0.84451127E-01</totfact>
</mgrwt>
</event>
<event>
 6    1  0.1014650E-006  0.1545000E+04  0.7818608E-02  0.8855068E-01
          2   -1    0    0  501    0  0.00000000000E+00  0.00000000000E+00  0.21360068341E+04  0.21360068341E+04  0.00000000000E+00 0. -1.
         -2   -1    0    0    0  501 -0.00000000000E+00 -0.00000000000E+00 -0.27937938676E+03  0.27937938676E+03  0.00000000000E+00 0.  1.
         23    2    1    2    0    0 -0.25020927311E+03 -0.46782469172E+03  0.18036271181E+04  0.18822130244E+04  0.90501191457E+02 0.  0.
         11    1    3    3    0    0 -0.97797118394E+02 -0.99605356542E+02  0.48308972063E+03  0.50285304175E+03  0.00000000000E+00 0. -1.
        -11    1    3    3    0    0 -0.15241215471E+03 -0.36821933518E+03  0.13205373975E+04  0.13793599827E+04  0.00000000000E+00 0.  1.
         22    1    1    2    0    0  0.25020927311E+03  0.46782469172E+03  0.53000329294E+02  0.53317319648E+03  0.00000000000E+00 0.  1.
<mgrwt>
<rscale>  0 0.15450000E+04</rscale>
<asrwt>0</asrwt>
<pdfrwt beam="1">  1        2 0.32861643E+00 0.15450000E+04</pdfrwt>
<pdfrwt beam="2">  1       -2 0.42981445E-01 0.15450000E+04</pdfrwt>
<totfact> 0.27739974E+01</totfact>
</mgrwt>
</event>
<event>
 6    1  0.1014650E-006  0.2373788E+04  0.7818608E-02  0.8449383E-01
          2   -1    0    0  501    0  0.00000000000E+00  0.00000000000E+00  0.29514666377E+04  0.29514666377E+04  0.00000000000E+00 0. -1.
         -2   -1    0    0    0  501 -0.00000000000E+00 -0.00000000000E+00 -0.47729386592E+03  0.47729386592E+03  0.00000000000E+00 0.  1.
         23    2    1    2    0    0 -0.10810532752E+04 -0.16562157806E+03  0.57915718612E+03  0.12407955220E+04  0.89687178994E+02 0.  0.
         13    1    3    3    0    0 -0.68853164274E+03 -0.12972591360E+03  0.41071980272E+03  0.81215478331E+03  0.00000000000E+00 0. -1.
        -13    1    3    3    0    0 -0.39252163251E+03 -0.35895664467E+02  0.16843738340E+03  0.42864073866E+03  0.00000000000E+00 0.  1.
         22    1    1    2    0    0  0.10810532752E+04  0.16562157806E+03  0.18950155856E+04  0.21879649816E+04  0.00000000000E+00 0. -1.
<mgrwt>
<rscale>  0 0.23737876E+04</rscale>
<asrwt>0</asrwt>
<pdfrwt beam="1">  1        2 0.45407178E+00 0.23737876E+04</pdfrwt>
<pdfrwt beam="2">  1       -2 0.73429827E-01 0.23737876E+04</pdfrwt>
<totfact> 0.28167255E+00</totfact>
</mgrwt>
</event>
<event>
 6    1  0.1014650E-006  0.1984635E+04  0.7818608E-02  0.8613838E-01
          1   -1    0    0  501    0  0.00000000000E+00  0.00000000000E+00  0.20305025449E+04  0.20305025449E+04  0.00000000000E+00 0. -1.
         -1   -1    0    0    0  501 -0.00000000000E+00 -0.00000000000E+00 -0.48495072343E+03  0.48495072343E+03  0.00000000000E+00 0.  1.
         23    2    1    2    0    0 -0.67616902254E+03  0.48589736671E+03  0.95375244597E+02  0.84323530942E+03  0.92997589974E+02 0.  0.
         11    1    3    3    0    0 -0.10069522875E+03  0.10985617990E+03 -0.12972652660E+01  0.14902883027E+03  0.00000000000E+00 0. -1.
        -11    1    3    3    0    0 -0.57547379380E+03  0.37604118681E+03  0.96672509863E+02  0.69420647915E+03  0.00000000000E+00 0.  1.
         22    1    1    2    0    0  0.67616902254E+03 -0.48589736671E+03  0.14501765769E+04  0.16722179589E+04  0.00000000000E+00 0. -1.
<mgrwt>
<rscale>  0 0.19846347E+04</rscale>
<asrwt>0</asrwt>
<pdfrwt beam="1">  1        1 0.31238500E+00 0.19846347E+04</pdfrwt>
<pdfrwt beam="2">  1       -1 0.74607804E-01 0.19846347E+04</pdfrwt>
<totfact> 0.47703904E+00</totfact>
</mgrwt>
</event>
<event>
 6    1  0.1014650E-006  0.7993417E+03  0.7818608E-02  0.9560970E-01
          3   -1    0    0  501    0  0.00000000000E+00  0.00000000000E+00  0.97045431483E+03  0.97045431483E+03  0.00000000000E+00 0. -1.
         -3   -1    0    0    0  501 -0.00000000000E+00 -0.00000000000E+00 -0.16460002410E+03  0.16460002410E+03  0.00000000000E+00 0.  1.
         23    2    1    2    0    0  0.94057327634E+02 -0.73631596834E+01  0.95305322518E+03  0.96021577539E+03  0.69302873482E+02 0.  0.
         11    1    3    3    0    0  0.17153233870E+02 -0.87049400544E+01  0.52198104300E+03  0.52233535077E+03  0.00000000000E+00 0. -1.
        -11    1    3    3    0    0  0.76904093764E+02  0.13417803710E+01  0.43107218218E+03  0.43788042462E+03  0.00000000000E+00 0.  1.
         22    1    1    2    0    0 -0.94057327634E+02  0.73631596834E+01 -0.14719893444E+03  0.17483856355E+03  0.00000000000E+00 0.  1.
<mgrwt>
<rscale>  0 0.79934174E+03</rscale>
<asrwt>0</asrwt>
<pdfrwt beam="1">  1        3 0.14930066E+00 0.79934174E+03</pdfrwt>
<pdfrwt beam="2">  1       -3 0.25323081E-01 0.79934174E+03</pdfrwt>
<totfact> 0.12886740E+01</totfact>
</mgrwt>
</event>
<event>
 6    1  0.1014650E-006  0.2653805E+04  0.7818608E-02  0.8350151E-01
         -1   -1    0    0    0  501 -0.00000000000E+00  0.00000000000E+00  0.20563636248E+04  0.20563636248E+04  0.00000000000E+00 0.  1.
          1   -1    0    0  501    0  0.00000000000E+00 -0.00000000000E+00 -0.85620537441E+03  0.85620537441E+03  0.00000000000E+00 0. -1.
         23    2    1    2    0    0  0.11251862775E+04  0.52172070097E+03  0.11136515233E+04  0.16692990917E+04  0.90017183874E+02 0.  0.
         13    1    3    3    0    0  0.80601849382E+03  0.33111946674E+03  0.79959986890E+03  0.11826520469E+04  0.00000000000E+00 0.  1.
        -13    1    3    3    0    0  0.31916778373E+03  0.19060123424E+03  0.31405165435E+03  0.48664704485E+03  0.00000000000E+00 0. -1.
         22    1    1    2    0    0 -0.11251862775E+04 -0.52172070097E+03  0.86506727129E+02  0.12432699075E+04  0.00000000000E+00 0. -1.
<mgrwt>
<rscale>  0 0.26538045E+04</rscale>
<asrwt>0</asrwt>
<pdfrwt beam="1">  1        1 0.13172390E+00 0.26538045E+04</pdfrwt>
<pdfrwt beam="2">  1       -1 0.31636363E+00 0.26538045E+04</pdfrwt>
<totfact> 0.44840852E-01</totfact>
</mgrwt>
</event>
<event>
 6    1  0.1014650E-006  0.1178537E+04  0.7818608E-02  0.9131853E-01
          2   -1    0    0  501    0  0.00000000000E+00  0.00000000000E+00  0.89177059091E+03  0.89177059091E+03  0.00000000000E+00 0. -1.
         -2   -1    0    0    0  501 -0.00000000000E+00 -0.00000000000E+00 -0.38937995099E+03  0.38937995099E+03  0.00000000000E+00 0.  1.
         23    2    1    2    0    0  0.48130983823E+03  0.29503724191E+03  0.42286047409E+03  0.71103548179E+03  0.89745982206E+02 0.  0.
         13    1    3    3    0    0  0.10355815750E+03  0.10156017781E+03  0.81519149477E+02  0.16638549646E+03  0.00000000000E+00 0.  1.
        -13    1    3    3    0    0  0.37775168073E+03  0.19347706410E+03  0.34134132461E+03  0.54464998533E+03  0.00000000000E+00 0. -1.
         22    1    1    2    0    0 -0.48130983823E+03 -0.29503724191E+03  0.79530165826E+02  0.57011506011E+03  0.00000000000E+00 0.  1.
<mgrwt>
<rscale>  0 0.11785374E+04</rscale>
<asrwt>0</asrwt>
<pdfrwt beam="1">  1        2 0.13719548E+00 0.11785374E+04</pdfrwt>
<pdfrwt beam="2">  1       -2 0.59904608E-01 0.11785374E+04</pdfrwt>
<totfact> 0.76283121E+01</totfact>
</mgrwt>
</event>
<event>
 6    1  0.1202526E-006  0.2798543E+04  0.7818608E-02  0.8303721E-01
          1   -1    0    0  501    0  0.00000000000E+00  0.00000000000E+00  0.24622240908E+04  0.24622240908E+04  0.00000000000E+00 0. -1.
         -1   -1    0    0    0  501 -0.00000000000E+00 -0.00000000000E+00 -0.79520007594E+03  0.79520007594E+03  0.00000000000E+00 0.  1.
         23    2    1    2    0    0  0.32227381126E+03 -0.84456172684E+01  0.24176259507E+04  0.24405184170E+04  0.85341482307E+02 0.  0.
         11    1    3    3    0    0  0.67797230694E+02  0.10340899893E+02  0.79486031138E+03  0.79781345771E+03  0.00000000000E+00 0.  1.
        -11    1    3    3    0    0  0.25447658057E+03 -0.18786517161E+02  0.16227656393E+04  0.16427049593E+04  0.00000000000E+00 0. -1.
         22    1    1    2    0    0 -0.32227381126E+03  0.84456172684E+01 -0.75060193581E+03  0.81690574972E+03  0.00000000000E+00 0.  1.
<mgrwt>
<rscale>  0 0.27985430E+04</rscale>
<asrwt>0</asrwt>
<pdfrwt beam="1">  1        1 0.37880370E+00 0.27985430E+04</pdfrwt>
<pdfrwt beam="2">  1       -1 0.12233847E+00 0.27985430E+04</pdfrwt>
<totfact> 0.73520234E-01</totfact>
</mgrwt>
</event>
<event>
 6    1  0.1014650E-006  0.1599223E+04  0.7818608E-02  0.8821026E-01
         -1   -1    0    0    0  501 -0.00000000000E+00  0.00000000000E+00  0.19476768624E+03  0.19476768624E+03  0.00000000000E+00 0.  1.
          1   -1    0    0  501    0  0.00000000000E+00 -0.00000000000E+00 -0.32827741185E+04  0.32827741185E+04  0.00000000000E+00 0. -1.
         23    2    1    2    0    0 -0.22808368672E+03 -0.38046589616E+02 -0.32075606157E+04  0.32172286973E+04  0.92982128662E+02 0.  0.
         11    1    3    3    0    0 -0.11343564941E+03 -0.58017242191E+02 -0.20072999537E+04  0.20113395415E+04  0.00000000000E+00 0.  1.
        -11    1    3    3    0    0 -0.11464803731E+03  0.19970652576E+02 -0.12002606620E+04  0.12058891558E+04  0.00000000000E+00 0. -1.
         22    1    1    2    0    0  0.22808368672E+03  0.38046589616E+02  0.11955418344E+03  0.26031310744E+03  0.00000000000E+00 0.  1.
<mgrwt>
<rscale>  0 0.15992227E+04</rscale>
<asrwt>0</asrwt>
<pdfrwt beam="1">  1        1 0.50504216E+00 0.15992227E+04</pdfrwt>
<pdfrwt beam="2">  1       -1 0.29964260E-01 0.15992227E+04</pdfrwt>
<totfact> 0.36385040E+00</totfact>
</mgrwt>
</event>
<event>
 6    1  0.1014650E-006  0.1048139E+04  0.7818608E-02  0.9257267E-01
          1   -1    0    0  501    0  0.00000000000E+00  0.00000000000E+00  0.16976987515E+04  0.16976987515E+04  0.00000000000E+00 0. -1.
         -1   -1    0    0    0  501 -0.00000000000E+00 -0.00000000000E+00 -0.16177722432E+03  0.16177722432E+03  0.00000000000E+00 0.  1.
         23    2    1    2    0    0 -0.13292977067E+03 -0.23605600717E+03 -0.14981098773E+02  0.28508983589E+03  0.87515820036E+02 0.  0.
         13    1    3    3    0    0 -0.54917217493E+02 -0.46198548451E+02  0.24956027118E+02  0.75980326043E+02  0.00000000000E+00 0. -1.
        -13    1    3    3    0    0 -0.78012553177E+02 -0.18985745871E+03 -0.39937125891E+02  0.20910950984E+03  0.00000000000E+00 0.  1.
         22    1    1    2    0    0  0.13292977067E+03  0.23605600717E+03  0.15509026260E+04  0.15743861400E+04  0.00000000000E+00 0. -1.
<mgrwt>
<rscale>  0 0.10481393E+04</rscale>
<asrwt>0</asrwt>
<pdfrwt beam="1">  1        1 0.26118441E+00 0.10481393E+04</pdfrwt>
<pdfrwt beam="2">  1       -1 0.24888805E-01 0.10481393E+04</pdfrwt>
<totfact> 0.67563401E+01</totfact>
</mgrwt>
</event>
<event>
 6    1  0.1014650E-006  0.2230790E+04  0.7818608E-02  0.8505721E-01
          1   -1    0    0  501    0  0.00000000000E+00  0.00000000000E+00  0.25554842572E+04  0.25554842572E+04  0.00000000000E+00 0. -1.
         -1   -1    0    0    0  501 -0.00000000000E+00 -0.00000000000E+00 -0.48683772219E+03  0.48683772219E+03  0.00000000000E+00 0.  1.
         23    2    1    2    0    0  0.84791434034E+03 -0.33334271369E+03  0.19090120645E+04  0.21173575165E+04  0.93806701442E+02 0.  0.
         11    1    3    3    0    0  0.21221532754E+03 -0.12487497230E+03  0.47848356798E+03  0.53812231767E+03  0.00000000000E+00 0.  1.
        -11    1    3    3    0    0  0.63569901279E+03 -0.20846774139E+03  0.14305284965E+04  0.15792351989E+04  0.00000000000E+00 0. -1.
         22    1    1    2    0    0 -0.84791434034E+03  0.33334271369E+03  0.15963447053E+03  0.92496446283E+03  0.00000000000E+00 0.  1.
<mgrwt>
<rscale>  0 0.22307901E+04</rscale>
<asrwt>0</asrwt>
<pdfrwt beam="1">  1        1 0.39315142E+00 0.22307901E+04</pdfrwt>
<pdfrwt beam="2">  1       -1 0.74898113E-01 0.22307901E+04</pdfrwt>
<totfact> 0.20208933E+00</totfact>
</mgrwt>
</event>
<event>
 6    1  0.1014650E-006  0.1789316E+04  0.7818608E-02  0.8712002E-01
          2   -1    0    0  501    0  0.00000000000E+00  0.00000000000E+00  0.86845209501E+03  0.86845209501E+03  0.00000000000E+00 0. -1.
         -2   -1    0    0    0  501 -0.00000000000E+00 -0.00000000000E+00 -0.92165460258E+03  0.92165460258E+03  0.00000000000E+00 0.  1.
         23    2    1    2    0    0 -0.34436079357E+03 -0.57468196335E+03  0.56296847264E+03  0.87988123541E+03  0.91726616118E+02 0.  0.
         11    1    3    3    0    0 -0.22156429369E+03 -0.29140176524E+03  0.27720146869E+03  0.45918011636E+03  0.00000000000E+00 0.  1.
        -11    1    3    3    0    0 -0.12279649989E+03 -0.28328019811E+03  0.28576700395E+03  0.42070111905E+03  0.00000000000E+00 0. -1.
         22    1    1    2    0    0  0.34436079357E+03  0.57468196335E+03 -0.61617098020E+03  0.91022546218E+03  0.00000000000E+00 0.  1.
<mgrwt>
<rscale>  0 0.17893159E+04</rscale>
<asrwt>0</asrwt>
<pdfrwt beam="1">  1        2 0.13360801E+00 0.17893159E+04</pdfrwt>
<pdfrwt beam="2">  1       -2 0.14179302E+00 0.17893159E+04</pdfrwt>
<totfact> 0.10114207E+01</totfact>
</mgrwt>
</event>
<event>
 6    1  0.1014650E-006  0.1986535E+04  0.7818608E-02  0.8612942E-01
         -2   -1    0    0    0  501 -0.00000000000E+00  0.00000000000E+00  0.69092397782E+03  0.69092397782E+03  0.00000000000E+00 0.  1.
          2   -1    0    0  501    0  0.00000000000E+00 -0.00000000000E+00 -0.14279140311E+04  0.14279140311E+04  0.00000000000E+00 0. -1.
         23    2    1    2    0    0  0.45668812754E+03  0.67191794174E+03 -0.97486341572E+03  0.12723030109E+04  0.91424865127E+02 0.  0.
         11    1    3    3    0    0  0.37594710415E+03  0.49626509510E+03 -0.77719034189E+03  0.99581127592E+03  0.00000000000E+00 0.  1.
        -11    1    3    3    0    0  0.80741023395E+02  0.17565284664E+03 -0.19767307383E+03  0.27649173498E+03  0.00000000000E+00 0. -1.
         22    1    1    2    0    0 -0.45668812754E+03 -0.67191794174E+03  0.23787336246E+03  0.84653499800E+03  0.00000000000E+00 0.  1.
<mgrwt>
<rscale>  0 0.19865347E+04</rscale>
<asrwt>0</asrwt>
<pdfrwt beam="1">  1        2 0.21967908E+00 0.19865347E+04</pdfrwt>
<pdfrwt beam="2">  1       -2 0.10629600E+00 0.19865347E+04</pdfrwt>
<totfact> 0.92603624E+00</totfact>
</mgrwt>
</event>
<event>
 6    1  0.1014650E-006  0.3041726E+04  0.7818608E-02  0.8231915E-01
         -1   -1    0    0    0  501 -0.00000000000E+00  0.00000000000E+00  0.11176951087E+04  0.11176951087E+04  0.00000000000E+00 0.  1.
          1   -1    0    0  501    0  0.00000000000E+00 -0.00000000000E+00 -0.20694594901E+04  0.20694594901E+04  0.00000000000E+00 0. -1.
         23    2    1    2    0    0  0.21659003598E+03  0.45028704216E+03 -0.19797678982E+04  0.20441493955E+04  0.96933772672E+02 0.  0.
         13    1    3    3    0    0  0.54657073545E+02  0.22267396822E+03 -0.93099857279E+03  0.95881668443E+03  0.00000000000E+00 0.  1.
        -13    1    3    3    0    0  0.16193296243E+03  0.22761307394E+03 -0.10487693254E+04  0.10853327111E+04  0.00000000000E+00 0. -1.
         22    1    1    2    0    0 -0.21659003598E+03 -0.45028704216E+03  0.10280035169E+04  0.11430052033E+04  0.00000000000E+00 0.  1.
<mgrwt>
<rscale>  0 0.30417263E+04</rscale>
<asrwt>0</asrwt>
<pdfrwt beam="1">  1        1 0.31837838E+00 0.30417263E+04</pdfrwt>
<pdfrwt beam="2">  1       -1 0.17195310E+00 0.30417263E+04</pdfrwt>
<totfact> 0.53968974E-01</totfact>
</mgrwt>
</event>
<event>
 6    1  0.1014650E-006  0.1997580E+04  0.7818608E-02  0.8607753E-01
         -2   -1    0    0    0  501 -0.00000000000E+00  0.00000000000E+00  0.47371651106E+03  0.47371651106E+03  0.00000000000E+00 0.  1.
          2   -1    0    0  501    0  0.00000000000E+00 -0.00000000000E+00 -0.21058610155E+04  0.21058610155E+04  0.00000000000E+00 0. -1.
         23    2    1    2    0    0  0.16660942577E+01 -0.68121834207E+03  0.12156579510E+03  0.69820541553E+03  0.93012656642E+02 0.  0.
         13    1    3    3    0    0 -0.25227507258E+02 -0.56499686485E+03  0.12354469365E+03  0.57889651558E+03  0.00000000000E+00 0.  1.
        -13    1    3    3    0    0  0.26893601516E+02 -0.11622147722E+03 -0.19788985530E+01  0.11930889995E+03  0.00000000000E+00 0. -1.
         22    1    1    2    0    0 -0.16660942577E+01  0.68121834207E+03 -0.17537102995E+04  0.18813721110E+04  0.00000000000E+00 0. -1.
<mgrwt>
<rscale>  0 0.19975797E+04</rscale>
<asrwt>0</asrwt>
<pdfrwt beam="1">  1        2 0.32397862E+00 0.19975797E+04</pdfrwt>
<pdfrwt beam="2">  1       -2 0.72879462E-01 0.19975797E+04</pdfrwt>
<totfact> 0.92196930E+00</totfact>
</mgrwt>
</event>
<event>
 6    1  0.1014650E-006  0.2779457E+04  0.7818608E-02  0.8309675E-01
          1   -1    0    0  501    0  0.00000000000E+00  0.00000000000E+00  0.13321927017E+04  0.13321927017E+04  0.00000000000E+00 0. -1.
         -1   -1    0    0    0  501 -0.00000000000E+00 -0.00000000000E+00 -0.14497494301E+04  0.14497494301E+04  0.00000000000E+00 0.  1.
         23    2    1    2    0    0 -0.11908898554E+04 -0.66264501404E+03  0.20629265643E+03  0.13811582490E+04  0.87888488478E+02 0.  0.
         13    1    3    3    0    0 -0.49057234201E+03 -0.24818270587E+03  0.12094076375E+03  0.56292321552E+03  0.00000000000E+00 0.  1.
        -13    1    3    3    0    0 -0.70031751339E+03 -0.41446230817E+03  0.85351892679E+02  0.81823503349E+03  0.00000000000E+00 0. -1.
         22    1    1    2    0    0  0.11908898554E+04  0.66264501404E+03 -0.32384938483E+03  0.14007838828E+04  0.00000000000E+00 0.  1.
<mgrwt>
<rscale>  0 0.27794572E+04</rscale>
<asrwt>0</asrwt>
<pdfrwt beam="1">  1        1 0.20495272E+00 0.27794572E+04</pdfrwt>
<pdfrwt beam="2">  1       -1 0.22303837E+00 0.27794572E+04</pdfrwt>
<totfact> 0.78140970E-01</totfact>
</mgrwt>
</event>
<event>
 6    1  0.1014650E-006  0.2009140E+04  0.7818608E-02  0.8602359E-01
          1   -1    0    0  501    0  0.00000000000E+00  0.00000000000E+00  0.19747931117E+04  0.19747931117E+04  0.00000000000E+00 0. -1.
         -1   -1    0    0    0  501 -0.00000000000E+00 -0.00000000000E+00 -0.51102131031E+03  0.51102131031E+03  0.00000000000E+00 0.  1.
         23    2    1    2    0    0  0.35097588054E+03  0.93831450571E+03  0.78408915991E+03  0.12752002500E+04  0.87873127988E+02 0.  0.
         13    1    3    3    0    0  0.45717314971E+02  0.58112694746E+02  0.53462769967E+02  0.91243772124E+02  0.00000000000E+00 0. -1.
        -13    1    3    3    0    0  0.30525856557E+03  0.88020181096E+03  0.73062638995E+03  0.11839564779E+04  0.00000000000E+00 0.  1.
         22    1    1    2    0    0 -0.35097588054E+03 -0.93831450571E+03  0.67968264152E+03  0.12106141720E+04  0.00000000000E+00 0. -1.
<mgrwt>
<rscale>  0 0.20091405E+04</rscale>
<asrwt>0</asrwt>
<pdfrwt beam="1">  1        1 0.30381432E+00 0.20091405E+04</pdfrwt>
<pdfrwt beam="2">  1       -1 0.78618664E-01 0.20091405E+04</pdfrwt>
<totfact> 0.46507529E+00</totfact>
</mgrwt>
</event>
<event>
 6    1  0.1014650E-006  0.9807255E+03  0.7818608E-02  0.9329941E-01
          1   -1    0    0  501    0  0.00000000000E+00  0.00000000000E+00  0.19539744699E+04  0.19539744699E+04  0.00000000000E+00 0. -1.
         -1   -1    0    0    0  501 -0.00000000000E+00 -0.00000000000E+00 -0.12305975893E+03  0.12305975893E+03  0.00000000000E+00 0.  1.
         23    2    1    2    0    0 -0.23731454783E+03 -0.21705433515E+03  0.16954699186E+04  0.17280699459E+04  0.90425182967E+02 0.  0.
         13    1    3    3    0    0 -0.54232135497E+02 -0.78785776468E+02  0.33485256380E+03  0.34824497495E+03  0.00000000000E+00 0.  1.
        -13    1    3    3    0    0 -0.18308241233E+03 -0.13826855868E+03  0.13606173548E+04  0.13798249709E+04  0.00000000000E+00 0. -1.
         22    1    1    2    0    0  0.23731454783E+03  0.21705433515E+03  0.13544479230E+03  0.34896428296E+03  0.00000000000E+00 0.  1.
<mgrwt>
<rscale>  0 0.98072550E+03</rscale>
<asrwt>0</asrwt>
<pdfrwt beam="1">  1        1 0.30061143E+00 0.98072550E+03</pdfrwt>
<pdfrwt beam="2">  1       -1 0.18932272E-01 0.98072550E+03</pdfrwt>
<totfact> 0.72396652E+01</totfact>
</mgrwt>
</event>
<event>
 6    1  0.1014650E-006  0.2733527E+04  0.7818608E-02  0.8324208E-01
          2   -1    0    0  501    0  0.00000000000E+00  0.00000000000E+00  0.23422739556E+04  0.23422739556E+04  0.00000000000E+00 0. -1.
         -2   -1    0    0    0  501 -0.00000000000E+00 -0.00000000000E+00 -0.79753347818E+03  0.79753347818E+03  0.00000000000E+00 0.  1.
         23    2    1    2    0    0  0.10450549251E+04 -0.71187140657E+03  0.18220594663E+03  0.12809365282E+04  0.93266748846E+02 0.  0.
         13    1    3    3    0    0  0.41755850129E+03 -0.28050965001E+03  0.26577130380E+02  0.50373317303E+03  0.00000000000E+00 0. -1.
        -13    1    3    3    0    0  0.62749642378E+03 -0.43136175656E+03  0.15562881625E+03  0.77720335520E+03  0.00000000000E+00 0.  1.
         22    1    1    2    0    0 -0.10450549251E+04  0.71187140657E+03  0.13625345308E+04  0.18588709055E+04  0.00000000000E+00 0. -1.
<mgrwt>
<rscale>  0 0.27335266E+04</rscale>
<asrwt>0</asrwt>
<pdfrwt beam="1">  1        2 0.36034984E+00 0.27335266E+04</pdfrwt>
<pdfrwt beam="2">  1       -2 0.12269746E+00 0.27335266E+04</pdfrwt>
<totfact> 0.18849437E+00</totfact>
</mgrwt>
</event>
<event>
 6    1  0.1014650E-006  0.2767838E+04  0.7818608E-02  0.8313323E-01
         -1   -1    0    0    0  501 -0.00000000000E+00  0.00000000000E+00  0.63705785410E+03  0.63705785410E+03  0.00000000000E+00 0.  1.
          1   -1    0    0  501    0  0.00000000000E+00 -0.00000000000E+00 -0.30063710496E+04  0.30063710496E+04  0.00000000000E+00 0. -1.
         23    2    1    2    0    0 -0.10661027789E+04 -0.11277459684E+03 -0.37111716984E+02  0.10766299281E+04  0.91986291012E+02 0.  0.
         13    1    3    3    0    0 -0.58509766758E+03 -0.88020787636E+02 -0.58128609800E+02  0.59452996135E+03  0.00000000000E+00 0.  1.
        -13    1    3    3    0    0 -0.48100511128E+03 -0.24753809199E+02  0.21016892816E+02  0.48209996674E+03  0.00000000000E+00 0. -1.
         22    1    1    2    0    0  0.10661027789E+04  0.11277459684E+03 -0.23322014786E+04  0.25667989756E+04  0.00000000000E+00 0. -1.
<mgrwt>
<rscale>  0 0.27678384E+04</rscale>
<asrwt>0</asrwt>
<pdfrwt beam="1">  1        1 0.46251861E+00 0.27678384E+04</pdfrwt>
<pdfrwt beam="2">  1       -1 0.98008903E-01 0.27678384E+04</pdfrwt>
<totfact> 0.51199887E-01</totfact>
</mgrwt>
</event>
<event>
 6    1  0.1014650E-006  0.2650162E+04  0.7818608E-02  0.8351359E-01
          1   -1    0    0  501    0  0.00000000000E+00  0.00000000000E+00  0.25284419094E+04  0.25284419094E+04  0.00000000000E+00 0. -1.
         -1   -1    0    0    0  501 -0.00000000000E+00 -0.00000000000E+00 -0.69443531798E+03  0.69443531798E+03  0.00000000000E+00 0.  1.
         23    2    1    2    0    0 -0.82440919082E+03  0.74868240234E+03  0.48042413511E+02  0.11181577928E+04  0.88277532011E+02 0.  0.
         11    1    3    3    0    0 -0.72163538121E+03  0.62409977313E+03  0.61771400688E+02  0.95607209779E+03  0.00000000000E+00 0. -1.
        -11    1    3    3    0    0 -0.10277380962E+03  0.12458262921E+03 -0.13728987177E+02  0.16208569503E+03  0.00000000000E+00 0.  1.
         22    1    1    2    0    0  0.82440919082E+03 -0.74868240234E+03  0.17859641779E+04  0.21047194346E+04  0.00000000000E+00 0. -1.
<mgrwt>
<rscale>  0 0.26501618E+04</rscale>
<asrwt>0</asrwt>
<pdfrwt beam="1">  1        1 0.38899106E+00 0.26501618E+04</pdfrwt>
<pdfrwt beam="2">  1       -1 0.10683620E+00 0.26501618E+04</pdfrwt>
<totfact> 0.92759344E-01</totfact>
</mgrwt>
</event>
<event>
 6    1  0.1014650E-006  0.4110517E+04  0.7818608E-02  0.7982615E-01
         -2   -1    0    0    0  501 -0.00000000000E+00  0.00000000000E+00  0.14402909892E+04  0.14402909892E+04  0.00000000000E+00 0.  1.
          2   -1    0    0  501    0  0.00000000000E+00 -0.00000000000E+00 -0.29328011737E+04  0.29328011737E+04  0.00000000000E+00 0. -1.
         23    2    1    2    0    0 -0.15026734649E+04  0.12672249011E+04 -0.13813543364E+04  0.24042747222E+04  0.92253156384E+02 0.  0.
         11    1    3    3    0    0 -0.70839143638E+03  0.57949207796E+03 -0.69687108222E+03  0.11503298661E+04  0.00000000000E+00 0. -1.
        -11    1    3    3    0    0 -0.79428202853E+03  0.68773282317E+03 -0.68448325422E+03  0.12539448561E+04  0.00000000000E+00 0.  1.
         22    1    1    2    0    0  0.15026734649E+04 -0.12672249011E+04 -0.11115584805E+03  0.19688174407E+04  0.00000000000E+00 0.  1.
<mgrwt>
<rscale>  0 0.41105168E+04</rscale>
<asrwt>0</asrwt>
<pdfrwt beam="1">  1        2 0.45120017E+00 0.41105168E+04</pdfrwt>
<pdfrwt beam="2">  1       -2 0.22158323E+00 0.41105168E+04</pdfrwt>
<totfact> 0.14473024E-01</totfact>
</mgrwt>
</event>
<event>
 6    1  0.1014650E-006  0.2187847E+04  0.7818608E-02  0.8523503E-01
         -2   -1    0    0    0  501 -0.00000000000E+00  0.00000000000E+00  0.21013903538E+04  0.21013903538E+04  0.00000000000E+00 0.  1.
          2   -1    0    0  501    0  0.00000000000E+00 -0.00000000000E+00 -0.56946525592E+03  0.56946525592E+03  0.00000000000E+00 0. -1.
         23    2    1    2    0    0  0.27529656823E+03  0.80042412187E+03 -0.75071628708E+02  0.85456668596E+03  0.90451622250E+02 0.  0.
         11    1    3    3    0    0  0.14129725548E+03  0.54128911808E+03 -0.55708699673E+02  0.56219416839E+03  0.00000000000E+00 0.  1.
        -11    1    3    3    0    0  0.13399931276E+03  0.25913500379E+03 -0.19362929035E+02  0.29237251757E+03  0.00000000000E+00 0. -1.
         22    1    1    2    0    0 -0.27529656823E+03 -0.80042412187E+03  0.16069967266E+04  0.18162889238E+04  0.00000000000E+00 0.  1.
<mgrwt>
<rscale>  0 0.21878472E+04</rscale>
<asrwt>0</asrwt>
<pdfrwt beam="1">  1        2 0.87610041E-01 0.21878472E+04</pdfrwt>
<pdfrwt beam="2">  1       -2 0.32329082E+00 0.21878472E+04</pdfrwt>
<totfact> 0.11052200E+00</totfact>
</mgrwt>
</event>
<event>
 6    1  0.1014650E-006  0.5561143E+04  0.7818608E-02  0.7747331E-01
          2   -1    0    0  501    0  0.00000000000E+00  0.00000000000E+00  0.29504963298E+04  0.29504963298E+04  0.00000000000E+00 0. -1.
         -2   -1    0    0    0  501 -0.00000000000E+00 -0.00000000000E+00 -0.26204330625E+04  0.26204330625E+04  0.00000000000E+00 0.  1.
         23    2    1    2    0    0 -0.20888726328E+04  0.14462840719E+04 -0.96473149385E+03  0.27193298471E+04  0.94453529455E+02 0.  0.
         11    1    3    3    0    0 -0.11281133640E+04  0.83787619143E+03 -0.53855320841E+03  0.15048972831E+04  0.00000000000E+00 0. -1.
        -11    1    3    3    0    0 -0.96075926874E+03  0.60840788050E+03 -0.42617828544E+03  0.12144325640E+04  0.00000000000E+00 0.  1.
         22    1    1    2    0    0  0.20888726328E+04 -0.14462840719E+04  0.12947947611E+04  0.28515995452E+04  0.00000000000E+00 0. -1.
<mgrwt>
<rscale>  0 0.55611431E+04</rscale>
<asrwt>0</asrwt>
<pdfrwt beam="1">  1        2 0.45392251E+00 0.55611431E+04</pdfrwt>
<pdfrwt beam="2">  1       -2 0.40314355E+00 0.55611431E+04</pdfrwt>
<totfact> 0.92245948E-03</totfact>
</mgrwt>
</event>
<event>
 6    1  0.1014650E-006  0.4525979E+04  0.7818608E-02  0.7906104E-01
         -2   -1    0    0    0  501 -0.00000000000E+00  0.00000000000E+00  0.14188198781E+04  0.14188198781E+04  0.00000000000E+00 0.  1.
          2   -1    0    0  501    0  0.00000000000E+00 -0.00000000000E+00 -0.36094227846E+04  0.36094227846E+04  0.00000000000E+00 0. -1.
         23    2    1    2    0    0  0.21630642205E+04 -0.58839128087E+02 -0.36330917600E+03  0.21960507126E+04  0.91303396952E+02 0.  0.
         11    1    3    3    0    0  0.32457494473E+03  0.91175104650E+01 -0.27042392181E+02  0.32582712398E+03  0.00000000000E+00 0.  1.
        -11    1    3    3    0    0  0.18384892757E+04 -0.67956638552E+02 -0.33626678382E+03  0.18702235887E+04  0.00000000000E+00 0. -1.
         22    1    1    2    0    0 -0.21630642205E+04  0.58839128087E+02 -0.18272937305E+04  0.28321919501E+04  0.00000000000E+00 0. -1.
<mgrwt>
<rscale>  0 0.45259787E+04</rscale>
<asrwt>0</asrwt>
<pdfrwt beam="1">  1        2 0.55529582E+00 0.45259787E+04</pdfrwt>
<pdfrwt beam="2">  1       -2 0.21827998E+00 0.45259787E+04</pdfrwt>
<totfact> 0.51966423E-02</totfact>
</mgrwt>
</event>
<event>
 6    1  0.1014650E-006  0.2757104E+04  0.7818608E-02  0.8316711E-01
         -2   -1    0    0    0  501 -0.00000000000E+00  0.00000000000E+00  0.71443948490E+03  0.71443948490E+03  0.00000000000E+00 0.  1.
          2   -1    0    0  501    0  0.00000000000E+00 -0.00000000000E+00 -0.26599961874E+04  0.26599961874E+04  0.00000000000E+00 0. -1.
         23    2    1    2    0    0  0.96755712590E+03 -0.26869030333E+03 -0.21271525475E+04  0.23539758142E+04  0.89793666202E+02 0.  0.
         13    1    3    3    0    0  0.62218083699E+03 -0.13285577985E+03 -0.13894342228E+04  0.15281646219E+04  0.00000000000E+00 0.  1.
        -13    1    3    3    0    0  0.34537628891E+03 -0.13583452348E+03 -0.73771832475E+03  0.82581119233E+03  0.00000000000E+00 0. -1.
         22    1    1    2    0    0 -0.96755712590E+03  0.26869030333E+03  0.18159584505E+03  0.10204598581E+04  0.00000000000E+00 0.  1.
<mgrwt>
<rscale>  0 0.27571045E+04</rscale>
<asrwt>0</asrwt>
<pdfrwt beam="1">  1        2 0.40923018E+00 0.27571045E+04</pdfrwt>
<pdfrwt beam="2">  1       -2 0.10991377E+00 0.27571045E+04</pdfrwt>
<totfact> 0.16118133E+00</totfact>
</mgrwt>
</event>
<event>
 6    1  0.1014650E-006  0.3545963E+04  0.7818608E-02  0.8102983E-01
         -2   -1    0    0    0  501 -0.00000000000E+00  0.00000000000E+00  0.14947231538E+04  0.14947231538E+04  0.00000000000E+00 0.  1.
          2   -1    0    0  501    0  0.00000000000E+00 -0.00000000000E+00 -0.21030403340E+04  0.21030403340E+04  0.00000000000E+00 0. -1.
         23    2    1    2    0    0 -0.15570421728E+04 -0.37411207097E+03 -0.10736063554E+04  0.19301801507E+04  0.92868929378E+02 0.  0.
         13    1    3    3    0    0 -0.12801395778E+04 -0.33812951567E+03 -0.90901851645E+03  0.16060521695E+04  0.00000000000E+00 0. -1.
        -13    1    3    3    0    0 -0.27690259505E+03 -0.35982555300E+02 -0.16458783896E+03  0.32412798115E+03  0.00000000000E+00 0.  1.
         22    1    1    2    0    0  0.15570421728E+04  0.37411207097E+03  0.46528917517E+03  0.16675833371E+04  0.00000000000E+00 0. -1.
<mgrwt>
<rscale>  0 0.35459628E+04</rscale>
<asrwt>0</asrwt>
<pdfrwt beam="1">  1        2 0.32354467E+00 0.35459628E+04</pdfrwt>
<pdfrwt beam="2">  1       -2 0.22995741E+00 0.35459628E+04</pdfrwt>
<totfact> 0.40993515E-01</totfact>
</mgrwt>
</event>
<event>
 6    1  0.1014650E-006  0.1503078E+04  0.7818608E-02  0.8882408E-01
         -2   -1    0    0    0  501 -0.00000000000E+00  0.00000000000E+00  0.22137783043E+03  0.22137783043E+03  0.00000000000E+00 0.  1.
          2   -1    0    0  501    0  0.00000000000E+00 -0.00000000000E+00 -0.25513443837E+04  0.25513443837E+04  0.00000000000E+00 0. -1.
         23    2    1    2    0    0 -0.36965155444E+03 -0.63491488158E+03 -0.90159679465E+03  0.11664845773E+04  0.89723522270E+02 0.  0.
         11    1    3    3    0    0 -0.20501587038E+03 -0.38287782424E+03 -0.59657649434E+03  0.73792306442E+03  0.00000000000E+00 0. -1.
        -11    1    3    3    0    0 -0.16463568406E+03 -0.25203705734E+03 -0.30502030031E+03  0.42856151290E+03  0.00000000000E+00 0.  1.
         22    1    1    2    0    0  0.36965155444E+03  0.63491488158E+03 -0.14283697586E+04  0.16062376368E+04  0.00000000000E+00 0. -1.
<mgrwt>
<rscale>  0 0.15030783E+04</rscale>
<asrwt>0</asrwt>
<pdfrwt beam="1">  1        2 0.39251453E+00 0.15030783E+04</pdfrwt>
<pdfrwt beam="2">  1       -2 0.34058127E-01 0.15030783E+04</pdfrwt>
<totfact> 0.25414490E+01</totfact>
</mgrwt>
</event>
<event>
 6    1  0.1014650E-006  0.1255247E+04  0.7818608E-02  0.9065827E-01
         -2   -1    0    0    0  501 -0.00000000000E+00  0.00000000000E+00  0.25794880981E+03  0.25794880981E+03  0.00000000000E+00 0.  1.
          2   -1    0    0  501    0  0.00000000000E+00 -0.00000000000E+00 -0.15270919286E+04  0.15270919286E+04  0.00000000000E+00 0. -1.
         23    2    1    2    0    0  0.25071596309E+03 -0.49095520241E+03 -0.10525258897E+04  0.11927413809E+04  0.10452630529E+03 0.  0.
         13    1    3    3    0    0  0.29631938894E+02 -0.16236395695E+03 -0.30914080965E+03  0.35043993282E+03  0.00000000000E+00 0.  1.
        -13    1    3    3    0    0  0.22108402420E+03 -0.32859124546E+03 -0.74338508000E+03  0.84230144813E+03  0.00000000000E+00 0. -1.
         22    1    1    2    0    0 -0.25071596309E+03  0.49095520241E+03 -0.21661722916E+03  0.59229935750E+03  0.00000000000E+00 0.  1.
<mgrwt>
<rscale>  0 0.12552475E+04</rscale>
<asrwt>0</asrwt>
<pdfrwt beam="1">  1        2 0.23493722E+00 0.12552475E+04</pdfrwt>
<pdfrwt beam="2">  1       -2 0.39684432E-01 0.12552475E+04</pdfrwt>
<totfact> 0.72338473E+01</totfact>
</mgrwt>
</event>
<event>
 6    1  0.1014650E-006  0.3064271E+04  0.7818608E-02  0.8225612E-01
          2   -1    0    0  501    0  0.00000000000E+00  0.00000000000E+00  0.36537226271E+04  0.36537226271E+04  0.00000000000E+00 0. -1.
         -2   -1    0    0    0  501 -0.00000000000E+00 -0.00000000000E+00 -0.64247896249E+03  0.64247896249E+03  0.00000000000E+00 0.  1.
         23    2    1    2    0    0 -0.12662593783E+04  0.62166607709E+03  0.23403339708E+04  0.27341512249E+04  0.92402926257E+02 0.  0.
         11    1    3    3    0    0 -0.98012066757E+03  0.46802856230E+03  0.17274296109E+04  0.20405147190E+04  0.00000000000E+00 0. -1.
        -11    1    3    3    0    0 -0.28613871078E+03  0.15363751479E+03  0.61290435997E+03  0.69363650584E+03  0.00000000000E+00 0.  1.
         22    1    1    2    0    0  0.12662593783E+04 -0.62166607709E+03  0.67090969374E+03  0.15620503647E+04  0.00000000000E+00 0.  1.
<mgrwt>
<rscale>  0 0.30642715E+04</rscale>
<asrwt>0</asrwt>
<pdfrwt beam="1">  1        2 0.56211116E+00 0.30642715E+04</pdfrwt>
<pdfrwt beam="2">  1       -2 0.98842920E-01 0.30642715E+04</pdfrwt>
<totfact> 0.45591077E-01</totfact>
</mgrwt>
</event>
<event>
 6    1  0.1014650E-006  0.2180429E+04  0.7818608E-02  0.8526619E-01
         -1   -1    0    0    0  501 -0.00000000000E+00  0.00000000000E+00  0.13843681607E+04  0.13843681607E+04  0.00000000000E+00 0.  1.
          1   -1    0    0  501    0  0.00000000000E+00 -0.00000000000E+00 -0.85856288948E+03  0.85856288948E+03  0.00000000000E+00 0. -1.
         23    2    1    2    0    0  0.62427096683E+03 -0.89119876797E+03  0.28285319604E+03  0.11280430761E+04  0.92335079284E+02 0.  0.
         11    1    3    3    0    0  0.47476875156E+03 -0.72084876213E+03  0.25280602060E+03  0.89941046768E+03  0.00000000000E+00 0.  1.
        -11    1    3    3    0    0  0.14950221526E+03 -0.17035000585E+03  0.30047175440E+02  0.22863260837E+03  0.00000000000E+00 0. -1.
         22    1    1    2    0    0 -0.62427096683E+03  0.89119876797E+03  0.24295207520E+03  0.11148879741E+04  0.00000000000E+00 0. -1.
<mgrwt>
<rscale>  0 0.21804285E+04</rscale>
<asrwt>0</asrwt>
<pdfrwt beam="1">  1        1 0.13208660E+00 0.21804285E+04</pdfrwt>
<pdfrwt beam="2">  1       -1 0.21297972E+00 0.21804285E+04</pdfrwt>
<totfact> 0.22073455E+00</totfact>
</mgrwt>
</event>
<event>
 6    1  0.1014650E-006  0.2809021E+04  0.7818608E-02  0.8300473E-01
          2   -1    0    0  501    0  0.00000000000E+00  0.00000000000E+00  0.29621122785E+04  0.29621122785E+04  0.00000000000E+00 0. -1.
         -2   -1    0    0    0  501 -0.00000000000E+00 -0.00000000000E+00 -0.66596043737E+03  0.66596043737E+03  0.00000000000E+00 0.  1.
         23    2    1    2    0    0  0.40953764192E+03 -0.13412560742E+04  0.12004334026E+04  0.18483851497E+04  0.93799630678E+02 0.  0.
         11    1    3    3    0    0  0.18268329823E+03 -0.73117156199E+03  0.67841191136E+03  0.10140156616E+04  0.00000000000E+00 0.  1.
        -11    1    3    3    0    0  0.22685434369E+03 -0.61008451221E+03  0.52202149124E+03  0.83436948806E+03  0.00000000000E+00 0. -1.
         22    1    1    2    0    0 -0.40953764192E+03  0.13412560742E+04  0.10957184385E+04  0.17796875662E+04  0.00000000000E+00 0.  1.
<mgrwt>
<rscale>  0 0.28090209E+04</rscale>
<asrwt>0</asrwt>
<pdfrwt beam="1">  1        2 0.45570957E+00 0.28090209E+04</pdfrwt>
<pdfrwt beam="2">  1       -2 0.10245545E+00 0.28090209E+04</pdfrwt>
<totfact> 0.12459103E+00</totfact>
</mgrwt>
</event>
<event>
 6    1  0.1014650E-006  0.1276521E+04  0.7818608E-02  0.9048395E-01
          1   -1    0    0  501    0  0.00000000000E+00  0.00000000000E+00  0.31891225193E+03  0.31891225193E+03  0.00000000000E+00 0. -1.
         -1   -1    0    0    0  501 -0.00000000000E+00 -0.00000000000E+00 -0.12773927689E+04  0.12773927689E+04  0.00000000000E+00 0.  1.
         23    2    1    2    0    0 -0.41333286440E+01  0.31718248418E+03 -0.11693855784E+04  0.12153814621E+04  0.95224233203E+02 0.  0.
         11    1    3    3    0    0  0.15460518256E+02  0.22434914153E+03 -0.66068315594E+03  0.69790672549E+03  0.00000000000E+00 0.  1.
        -11    1    3    3    0    0 -0.19593846900E+02  0.92833342653E+02 -0.50870242249E+03  0.51747473657E+03  0.00000000000E+00 0. -1.
         22    1    1    2    0    0  0.41333286440E+01 -0.31718248418E+03  0.21090506146E+03  0.38092355877E+03  0.00000000000E+00 0. -1.
<mgrwt>
<rscale>  0 0.12765206E+04</rscale>
<asrwt>0</asrwt>
<pdfrwt beam="1">  1        1 0.49063423E-01 0.12765206E+04</pdfrwt>
<pdfrwt beam="2">  1       -1 0.19652197E+00 0.12765206E+04</pdfrwt>
<totfact> 0.12673321E+01</totfact>
</mgrwt>
</event>
<event>
 6    1  0.1014650E-006  0.1837225E+04  0.7818608E-02  0.8686750E-01
         -1   -1    0    0    0  501 -0.00000000000E+00  0.00000000000E+00  0.14581159344E+04  0.14581159344E+04  0.00000000000E+00 0.  1.
          1   -1    0    0  501    0  0.00000000000E+00 -0.00000000000E+00 -0.57872556532E+03  0.57872556532E+03  0.00000000000E+00 0. -1.
         23    2    1    2    0    0  0.41189720275E+02 -0.41187968383E+03 -0.46523702011E+03  0.62994268220E+03  0.95083284372E+02 0.  0.
         13    1    3    3    0    0  0.31017245964E+02 -0.12207807277E+03 -0.85877126141E+02  0.15244673231E+03  0.00000000000E+00 0. -1.
        -13    1    3    3    0    0  0.10172474312E+02 -0.28980161106E+03 -0.37935989397E+03  0.47749594989E+03  0.00000000000E+00 0.  1.
         22    1    1    2    0    0 -0.41189720275E+02  0.41187968383E+03  0.13446273891E+04  0.14068988175E+04  0.00000000000E+00 0.  1.
<mgrwt>
<rscale>  0 0.18372250E+04</rscale>
<asrwt>0</asrwt>
<pdfrwt beam="1">  1        1 0.89034703E-01 0.18372250E+04</pdfrwt>
<pdfrwt beam="2">  1       -1 0.22432553E+00 0.18372250E+04</pdfrwt>
<totfact> 0.34934593E+00</totfact>
</mgrwt>
</event>
<event>
 6    1  0.1014650E-006  0.1988428E+04  0.7818608E-02  0.8612050E-01
          1   -1    0    0  501    0  0.00000000000E+00  0.00000000000E+00  0.20566789911E+04  0.20566789911E+04  0.00000000000E+00 0. -1.
         -1   -1    0    0    0  501 -0.00000000000E+00 -0.00000000000E+00 -0.48061035208E+03  0.48061035208E+03  0.00000000000E+00 0.  1.
         23    2    1    2    0    0  0.34538267233E+03  0.37794370712E+03  0.18740427558E+04  0.19449049997E+04  0.92133442932E+02 0.  0.
         13    1    3    3    0    0  0.55503307042E+02  0.10818412220E+03  0.52840876425E+03  0.54221789303E+03  0.00000000000E+00 0. -1.
        -13    1    3    3    0    0  0.28987936529E+03  0.26975958492E+03  0.13456339915E+04  0.14026871067E+04  0.00000000000E+00 0.  1.
         22    1    1    2    0    0 -0.34538267233E+03 -0.37794370712E+03 -0.29797411677E+03  0.59238434345E+03  0.00000000000E+00 0.  1.
<mgrwt>
<rscale>  0 0.19884277E+04</rscale>
<asrwt>0</asrwt>
<pdfrwt beam="1">  1        1 0.31641215E+00 0.19884277E+04</pdfrwt>
<pdfrwt beam="2">  1       -1 0.73940055E-01 0.19884277E+04</pdfrwt>
<totfact> 0.46643956E+00</totfact>
</mgrwt>
</event>
<event>
 6    1  0.1014650E-006  0.2036363E+04  0.7818608E-02  0.8589806E-01
          1   -1    0    0  501    0  0.00000000000E+00  0.00000000000E+00  0.24669800903E+04  0.24669800903E+04  0.00000000000E+00 0. -1.
         -1   -1    0    0    0  501 -0.00000000000E+00 -0.00000000000E+00 -0.42022757726E+03  0.42022757726E+03  0.00000000000E+00 0.  1.
         23    2    1    2    0    0  0.61375418210E+03 -0.12499057572E+03  0.21598101338E+04  0.22507338931E+04  0.93308108807E+02 0.  0.
         11    1    3    3    0    0  0.58891224487E+03 -0.11002550360E+03  0.21065957847E+04  0.21901299148E+04  0.00000000000E+00 0. -1.
        -11    1    3    3    0    0  0.24841937231E+02 -0.14965072124E+02  0.53214349150E+02  0.60603978289E+02  0.00000000000E+00 0.  1.
         22    1    1    2    0    0 -0.61375418210E+03  0.12499057572E+03 -0.11305762075E+03  0.63647377454E+03  0.00000000000E+00 0.  1.
<mgrwt>
<rscale>  0 0.20363625E+04</rscale>
<asrwt>0</asrwt>
<pdfrwt beam="1">  1        1 0.37953539E+00 0.20363625E+04</pdfrwt>
<pdfrwt beam="2">  1       -1 0.64650398E-01 0.20363625E+04</pdfrwt>
<totfact> 0.32048526E+00</totfact>
</mgrwt>
</event>
<event>
 6    1  0.1014650E-006  0.2094128E+04  0.7818608E-02  0.8563835E-01
          1   -1    0    0  501    0  0.00000000000E+00  0.00000000000E+00  0.68327575092E+03  0.68327575092E+03  0.00000000000E+00 0. -1.
         -1   -1    0    0    0  501 -0.00000000000E+00 -0.00000000000E+00 -0.16045390734E+04  0.16045390734E+04  0.00000000000E+00 0.  1.
         23    2    1    2    0    0 -0.20225265880E+03 -0.79121385306E+03 -0.11747889013E+04  0.14327120712E+04  0.74896043072E+02 0.  0.
         13    1    3    3    0    0 -0.12792014925E+03 -0.61720873028E+03 -0.92504221358E+03  0.11193807566E+04  0.00000000000E+00 0.  1.
        -13    1    3    3    0    0 -0.74332509544E+02 -0.17400512278E+03 -0.24974668768E+03  0.31333131465E+03  0.00000000000E+00 0. -1.
         22    1    1    2    0    0  0.20225265880E+03  0.79121385306E+03  0.25352557877E+03  0.85510275310E+03  0.00000000000E+00 0. -1.
<mgrwt>
<rscale>  0 0.20941276E+04</rscale>
<asrwt>0</asrwt>
<pdfrwt beam="1">  1        1 0.10511935E+00 0.20941276E+04</pdfrwt>
<pdfrwt beam="2">  1       -1 0.24685216E+00 0.20941276E+04</pdfrwt>
<totfact> 0.19010297E+00</totfact>
</mgrwt>
</event>
<event>
 6    1  0.1014650E-006  0.9588775E+03  0.7818608E-02  0.9354834E-01
          1   -1    0    0  501    0  0.00000000000E+00  0.00000000000E+00  0.77564883044E+03  0.77564883044E+03  0.00000000000E+00 0. -1.
         -1   -1    0    0    0  501 -0.00000000000E+00 -0.00000000000E+00 -0.29634737463E+03  0.29634737463E+03  0.00000000000E+00 0.  1.
         23    2    1    2    0    0 -0.40272139952E+03  0.22443752494E+03  0.36935664245E+03  0.59802933892E+03  0.93048549978E+02 0.  0.
         13    1    3    3    0    0 -0.37682096386E+03  0.17712437991E+03  0.32512042262E+03  0.52827111786E+03  0.00000000000E+00 0. -1.
        -13    1    3    3    0    0 -0.25900435654E+02  0.47313145025E+02  0.44236219835E+02  0.69758221054E+02  0.00000000000E+00 0.  1.
         22    1    1    2    0    0  0.40272139952E+03 -0.22443752494E+03  0.10994481335E+03  0.47396686615E+03  0.00000000000E+00 0.  1.
<mgrwt>
<rscale>  0 0.95887746E+03</rscale>
<asrwt>0</asrwt>
<pdfrwt beam="1">  1        1 0.11933059E+00 0.95887746E+03</pdfrwt>
<pdfrwt beam="2">  1       -1 0.45591904E-01 0.95887746E+03</pdfrwt>
<totfact> 0.11148612E+02</totfact>
</mgrwt>
</event>
<event>
 6    1  0.1014650E-006  0.1200421E+04  0.7818608E-02  0.9112488E-01
         -2   -1    0    0    0  501 -0.00000000000E+00  0.00000000000E+00  0.83671441029E+02  0.83671441029E+02  0.00000000000E+00 0.  1.
          2   -1    0    0  501    0  0.00000000000E+00 -0.00000000000E+00 -0.43055627291E+04  0.43055627291E+04  0.00000000000E+00 0. -1.
         23    2    1    2    0    0 -0.46254044042E+03 -0.25461090520E+03 -0.10985806918E+04  0.12216105415E+04  0.81745988080E+02 0.  0.
         13    1    3    3    0    0 -0.29396784713E+03 -0.20329523349E+03 -0.76373601395E+03  0.84323113445E+03  0.00000000000E+00 0. -1.
        -13    1    3    3    0    0 -0.16857259329E+03 -0.51315671709E+02 -0.33484467789E+03  0.37837940706E+03  0.00000000000E+00 0.  1.
         22    1    1    2    0    0  0.46254044042E+03  0.25461090520E+03 -0.31233105963E+04  0.31676236287E+04  0.00000000000E+00 0. -1.
<mgrwt>
<rscale>  0 0.12004210E+04</rscale>
<asrwt>0</asrwt>
<pdfrwt beam="1">  1        2 0.66239445E+00 0.12004210E+04</pdfrwt>
<pdfrwt beam="2">  1       -2 0.12872526E-01 0.12004210E+04</pdfrwt>
<totfact> 0.88343644E+00</totfact>
</mgrwt>
</event>
<event>
 6    1  0.1014650E-006  0.1200825E+04  0.7818608E-02  0.9112135E-01
          2   -1    0    0  501    0  0.00000000000E+00  0.00000000000E+00  0.12552778953E+04  0.12552778953E+04  0.00000000000E+00 0. -1.
         -2   -1    0    0    0  501 -0.00000000000E+00 -0.00000000000E+00 -0.28718336981E+03  0.28718336981E+03  0.00000000000E+00 0.  1.
         23    2    1    2    0    0  0.26840495780E+03 -0.56156541446E+02 -0.19646002317E+03  0.34605745563E+03  0.77229808869E+02 0.  0.
         13    1    3    3    0    0  0.66129289876E+02 -0.63563324692E+01 -0.11383971644E+02  0.67402379427E+02  0.00000000000E+00 0.  1.
        -13    1    3    3    0    0  0.20227566792E+03 -0.49800208977E+02 -0.18507605153E+03  0.27865507621E+03  0.00000000000E+00 0. -1.
         22    1    1    2    0    0 -0.26840495780E+03  0.56156541446E+02  0.11645545487E+04  0.11964038095E+04  0.00000000000E+00 0. -1.
<mgrwt>
<rscale>  0 0.12008246E+04</rscale>
<asrwt>0</asrwt>
<pdfrwt beam="1">  1        2 0.19311967E+00 0.12008246E+04</pdfrwt>
<pdfrwt beam="2">  1       -2 0.44182058E-01 0.12008246E+04</pdfrwt>
<totfact> 0.84137427E+01</totfact>
</mgrwt>
</event>
<event>
 6    1  0.1014650E-006  0.3074439E+04  0.7818608E-02  0.8222788E-01
          2   -1    0    0  501    0  0.00000000000E+00  0.00000000000E+00  0.13061089306E+04  0.13061089306E+04  0.00000000000E+00 0. -1.
         -2   -1    0    0    0  501 -0.00000000000E+00 -0.00000000000E+00 -0.18092237411E+04  0.18092237411E+04  0.00000000000E+00 0.  1.
         23    2    1    2    0    0 -0.67352632604E+03  0.66844062849E+03  0.97201180061E+03  0.13613517411E+04  0.89560241734E+02 0.  0.
         13    1    3    3    0    0 -0.58018961878E+03  0.56524056407E+03  0.87079172337E+03  0.11892834458E+04  0.00000000000E+00 0. -1.
        -13    1    3    3    0    0 -0.93336707263E+02  0.10320006442E+03  0.10122007724E+03  0.17206829532E+03  0.00000000000E+00 0.  1.
         22    1    1    2    0    0  0.67352632604E+03 -0.66844062849E+03 -0.14751266112E+04  0.17539809305E+04  0.00000000000E+00 0.  1.
<mgrwt>
<rscale>  0 0.30744387E+04</rscale>
<asrwt>0</asrwt>
<pdfrwt beam="1">  1        2 0.20093984E+00 0.30744387E+04</pdfrwt>
<pdfrwt beam="2">  1       -2 0.27834211E+00 0.30744387E+04</pdfrwt>
<totfact> 0.60128777E-01</totfact>
</mgrwt>
</event>
<event>
 6    1  0.1014650E-006  0.5647026E+04  0.7818608E-02  0.7735776E-01
          2   -1    0    0  501    0  0.00000000000E+00  0.00000000000E+00  0.38537318264E+04  0.38537318264E+04  0.00000000000E+00 0. -1.
         -2   -1    0    0    0  501 -0.00000000000E+00 -0.00000000000E+00 -0.20687028572E+04  0.20687028572E+04  0.00000000000E+00 0.  1.
         23    2    1    2    0    0 -0.26938168987E+04  0.83353525096E+03  0.10280734999E+04  0.30027751006E+04  0.91064182277E+02 0.  0.
         11    1    3    3    0    0 -0.11275280121E+04  0.31053800677E+03  0.45383272149E+03  0.12544789400E+04  0.00000000000E+00 0.  1.
        -11    1    3    3    0    0 -0.15662888865E+04  0.52299724419E+03  0.57424077842E+03  0.17482961606E+04  0.00000000000E+00 0. -1.
         22    1    1    2    0    0  0.26938168987E+04 -0.83353525096E+03  0.75695546926E+03  0.29196595830E+04  0.00000000000E+00 0.  1.
<mgrwt>
<rscale>  0 0.56470261E+04</rscale>
<asrwt>0</asrwt>
<pdfrwt beam="1">  1        2 0.59288182E+00 0.56470261E+04</pdfrwt>
<pdfrwt beam="2">  1       -2 0.31826198E+00 0.56470261E+04</pdfrwt>
<totfact> 0.75519261E-03</totfact>
</mgrwt>
</event>
<event>
 6    1  0.1014650E-006  0.2311713E+04  0.7818608E-02  0.8473317E-01
         -1   -1    0    0    0  501 -0.00000000000E+00  0.00000000000E+00  0.86586768654E+03  0.86586768654E+03  0.00000000000E+00 0.  1.
          1   -1    0    0  501    0  0.00000000000E+00 -0.00000000000E+00 -0.15429652416E+04  0.15429652416E+04  0.00000000000E+00 0. -1.
         23    2    1    2    0    0 -0.78294311121E+03 -0.55196441358E+03 -0.10095568812E+04  0.13948339968E+04  0.93231716280E+02 0.  0.
         11    1    3    3    0    0 -0.65179986543E+03 -0.49706047005E+03 -0.87737301781E+03  0.12007062871E+04  0.00000000000E+00 0.  1.
        -11    1    3    3    0    0 -0.13114324578E+03 -0.54903943534E+02 -0.13218386343E+03  0.19412770971E+03  0.00000000000E+00 0. -1.
         22    1    1    2    0    0  0.78294311121E+03  0.55196441358E+03  0.33245932617E+03  0.10139989314E+04  0.00000000000E+00 0.  1.
<mgrwt>
<rscale>  0 0.23117126E+04</rscale>
<asrwt>0</asrwt>
<pdfrwt beam="1">  1        1 0.23737927E+00 0.23117126E+04</pdfrwt>
<pdfrwt beam="2">  1       -1 0.13321041E+00 0.23117126E+04</pdfrwt>
<totfact> 0.26291919E+00</totfact>
</mgrwt>
</event>
<event>
 6    1  0.1014650E-006  0.3262905E+04  0.7818608E-02  0.8172399E-01
         -1   -1    0    0    0  501 -0.00000000000E+00  0.00000000000E+00  0.19796412727E+04  0.19796412727E+04  0.00000000000E+00 0.  1.
          1   -1    0    0  501    0  0.00000000000E+00 -0.00000000000E+00 -0.13445046156E+04  0.13445046156E+04  0.00000000000E+00 0. -1.
         23    2    1    2    0    0 -0.44942268687E+03 -0.41697232097E+03 -0.12211178574E+04  0.13692731327E+04  0.89069760889E+02 0.  0.
         11    1    3    3    0    0 -0.29463792402E+03 -0.25798691107E+03 -0.68490183229E+03  0.78896088143E+03  0.00000000000E+00 0. -1.
        -11    1    3    3    0    0 -0.15478476284E+03 -0.15898540990E+03 -0.53621602509E+03  0.58031225123E+03  0.00000000000E+00 0.  1.
         22    1    1    2    0    0  0.44942268687E+03  0.41697232097E+03  0.18562545146E+04  0.19548727556E+04  0.00000000000E+00 0.  1.
<mgrwt>
<rscale>  0 0.32629047E+04</rscale>
<asrwt>0</asrwt>
<pdfrwt beam="1">  1        1 0.20684687E+00 0.32629047E+04</pdfrwt>
<pdfrwt beam="2">  1       -1 0.30456019E+00 0.32629047E+04</pdfrwt>
<totfact> 0.21583548E-01</totfact>
</mgrwt>
</event>
<event>
 6    1  0.1014650E-006  0.1687185E+04  0.7818608E-02  0.8768707E-01
         -1   -1    0    0    0  501 -0.00000000000E+00  0.00000000000E+00  0.86908126547E+03  0.86908126547E+03  0.00000000000E+00 0.  1.
          1   -1    0    0  501    0  0.00000000000E+00 -0.00000000000E+00 -0.81885083905E+03  0.81885083905E+03  0.00000000000E+00 0. -1.
         23    2    1    2    0    0 -0.11527741773E+03 -0.96284715070E+02 -0.80275280878E+03  0.82182585877E+03  0.91793467870E+02 0.  0.
         13    1    3    3    0    0 -0.48391794052E+02 -0.12690243148E+02 -0.10990785699E+03  0.12075820896E+03  0.00000000000E+00 0. -1.
        -13    1    3    3    0    0 -0.66885623681E+02 -0.83594471922E+02 -0.69284495179E+03  0.70106764982E+03  0.00000000000E+00 0.  1.
         22    1    1    2    0    0  0.11527741773E+03  0.96284715070E+02  0.85298323520E+03  0.86610624575E+03  0.00000000000E+00 0.  1.
<mgrwt>
<rscale>  0 0.16871845E+04</rscale>
<asrwt>0</asrwt>
<pdfrwt beam="1">  1        1 0.12597705E+00 0.16871845E+04</pdfrwt>
<pdfrwt beam="2">  1       -1 0.13370481E+00 0.16871845E+04</pdfrwt>
<totfact> 0.95788565E+00</totfact>
</mgrwt>
</event>
<event>
 6    1  0.1014650E-006  0.1711199E+04  0.7818608E-02  0.8755003E-01
         -3   -1    0    0    0  501 -0.00000000000E+00  0.00000000000E+00  0.38906742492E+03  0.38906742492E+03  0.00000000000E+00 0.  1.
          3   -1    0    0  501    0  0.00000000000E+00 -0.00000000000E+00 -0.18815509991E+04  0.18815509991E+04  0.00000000000E+00 0. -1.
         23    2    1    2    0    0  0.14058228774E+03  0.83624559001E+03 -0.62673008346E+03  0.10587606877E+04  0.95464809368E+02 0.  0.
         11    1    3    3    0    0 -0.14518310194E+02  0.77510674748E+02 -0.54547894721E+02  0.95886176529E+02  0.00000000000E+00 0.  1.
        -11    1    3    3    0    0  0.15510059793E+03  0.75873491526E+03 -0.57218218874E+03  0.96287451115E+03  0.00000000000E+00 0. -1.
         22    1    1    2    0    0 -0.14058228774E+03 -0.83624559001E+03 -0.86575349072E+03  0.12118577363E+04  0.00000000000E+00 0. -1.
<mgrwt>
<rscale>  0 0.17111986E+04</rscale>
<asrwt>0</asrwt>
<pdfrwt beam="1">  1        3 0.28946938E+00 0.17111986E+04</pdfrwt>
<pdfrwt beam="2">  1       -3 0.59856528E-01 0.17111986E+04</pdfrwt>
<totfact> 0.30110019E-01</totfact>
</mgrwt>
</event>
<event>
 6    1  0.1014650E-006  0.3192465E+04  0.7818608E-02  0.8190810E-01
          2   -1    0    0  501    0  0.00000000000E+00  0.00000000000E+00  0.33268166947E+04  0.33268166947E+04  0.00000000000E+00 0. -1.
         -2   -1    0    0    0  501 -0.00000000000E+00 -0.00000000000E+00 -0.76588471418E+03  0.76588471418E+03  0.00000000000E+00 0.  1.
         23    2    1    2    0    0 -0.11204155243E+04  0.10246333254E+04  0.65540292016E+03  0.16562602751E+04  0.91873349412E+02 0.  0.
         13    1    3    3    0    0 -0.84309630210E+03  0.71615519800E+03  0.48293647278E+03  0.12070282842E+04  0.00000000000E+00 0.  1.
        -13    1    3    3    0    0 -0.27731922223E+03  0.30847812739E+03  0.17246644738E+03  0.44923199081E+03  0.00000000000E+00 0. -1.
         22    1    1    2    0    0  0.11204155243E+04 -0.10246333254E+04  0.19055290604E+04  0.24364411338E+04  0.00000000000E+00 0. -1.
<mgrwt>
<rscale>  0 0.31924649E+04</rscale>
<asrwt>0</asrwt>
<pdfrwt beam="1">  1        2 0.51181794E+00 0.31924649E+04</pdfrwt>
<pdfrwt beam="2">  1       -2 0.11782842E+00 0.31924649E+04</pdfrwt>
<totfact> 0.49975498E-01</totfact>
</mgrwt>
</event>
<event>
 6    1  0.1014650E-006  0.7844766E+03  0.7818608E-02  0.9582762E-01
         -1   -1    0    0    0  501 -0.00000000000E+00  0.00000000000E+00  0.12272498816E+03  0.12272498816E+03  0.00000000000E+00 0.  1.
          1   -1    0    0  501    0  0.00000000000E+00 -0.00000000000E+00 -0.12536232408E+04  0.12536232408E+04  0.00000000000E+00 0. -1.
         23    2    1    2    0    0  0.24037503892E+03  0.18274712099E+03 -0.14915782944E+03  0.34922071588E+03  0.92360060332E+02 0.  0.
         11    1    3    3    0    0  0.10380740145E+03  0.12194222656E+03 -0.11126089111E+03  0.19499966437E+03  0.00000000000E+00 0.  1.
        -11    1    3    3    0    0  0.13656763748E+03  0.60804894431E+02 -0.37896938332E+02  0.15422105151E+03  0.00000000000E+00 0. -1.
         22    1    1    2    0    0 -0.24037503892E+03 -0.18274712099E+03 -0.98174042325E+03  0.10271275131E+04  0.00000000000E+00 0. -1.
<mgrwt>
<rscale>  0 0.78447663E+03</rscale>
<asrwt>0</asrwt>
<pdfrwt beam="1">  1        1 0.19286511E+00 0.78447663E+03</pdfrwt>
<pdfrwt beam="2">  1       -1 0.18880767E-01 0.78447663E+03</pdfrwt>
<totfact> 0.22269646E+02</totfact>
</mgrwt>
</event>
<event>
 6    1  0.1014650E-006  0.5498199E+04  0.7818608E-02  0.7755937E-01
          2   -1    0    0  501    0  0.00000000000E+00  0.00000000000E+00  0.41573474148E+04  0.41573474148E+04  0.00000000000E+00 0. -1.
         -2   -1    0    0    0  501 -0.00000000000E+00 -0.00000000000E+00 -0.18178774324E+04  0.18178774324E+04  0.00000000000E+00 0.  1.
         23    2    1    2    0    0  0.15460000468E+04 -0.15606272045E+04 -0.62488136358E+03  0.22856378352E+04  0.89387802650E+02 0.  0.
         13    1    3    3    0    0  0.11467460959E+04 -0.12032472257E+04 -0.45064845224E+03  0.17221830687E+04  0.00000000000E+00 0. -1.
        -13    1    3    3    0    0  0.39925395088E+03 -0.35737997880E+03 -0.17423291134E+03  0.56345476654E+03  0.00000000000E+00 0.  1.
         22    1    1    2    0    0 -0.15460000468E+04  0.15606272045E+04  0.29643513460E+04  0.36895870119E+04  0.00000000000E+00 0. -1.
<mgrwt>
<rscale>  0 0.54981990E+04</rscale>
<asrwt>0</asrwt>
<pdfrwt beam="1">  1        2 0.63959191E+00 0.54981990E+04</pdfrwt>
<pdfrwt beam="2">  1       -2 0.27967345E+00 0.54981990E+04</pdfrwt>
<totfact> 0.74445600E-03</totfact>
</mgrwt>
</event>
<event>
 6    1  0.1014650E-006  0.3499348E+04  0.7818608E-02  0.8113945E-01
          2   -1    0    0  501    0  0.00000000000E+00  0.00000000000E+00  0.14509070018E+04  0.14509070018E+04  0.00000000000E+00 0. -1.
         -2   -1    0    0    0  501 -0.00000000000E+00 -0.00000000000E+00 -0.21099619895E+04  0.21099619895E+04  0.00000000000E+00 0.  1.
         23    2    1    2    0    0  0.17386532450E+04 -0.55276194180E+02 -0.50943185834E+03  0.18149143398E+04  0.91775150744E+02 0.  0.
         13    1    3    3    0    0  0.99029393640E+03  0.10282031855E+02 -0.30840638866E+03  0.10372571047E+04  0.00000000000E+00 0.  1.
        -13    1    3    3    0    0  0.74835930863E+03 -0.65558226035E+02 -0.20102546969E+03  0.77765723508E+03  0.00000000000E+00 0. -1.
         22    1    1    2    0    0 -0.17386532450E+04  0.55276194180E+02 -0.14962312936E+03  0.17459546515E+04  0.00000000000E+00 0. -1.
<mgrwt>
<rscale>  0 0.34993477E+04</rscale>
<asrwt>0</asrwt>
<pdfrwt beam="1">  1        2 0.22321646E+00 0.34993477E+04</pdfrwt>
<pdfrwt beam="2">  1       -2 0.32460954E+00 0.34993477E+04</pdfrwt>
<totfact> 0.24930541E-01</totfact>
</mgrwt>
</event>
<event>
 6    1  0.1014650E-006  0.3489609E+04  0.7818608E-02  0.8116257E-01
         -2   -1    0    0    0  501 -0.00000000000E+00  0.00000000000E+00  0.15674049208E+04  0.15674049208E+04  0.00000000000E+00 0.  1.
          2   -1    0    0  501    0  0.00000000000E+00 -0.00000000000E+00 -0.19422826316E+04  0.19422826316E+04  0.00000000000E+00 0. -1.
         23    2    1    2    0    0 -0.12634034564E+04 -0.37350801238E+03 -0.13363119924E+04  0.18787208430E+04  0.90364461867E+02 0.  0.
         13    1    3    3    0    0 -0.11676927614E+04 -0.32143694049E+03 -0.12118358125E+04  0.17132933573E+04  0.00000000000E+00 0. -1.
        -13    1    3    3    0    0 -0.95710695085E+02 -0.52071071897E+02 -0.12447617991E+03  0.16542748577E+03  0.00000000000E+00 0.  1.
         22    1    1    2    0    0  0.12634034564E+04  0.37350801238E+03  0.96143428156E+03  0.16309667093E+04  0.00000000000E+00 0.  1.
<mgrwt>
<rscale>  0 0.34896094E+04</rscale>
<asrwt>0</asrwt>
<pdfrwt beam="1">  1        2 0.29881271E+00 0.34896094E+04</pdfrwt>
<pdfrwt beam="2">  1       -2 0.24113922E+00 0.34896094E+04</pdfrwt>
<totfact> 0.43121021E-01</totfact>
</mgrwt>
</event>
<event>
 6    1  0.1014650E-006  0.1539249E+04  0.7818608E-02  0.8858764E-01
         -1   -1    0    0    0  501 -0.00000000000E+00  0.00000000000E+00  0.33035176341E+03  0.33035176341E+03  0.00000000000E+00 0.  1.
          1   -1    0    0  501    0  0.00000000000E+00 -0.00000000000E+00 -0.17930042253E+04  0.17930042253E+04  0.00000000000E+00 0. -1.
         23    2    1    2    0    0 -0.40440806900E+03  0.18528517836E+03  0.12797966030E+03  0.47169408876E+03  0.90774645840E+02 0.  0.
         13    1    3    3    0    0 -0.16006014459E+03  0.12073518047E+03  0.70369076618E+02  0.21248068296E+03  0.00000000000E+00 0. -1.
        -13    1    3    3    0    0 -0.24434792442E+03  0.64549997895E+02  0.57610583683E+02  0.25921340580E+03  0.00000000000E+00 0.  1.
         22    1    1    2    0    0  0.40440806900E+03 -0.18528517836E+03 -0.15906321222E+04  0.16516618999E+04  0.00000000000E+00 0. -1.
<mgrwt>
<rscale>  0 0.15392493E+04</rscale>
<asrwt>0</asrwt>
<pdfrwt beam="1">  1        1 0.27584681E+00 0.15392493E+04</pdfrwt>
<pdfrwt beam="2">  1       -1 0.50823348E-01 0.15392493E+04</pdfrwt>
<totfact> 0.15454983E+01</totfact>
</mgrwt>
</event>
<event>
 6    1  0.1014650E-006  0.2173071E+04  0.7818608E-02  0.8529721E-01
         -1   -1    0    0    0  501 -0.00000000000E+00  0.00000000000E+00  0.10964386765E+04  0.10964386765E+04  0.00000000000E+00 0.  1.
          1   -1    0    0  501    0  0.00000000000E+00 -0.00000000000E+00 -0.10767218430E+04  0.10767218430E+04  0.00000000000E+00 0. -1.
         23    2    1    2    0    0  0.11004365344E+03 -0.79285690217E+03  0.74173278489E+03  0.10951815276E+04  0.92322159688E+02 0.  0.
         13    1    3    3    0    0  0.74560346544E+02 -0.30806269367E+03  0.33719919064E+03  0.46277982095E+03  0.00000000000E+00 0.  1.
        -13    1    3    3    0    0  0.35483306898E+02 -0.48479420850E+03  0.40453359426E+03  0.63240170663E+03  0.00000000000E+00 0. -1.
         22    1    1    2    0    0 -0.11004365344E+03  0.79285690217E+03 -0.72201595140E+03  0.10779789919E+04  0.00000000000E+00 0. -1.
<mgrwt>
<rscale>  0 0.21730711E+04</rscale>
<asrwt>0</asrwt>
<pdfrwt beam="1">  1        1 0.16564951E+00 0.21730711E+04</pdfrwt>
<pdfrwt beam="2">  1       -1 0.16868287E+00 0.21730711E+04</pdfrwt>
<totfact> 0.30364226E+00</totfact>
</mgrwt>
</event>
<event>
 6    1  0.1014650E-006  0.3123991E+04  0.7818608E-02  0.8209184E-01
          2   -1    0    0  501    0  0.00000000000E+00  0.00000000000E+00  0.32595418464E+04  0.32595418464E+04  0.00000000000E+00 0. -1.
         -2   -1    0    0    0  501 -0.00000000000E+00 -0.00000000000E+00 -0.74851943931E+03  0.74851943931E+03  0.00000000000E+00 0.  1.
         23    2    1    2    0    0  0.52884187947E+03  0.14560967147E+04  0.14988911157E+04  0.21575745586E+04  0.92531202854E+02 0.  0.
         13    1    3    3    0    0  0.18446174938E+03  0.39609277894E+03  0.39927244729E+03  0.59189028855E+03  0.00000000000E+00 0. -1.
        -13    1    3    3    0    0  0.34438013009E+03  0.10600039357E+04  0.10996186684E+04  0.15656842701E+04  0.00000000000E+00 0.  1.
         22    1    1    2    0    0 -0.52884187947E+03 -0.14560967147E+04  0.10121312914E+04  0.18504867270E+04  0.00000000000E+00 0.  1.
<mgrwt>
<rscale>  0 0.31239913E+04</rscale>
<asrwt>0</asrwt>
<pdfrwt beam="1">  1        2 0.50146797E+00 0.31239913E+04</pdfrwt>
<pdfrwt beam="2">  1       -2 0.11515684E+00 0.31239913E+04</pdfrwt>
<totfact> 0.58955661E-01</totfact>
</mgrwt>
</event>
<event>
 6    1  0.1409343E-006  0.4253049E+04  0.7818608E-02  0.7955357E-01
         -1   -1    0    0    0  501 -0.00000000000E+00  0.00000000000E+00  0.18794904395E+04  0.18794904395E+04  0.00000000000E+00 0.  1.
          1   -1    0    0  501    0  0.00000000000E+00 -0.00000000000E+00 -0.24060275503E+04  0.24060275503E+04  0.00000000000E+00 0. -1.
         23    2    1    2    0    0 -0.11479993544E+04 -0.13351581813E+04 -0.14631191069E+04  0.22910918261E+04  0.88511849432E+02 0.  0.
         11    1    3    3    0    0 -0.52216699258E+03 -0.63429476795E+03 -0.63000803191E+03  0.10353252344E+04  0.00000000000E+00 0. -1.
        -11    1    3    3    0    0 -0.62583236186E+03 -0.70086341340E+03 -0.83311107499E+03  0.12557665916E+04  0.00000000000E+00 0.  1.
         22    1    1    2    0    0  0.11479993544E+04  0.13351581813E+04  0.93658199611E+03  0.19944261637E+04  0.00000000000E+00 0.  1.
<mgrwt>
<rscale>  0 0.42530487E+04</rscale>
<asrwt>0</asrwt>
<pdfrwt beam="1">  1        1 0.37015809E+00 0.42530487E+04</pdfrwt>
<pdfrwt beam="2">  1       -1 0.28915237E+00 0.42530487E+04</pdfrwt>
<totfact> 0.46845216E-02</totfact>
</mgrwt>
</event>
<event>
 6    1  0.1014650E-006  0.4213526E+04  0.7818608E-02  0.7962804E-01
          2   -1    0    0  501    0  0.00000000000E+00  0.00000000000E+00  0.21394066673E+04  0.21394066673E+04  0.00000000000E+00 0. -1.
         -2   -1    0    0    0  501 -0.00000000000E+00 -0.00000000000E+00 -0.20746178094E+04  0.20746178094E+04  0.00000000000E+00 0.  1.
         23    2    1    2    0    0 -0.16455121855E+04  0.68898036143E+03 -0.10866237732E+04  0.20907827717E+04  0.90648127723E+02 0.  0.
         13    1    3    3    0    0 -0.65819397415E+03  0.28682785829E+03 -0.48815913381E+03  0.86821015188E+03  0.00000000000E+00 0.  1.
        -13    1    3    3    0    0 -0.98731821130E+03  0.40215250314E+03 -0.59846463938E+03  0.12225726198E+04  0.00000000000E+00 0. -1.
         22    1    1    2    0    0  0.16455121855E+04 -0.68898036143E+03  0.11514126311E+04  0.21232417050E+04  0.00000000000E+00 0. -1.
<mgrwt>
<rscale>  0 0.42135264E+04</rscale>
<asrwt>0</asrwt>
<pdfrwt beam="1">  1        2 0.32913949E+00 0.42135264E+04</pdfrwt>
<pdfrwt beam="2">  1       -2 0.31917197E+00 0.42135264E+04</pdfrwt>
<totfact> 0.10491929E-01</totfact>
</mgrwt>
</event>
<event>
 6    1  0.1014650E-006  0.3419300E+04  0.7818608E-02  0.8133186E-01
          2   -1    0    0  501    0  0.00000000000E+00  0.00000000000E+00  0.10936536852E+04  0.10936536852E+04  0.00000000000E+00 0. -1.
         -2   -1    0    0    0  501 -0.00000000000E+00 -0.00000000000E+00 -0.26726042239E+04  0.26726042239E+04  0.00000000000E+00 0.  1.
         23    2    1    2    0    0 -0.14517858823E+04 -0.63960672466E+03 -0.14880016797E+04  0.21772170962E+04  0.96676134039E+02 0.  0.
         11    1    3    3    0    0 -0.11612123955E+04 -0.55266653243E+03 -0.11968831173E+04  0.17568106671E+04  0.00000000000E+00 0. -1.
        -11    1    3    3    0    0 -0.29057348682E+03 -0.86940192230E+02 -0.29111856237E+03  0.42040642910E+03  0.00000000000E+00 0.  1.
         22    1    1    2    0    0  0.14517858823E+04  0.63960672466E+03 -0.90948858987E+02  0.15890408130E+04  0.00000000000E+00 0. -1.
<mgrwt>
<rscale>  0 0.34193002E+04</rscale>
<asrwt>0</asrwt>
<pdfrwt beam="1">  1        2 0.16825441E+00 0.34193002E+04</pdfrwt>
<pdfrwt beam="2">  1       -2 0.41116988E+00 0.34193002E+04</pdfrwt>
<totfact> 0.11389543E-01</totfact>
</mgrwt>
</event>
<event>
 6    1  0.1014650E-006  0.4494162E+04  0.7818608E-02  0.7911660E-01
         -2   -1    0    0    0  501 -0.00000000000E+00  0.00000000000E+00  0.13438320922E+04  0.13438320922E+04  0.00000000000E+00 0.  1.
          2   -1    0    0  501    0  0.00000000000E+00 -0.00000000000E+00 -0.37574437347E+04  0.37574437347E+04  0.00000000000E+00 0. -1.
         23    2    1    2    0    0 -0.10482410173E+04 -0.29109023924E+03 -0.34379297549E+04  0.36070300797E+04  0.88103567489E+02 0.  0.
         13    1    3    3    0    0 -0.70568527695E+03 -0.23255070759E+03 -0.22718348747E+04  0.23902521289E+04  0.00000000000E+00 0. -1.
        -13    1    3    3    0    0 -0.34255574033E+03 -0.58539531658E+02 -0.11660948801E+04  0.12167779508E+04  0.00000000000E+00 0.  1.
         22    1    1    2    0    0  0.10482410173E+04  0.29109023924E+03  0.10243181124E+04  0.14942457472E+04  0.00000000000E+00 0.  1.
<mgrwt>
<rscale>  0 0.44941622E+04</rscale>
<asrwt>0</asrwt>
<pdfrwt beam="1">  1        2 0.57806827E+00 0.44941622E+04</pdfrwt>
<pdfrwt beam="2">  1       -2 0.20674340E+00 0.44941622E+04</pdfrwt>
<totfact> 0.48046362E-02</totfact>
</mgrwt>
</event>
<event>
 6    1  0.1014650E-006  0.1759370E+04  0.7818608E-02  0.8728209E-01
         -1   -1    0    0    0  501 -0.00000000000E+00  0.00000000000E+00  0.37843160335E+03  0.37843160335E+03  0.00000000000E+00 0.  1.
          1   -1    0    0  501    0  0.00000000000E+00 -0.00000000000E+00 -0.20448765144E+04  0.20448765144E+04  0.00000000000E+00 0. -1.
         23    2    1    2    0    0 -0.16936385054E+03  0.29847782851E+03  0.27636597332E+03  0.45042006710E+03  0.93418186966E+02 0.  0.
         11    1    3    3    0    0 -0.17233943983E+03  0.26322413033E+03  0.26974342220E+03  0.41442651837E+03  0.00000000000E+00 0.  1.
        -11    1    3    3    0    0  0.29755892922E+01  0.35253698181E+02  0.66225511280E+01  0.35993548735E+02  0.00000000000E+00 0. -1.
         22    1    1    2    0    0  0.16936385054E+03 -0.29847782851E+03 -0.19428108844E+04  0.19728880507E+04  0.00000000000E+00 0. -1.
<mgrwt>
<rscale>  0 0.17593702E+04</rscale>
<asrwt>0</asrwt>
<pdfrwt beam="1">  1        1 0.31459639E+00 0.17593702E+04</pdfrwt>
<pdfrwt beam="2">  1       -1 0.58220247E-01 0.17593702E+04</pdfrwt>
<totfact> 0.78647833E+00</totfact>
</mgrwt>
</event>
<event>
 6    1  0.1014650E-006  0.9715618E+03  0.7818608E-02  0.9340297E-01
          2   -1    0    0  501    0  0.00000000000E+00  0.00000000000E+00  0.84180900573E+03  0.84180900573E+03  0.00000000000E+00 0. -1.
         -2   -1    0    0    0  501 -0.00000000000E+00 -0.00000000000E+00 -0.28032855992E+03  0.28032855992E+03  0.00000000000E+00 0.  1.
         23    2    1    2    0    0 -0.21718108971E+03 -0.34060281640E+03 -0.19608790902E+02  0.41443522336E+03  0.90521519092E+02 0.  0.
         13    1    3    3    0    0 -0.74464947007E+02 -0.18850492601E+03  0.14049854127E+02  0.20316627147E+03  0.00000000000E+00 0. -1.
        -13    1    3    3    0    0 -0.14271614270E+03 -0.15209789039E+03 -0.33658645029E+02  0.21126895189E+03  0.00000000000E+00 0.  1.
         22    1    1    2    0    0  0.21718108971E+03  0.34060281640E+03  0.58108923671E+03  0.70770234229E+03  0.00000000000E+00 0.  1.
<mgrwt>
<rscale>  0 0.97156185E+03</rscale>
<asrwt>0</asrwt>
<pdfrwt beam="1">  1        2 0.12950908E+00 0.97156185E+03</pdfrwt>
<pdfrwt beam="2">  1       -2 0.43127471E-01 0.97156185E+03</pdfrwt>
<totfact> 0.16382722E+02</totfact>
</mgrwt>
</event>
<event>
 6    1  0.1077484E-006  0.4545313E+04  0.7818608E-02  0.7902751E-01
         -2   -1    0    0    0  501 -0.00000000000E+00  0.00000000000E+00  0.23253015610E+04  0.23253015610E+04  0.00000000000E+00 0.  1.
          2   -1    0    0  501    0  0.00000000000E+00 -0.00000000000E+00 -0.22212034294E+04  0.22212034294E+04  0.00000000000E+00 0. -1.
         23    2    1    2    0    0  0.49284348226E+03  0.16185911621E+04  0.15683091527E+04  0.23089514240E+04  0.94504137126E+02 0.  0.
         13    1    3    3    0    0  0.22182899596E+03  0.58484319523E+03  0.55445281181E+03  0.83586337817E+03  0.00000000000E+00 0. -1.
        -13    1    3    3    0    0  0.27101448630E+03  0.10337479669E+04  0.10138563409E+04  0.14730880458E+04  0.00000000000E+00 0.  1.
         22    1    1    2    0    0 -0.49284348226E+03 -0.16185911621E+04 -0.14642110211E+04  0.22375535664E+04  0.00000000000E+00 0. -1.
<mgrwt>
<rscale>  0 0.45453131E+04</rscale>
<asrwt>0</asrwt>
<pdfrwt beam="1">  1        2 0.34172361E+00 0.45453131E+04</pdfrwt>
<pdfrwt beam="2">  1       -2 0.35773870E+00 0.45453131E+04</pdfrwt>
<totfact> 0.52716358E-02</totfact>
</mgrwt>
</event>
<event>
 6    1  0.1014650E-006  0.2145880E+04  0.7818608E-02  0.8541298E-01
          2   -1    0    0  501    0  0.00000000000E+00  0.00000000000E+00  0.76019439197E+03  0.76019439197E+03  0.00000000000E+00 0. -1.
         -2   -1    0    0    0  501 -0.00000000000E+00 -0.00000000000E+00 -0.15143496987E+04  0.15143496987E+04  0.00000000000E+00 0.  1.
         23    2    1    2    0    0  0.32956103712E+01  0.66929482882E+03 -0.12639605833E+04  0.14331952635E+04  0.92118827493E+02 0.  0.
         13    1    3    3    0    0 -0.28862098425E+02  0.28361800087E+03 -0.46496398598E+03  0.54540232802E+03  0.00000000000E+00 0.  1.
        -13    1    3    3    0    0  0.32157708796E+02  0.38567682795E+03 -0.79899659731E+03  0.88779293552E+03  0.00000000000E+00 0. -1.
         22    1    1    2    0    0 -0.32956103712E+01 -0.66929482882E+03  0.50980527655E+03  0.84134882714E+03  0.00000000000E+00 0. -1.
<mgrwt>
<rscale>  0 0.21458799E+04</rscale>
<asrwt>0</asrwt>
<pdfrwt beam="1">  1        2 0.11695298E+00 0.21458799E+04</pdfrwt>
<pdfrwt beam="2">  1       -2 0.23297688E+00 0.21458799E+04</pdfrwt>
<totfact> 0.27699690E+00</totfact>
</mgrwt>
</event>
<event>
 6    1  0.1014650E-006  0.1227073E+04  0.7818608E-02  0.9089484E-01
          2   -1    0    0  501    0  0.00000000000E+00  0.00000000000E+00  0.47011837222E+03  0.47011837222E+03  0.00000000000E+00 0. -1.
         -2   -1    0    0    0  501 -0.00000000000E+00 -0.00000000000E+00 -0.80070719353E+03  0.80070719353E+03  0.00000000000E+00 0.  1.
         23    2    1    2    0    0 -0.22758847637E+03 -0.54861745711E+03 -0.20898853758E+02  0.60098565590E+03  0.89271315060E+02 0.  0.
         11    1    3    3    0    0 -0.83833287100E+02 -0.12922908857E+03 -0.32761698682E+02  0.15748493979E+03  0.00000000000E+00 0. -1.
        -11    1    3    3    0    0 -0.14375518927E+03 -0.41938836854E+03  0.11862844924E+02  0.44350071612E+03  0.00000000000E+00 0.  1.
         22    1    1    2    0    0  0.22758847637E+03  0.54861745711E+03 -0.30968996755E+03  0.66983990984E+03  0.00000000000E+00 0. -1.
<mgrwt>
<rscale>  0 0.12270732E+04</rscale>
<asrwt>0</asrwt>
<pdfrwt beam="1">  1        2 0.72325904E-01 0.12270732E+04</pdfrwt>
<pdfrwt beam="2">  1       -2 0.12318572E+00 0.12270732E+04</pdfrwt>
<totfact> 0.32389889E+01</totfact>
</mgrwt>
</event>
<event>
 6    1  0.1014650E-006  0.3166359E+04  0.7818608E-02  0.8197759E-01
          2   -1    0    0  501    0  0.00000000000E+00  0.00000000000E+00  0.39375123302E+04  0.39375123302E+04  0.00000000000E+00 0. -1.
         -2   -1    0    0    0  501 -0.00000000000E+00 -0.00000000000E+00 -0.63655843099E+03  0.63655843099E+03  0.00000000000E+00 0.  1.
         23    2    1    2    0    0  0.70170116302E+03 -0.13102952364E+04  0.86995322150E+03  0.17246809276E+04  0.91910640531E+02 0.  0.
         13    1    3    3    0    0  0.19903705386E+03 -0.37972814949E+03  0.29966429974E+03  0.52307543324E+03  0.00000000000E+00 0. -1.
        -13    1    3    3    0    0  0.50266410916E+03 -0.93056708688E+03  0.57028892177E+03  0.12016054944E+04  0.00000000000E+00 0.  1.
         22    1    1    2    0    0 -0.70170116302E+03  0.13102952364E+04  0.24310006777E+04  0.28493898335E+04  0.00000000000E+00 0. -1.
<mgrwt>
<rscale>  0 0.31663586E+04</rscale>
<asrwt>0</asrwt>
<pdfrwt beam="1">  1        2 0.60577111E+00 0.31663586E+04</pdfrwt>
<pdfrwt beam="2">  1       -2 0.97932068E-01 0.31663586E+04</pdfrwt>
<totfact> 0.28095687E-01</totfact>
</mgrwt>
</event>
<event>
 6    1  0.1014650E-006  0.1636238E+04  0.7818608E-02  0.8798590E-01
         -2   -1    0    0    0  501 -0.00000000000E+00  0.00000000000E+00  0.44060631168E+03  0.44060631168E+03  0.00000000000E+00 0.  1.
          2   -1    0    0  501    0  0.00000000000E+00 -0.00000000000E+00 -0.15190849939E+04  0.15190849939E+04  0.00000000000E+00 0. -1.
         23    2    1    2    0    0 -0.39464830332E+03 -0.36335274905E+02 -0.13945970310E+04  0.14527412627E+04  0.92134477618E+02 0.  0.
         13    1    3    3    0    0 -0.16153107816E+03 -0.42898428998E+02 -0.45783008868E+03  0.48738173388E+03  0.00000000000E+00 0. -1.
        -13    1    3    3    0    0 -0.23311722517E+03  0.65631540932E+01 -0.93676694232E+03  0.96535952882E+03  0.00000000000E+00 0.  1.
         22    1    1    2    0    0  0.39464830332E+03  0.36335274905E+02  0.31611834880E+03  0.50695004287E+03  0.00000000000E+00 0.  1.
<mgrwt>
<rscale>  0 0.16362377E+04</rscale>
<asrwt>0</asrwt>
<pdfrwt beam="1">  1        2 0.23370538E+00 0.16362377E+04</pdfrwt>
<pdfrwt beam="2">  1       -2 0.67785587E-01 0.16362377E+04</pdfrwt>
<totfact> 0.23607100E+01</totfact>
</mgrwt>
</event>
<event>
 6    1  0.1014650E-006  0.3205639E+04  0.7818608E-02  0.8187329E-01
          2   -1    0    0  501    0  0.00000000000E+00  0.00000000000E+00  0.28678776627E+04  0.28678776627E+04  0.00000000000E+00 0. -1.
         -2   -1    0    0    0  501 -0.00000000000E+00 -0.00000000000E+00 -0.89579503621E+03  0.89579503621E+03  0.00000000000E+00 0.  1.
         23    2    1    2    0    0  0.60489796719E+03  0.91941019158E+03 -0.37920675669E+03  0.11675643779E+04  0.90510557827E+02 0.  0.
         11    1    3    3    0    0  0.37603137412E+03  0.64107456821E+03 -0.23580218756E+03  0.77972999686E+03  0.00000000000E+00 0. -1.
        -11    1    3    3    0    0  0.22886659307E+03  0.27833562336E+03 -0.14340456913E+03  0.38783438102E+03  0.00000000000E+00 0.  1.
         22    1    1    2    0    0 -0.60489796719E+03 -0.91941019158E+03  0.23512893832E+04  0.25961083210E+04  0.00000000000E+00 0. -1.
<mgrwt>
<rscale>  0 0.32056391E+04</rscale>
<asrwt>0</asrwt>
<pdfrwt beam="1">  1        2 0.44121194E+00 0.32056391E+04</pdfrwt>
<pdfrwt beam="2">  1       -2 0.13781462E+00 0.32056391E+04</pdfrwt>
<totfact> 0.66167642E-01</totfact>
</mgrwt>
</event>
<event>
 6    1  0.1014650E-006  0.1161406E+04  0.7818608E-02  0.9147325E-01
         -2   -1    0    0    0  501 -0.00000000000E+00  0.00000000000E+00  0.10204216569E+03  0.10204216569E+03  0.00000000000E+00 0.  1.
          2   -1    0    0  501    0  0.00000000000E+00 -0.00000000000E+00 -0.33046739239E+04  0.33046739239E+04  0.00000000000E+00 0. -1.
         23    2    1    2    0    0 -0.39244110031E+03  0.42263191358E+03 -0.16656291302E+04  0.17650691026E+04  0.92308102594E+02 0.  0.
         11    1    3    3    0    0 -0.26962821695E+03  0.29723126605E+03 -0.10228969501E+04  0.10988011519E+04  0.00000000000E+00 0. -1.
        -11    1    3    3    0    0 -0.12281288335E+03  0.12540064753E+03 -0.64273218016E+03  0.66626795070E+03  0.00000000000E+00 0.  1.
         22    1    1    2    0    0  0.39244110031E+03 -0.42263191358E+03 -0.15370026280E+04  0.16416469870E+04  0.00000000000E+00 0.  1.
<mgrwt>
<rscale>  0 0.11614062E+04</rscale>
<asrwt>0</asrwt>
<pdfrwt beam="1">  1        2 0.50841141E+00 0.11614062E+04</pdfrwt>
<pdfrwt beam="2">  1       -2 0.15698793E-01 0.11614062E+04</pdfrwt>
<totfact> 0.36377005E+01</totfact>
</mgrwt>
</event>
<event>
 6    1  0.1014650E-006  0.1261445E+04  0.7818608E-02  0.9060711E-01
          1   -1    0    0  501    0  0.00000000000E+00  0.00000000000E+00  0.15449581830E+04  0.15449581830E+04  0.00000000000E+00 0. -1.
         -1   -1    0    0    0  501 -0.00000000000E+00 -0.00000000000E+00 -0.25748973866E+03  0.25748973866E+03  0.00000000000E+00 0.  1.
         23    2    1    2    0    0  0.62233592541E+03  0.72579888160E+02  0.69395054595E+03  0.93941064557E+03  0.91406545525E+02 0.  0.
         13    1    3    3    0    0  0.40187772222E+03  0.20896827536E+02  0.49543168063E+03  0.63827496519E+03  0.00000000000E+00 0. -1.
        -13    1    3    3    0    0  0.22045820320E+03  0.51683060624E+02  0.19851886532E+03  0.30113568038E+03  0.00000000000E+00 0.  1.
         22    1    1    2    0    0 -0.62233592541E+03 -0.72579888160E+02  0.59351789839E+03  0.86303727610E+03  0.00000000000E+00 0.  1.
<mgrwt>
<rscale>  0 0.12614450E+04</rscale>
<asrwt>0</asrwt>
<pdfrwt beam="1">  1        1 0.23768587E+00 0.12614450E+04</pdfrwt>
<pdfrwt beam="2">  1       -1 0.39613807E-01 0.12614450E+04</pdfrwt>
<totfact> 0.37195916E+01</totfact>
</mgrwt>
</event>
<event>
 6    1  0.1014650E-006  0.5168833E+04  0.7818608E-02  0.7802978E-01
          2   -1    0    0  501    0  0.00000000000E+00  0.00000000000E+00  0.25388262251E+04  0.25388262251E+04  0.00000000000E+00 0. -1.
         -2   -1    0    0    0  501 -0.00000000000E+00 -0.00000000000E+00 -0.26308258661E+04  0.26308258661E+04  0.00000000000E+00 0.  1.
         23    2    1    2    0    0  0.13589605029E+03  0.25675683951E+04 -0.29936224004E+03  0.25901415858E+04  0.91326250817E+02 0.  0.
         13    1    3    3    0    0 -0.73589823360E+01  0.58419853521E+03 -0.66590659077E+02  0.58802754956E+03  0.00000000000E+00 0. -1.
        -13    1    3    3    0    0  0.14325503263E+03  0.19833698599E+04 -0.23277158096E+03  0.20021140363E+04  0.00000000000E+00 0.  1.
         22    1    1    2    0    0 -0.13589605029E+03 -0.25675683951E+04  0.20736259910E+03  0.25795105054E+04  0.00000000000E+00 0. -1.
<mgrwt>
<rscale>  0 0.51688334E+04</rscale>
<asrwt>0</asrwt>
<pdfrwt beam="1">  1        2 0.39058865E+00 0.51688334E+04</pdfrwt>
<pdfrwt beam="2">  1       -2 0.40474244E+00 0.51688334E+04</pdfrwt>
<totfact> 0.16420144E-02</totfact>
</mgrwt>
</event>
<event>
 6    1  0.1014650E-006  0.3250692E+04  0.7818608E-02  0.8175556E-01
         -3   -1    0    0    0  501 -0.00000000000E+00  0.00000000000E+00  0.26870050970E+04  0.26870050970E+04  0.00000000000E+00 0.  1.
          3   -1    0    0  501    0  0.00000000000E+00 -0.00000000000E+00 -0.98315780618E+03  0.98315780618E+03  0.00000000000E+00 0. -1.
         23    2    1    2    0    0  0.12717857651E+04 -0.69444091295E+03  0.16808031504E+04  0.22209499284E+04  0.88499378350E+02 0.  0.
         11    1    3    3    0    0  0.26720641877E+03 -0.11898821176E+03  0.29947455312E+03  0.41861972330E+03  0.00000000000E+00 0.  1.
        -11    1    3    3    0    0  0.10045793463E+04 -0.57545270119E+03  0.13813285973E+04  0.18023302051E+04  0.00000000000E+00 0. -1.
         22    1    1    2    0    0 -0.12717857651E+04  0.69444091295E+03  0.23044140343E+02  0.14492129748E+04  0.00000000000E+00 0.  1.
<mgrwt>
<rscale>  0 0.32506923E+04</rscale>
<asrwt>0</asrwt>
<pdfrwt beam="1">  1        3 0.15125505E+00 0.32506923E+04</pdfrwt>
<pdfrwt beam="2">  1       -3 0.41338540E+00 0.32506923E+04</pdfrwt>
<totfact> 0.61364473E-03</totfact>
</mgrwt>
</event>
<event>
 6    1  0.1014650E-006  0.1274615E+04  0.7818608E-02  0.9049941E-01
         -2   -1    0    0    0  501 -0.00000000000E+00  0.00000000000E+00  0.64697246605E+03  0.64697246605E+03  0.00000000000E+00 0.  1.
          2   -1    0    0  501    0  0.00000000000E+00 -0.00000000000E+00 -0.62778703126E+03  0.62778703126E+03  0.00000000000E+00 0. -1.
         23    2    1    2    0    0 -0.16719245722E+03  0.37928894947E+03 -0.47017954141E+03  0.63343937063E+03  0.91450588658E+02 0.  0.
         11    1    3    3    0    0 -0.37214365504E+02  0.74552569684E+02 -0.45885456665E+02  0.95123444953E+02  0.00000000000E+00 0. -1.
        -11    1    3    3    0    0 -0.12997809172E+03  0.30473637979E+03 -0.42429408474E+03  0.53831592568E+03  0.00000000000E+00 0.  1.
         22    1    1    2    0    0  0.16719245722E+03 -0.37928894947E+03  0.48936497620E+03  0.64132012667E+03  0.00000000000E+00 0.  1.
<mgrwt>
<rscale>  0 0.12746151E+04</rscale>
<asrwt>0</asrwt>
<pdfrwt beam="1">  1        2 0.96582620E-01 0.12746151E+04</pdfrwt>
<pdfrwt beam="2">  1       -2 0.99534226E-01 0.12746151E+04</pdfrwt>
<totfact> 0.38496855E+01</totfact>
</mgrwt>
</event>
<event>
 6    1  0.1191997E-006  0.2832637E+04  0.7818608E-02  0.8293207E-01
          1   -1    0    0  501    0  0.00000000000E+00  0.00000000000E+00  0.15560509614E+04  0.15560509614E+04  0.00000000000E+00 0. -1.
         -1   -1    0    0    0  501 -0.00000000000E+00 -0.00000000000E+00 -0.12891337805E+04  0.12891337805E+04  0.00000000000E+00 0.  1.
         23    2    1    2    0    0  0.46138941935E+03  0.43628219465E+03  0.14036524254E+04  0.15431135588E+04  0.87960071521E+02 0.  0.
         13    1    3    3    0    0  0.18317118289E+03  0.17389130597E+03  0.45733198204E+03  0.52243890584E+03  0.00000000000E+00 0.  1.
        -13    1    3    3    0    0  0.27821823645E+03  0.26239088867E+03  0.94632044339E+03  0.10206746529E+04  0.00000000000E+00 0. -1.
         22    1    1    2    0    0 -0.46138941935E+03 -0.43628219465E+03 -0.11367352445E+04  0.13020711831E+04  0.00000000000E+00 0.  1.
<mgrwt>
<rscale>  0 0.28326368E+04</rscale>
<asrwt>0</asrwt>
<pdfrwt beam="1">  1        1 0.23939245E+00 0.28326368E+04</pdfrwt>
<pdfrwt beam="2">  1       -1 0.19832827E+00 0.28326368E+04</pdfrwt>
<totfact> 0.79837695E-01</totfact>
</mgrwt>
</event>
<event>
 6    1  0.1014650E-006  0.1687698E+04  0.7818608E-02  0.8768412E-01
          4   -1    0    0  501    0  0.00000000000E+00  0.00000000000E+00  0.36246566832E+03  0.36246566832E+03  0.00000000000E+00 0. -1.
         -4   -1    0    0    0  501 -0.00000000000E+00 -0.00000000000E+00 -0.19645480232E+04  0.19645480232E+04  0.00000000000E+00 0.  1.
         23    2    1    2    0    0 -0.59085108975E+02 -0.65573178860E+03 -0.15257456435E+04  0.16642146857E+04  0.90749780817E+02 0.  0.
         13    1    3    3    0    0 -0.71941306037E+02 -0.45583334996E+03 -0.11318657166E+04  0.12223254865E+04  0.00000000000E+00 0. -1.
        -13    1    3    3    0    0  0.12856197062E+02 -0.19989843864E+03 -0.39387992687E+03  0.44188919919E+03  0.00000000000E+00 0.  1.
         22    1    1    2    0    0  0.59085108975E+02  0.65573178860E+03 -0.76336711421E+02  0.66279900588E+03  0.00000000000E+00 0. -1.
<mgrwt>
<rscale>  0 0.16876981E+04</rscale>
<asrwt>0</asrwt>
<pdfrwt beam="1">  1        4 0.55763950E-01 0.16876981E+04</pdfrwt>
<pdfrwt beam="2">  1       -4 0.30223815E+00 0.16876981E+04</pdfrwt>
<totfact> 0.17552470E-01</totfact>
</mgrwt>
</event>
<event>
 6    1  0.1014650E-006  0.2087687E+04  0.7818608E-02  0.8566687E-01
         -2   -1    0    0    0  501 -0.00000000000E+00  0.00000000000E+00  0.14979725325E+04  0.14979725325E+04  0.00000000000E+00 0.  1.
          2   -1    0    0  501    0  0.00000000000E+00 -0.00000000000E+00 -0.72738959411E+03  0.72738959411E+03  0.00000000000E+00 0. -1.
         23    2    1    2    0    0 -0.77887784590E+03  0.67676531082E+03  0.23224455285E+03  0.10615450439E+04  0.90985510104E+02 0.  0.
         11    1    3    3    0    0 -0.18576483206E+03  0.11983331640E+03  0.29180698508E+02  0.22298006574E+03  0.00000000000E+00 0. -1.
        -11    1    3    3    0    0 -0.59311301384E+03  0.55693199441E+03  0.20306385435E+03  0.83856497812E+03  0.00000000000E+00 0.  1.
         22    1    1    2    0    0  0.77887784590E+03 -0.67676531082E+03  0.53833838553E+03  0.11638170827E+04  0.00000000000E+00 0.  1.
<mgrwt>
<rscale>  0 0.20876874E+04</rscale>
<asrwt>0</asrwt>
<pdfrwt beam="1">  1        2 0.11190609E+00 0.20876874E+04</pdfrwt>
<pdfrwt beam="2">  1       -2 0.23045731E+00 0.20876874E+04</pdfrwt>
<totfact> 0.30555318E+00</totfact>
</mgrwt>
</event>
<event>
 6    1  0.1014650E-006  0.2402923E+04  0.7818608E-02  0.8438410E-01
         -1   -1    0    0    0  501 -0.00000000000E+00  0.00000000000E+00  0.97423406245E+03  0.97423406245E+03  0.00000000000E+00 0.  1.
          1   -1    0    0  501    0  0.00000000000E+00 -0.00000000000E+00 -0.14816864992E+04  0.14816864992E+04  0.00000000000E+00 0. -1.
         23    2    1    2    0    0  0.61688093668E+03 -0.98545819536E+03  0.48704786891E+02  0.11671301201E+04  0.90280762766E+02 0.  0.
         13    1    3    3    0    0  0.33830611618E+03 -0.52623292161E+03 -0.18218430118E+02  0.62586262648E+03  0.00000000000E+00 0. -1.
        -13    1    3    3    0    0  0.27857482050E+03 -0.45922527376E+03  0.66923217008E+02  0.54126749362E+03  0.00000000000E+00 0.  1.
         22    1    1    2    0    0 -0.61688093668E+03  0.98545819536E+03 -0.55615722366E+03  0.12887904416E+04  0.00000000000E+00 0.  1.
<mgrwt>
<rscale>  0 0.24029228E+04</rscale>
<asrwt>0</asrwt>
<pdfrwt beam="1">  1        1 0.22795177E+00 0.24029228E+04</pdfrwt>
<pdfrwt beam="2">  1       -1 0.14988216E+00 0.24029228E+04</pdfrwt>
<totfact> 0.21101281E+00</totfact>
</mgrwt>
</event>
<event>
 6    1  0.1014650E-006  0.3146973E+04  0.7818608E-02  0.8202964E-01
          2   -1    0    0  501    0  0.00000000000E+00  0.00000000000E+00  0.36822646951E+04  0.36822646951E+04  0.00000000000E+00 0. -1.
         -2   -1    0    0    0  501 -0.00000000000E+00 -0.00000000000E+00 -0.67237404689E+03  0.67237404689E+03  0.00000000000E+00 0.  1.
         23    2    1    2    0    0 -0.84693183486E+03 -0.10675817211E+04  0.42108427011E+03  0.14290716641E+04  0.88935900475E+02 0.  0.
         13    1    3    3    0    0 -0.10169922060E+03 -0.17920186390E+03  0.61355473353E+02  0.21498961279E+03  0.00000000000E+00 0. -1.
        -13    1    3    3    0    0 -0.74523261426E+03 -0.88837985720E+03  0.35972879675E+03  0.12140820513E+04  0.00000000000E+00 0.  1.
         22    1    1    2    0    0  0.84693183486E+03  0.10675817211E+04  0.25888063781E+04  0.29255670779E+04  0.00000000000E+00 0. -1.
<mgrwt>
<rscale>  0 0.31469726E+04</rscale>
<asrwt>0</asrwt>
<pdfrwt beam="1">  1        2 0.56650225E+00 0.31469726E+04</pdfrwt>
<pdfrwt beam="2">  1       -2 0.10344216E+00 0.31469726E+04</pdfrwt>
<totfact> 0.38713348E-01</totfact>
</mgrwt>
</event>
<event>
 6    1  0.1014650E-006  0.3982323E+04  0.7818608E-02  0.8008122E-01
          1   -1    0    0  501    0  0.00000000000E+00  0.00000000000E+00  0.11809105518E+04  0.11809105518E+04  0.00000000000E+00 0. -1.
         -1   -1    0    0    0  501 -0.00000000000E+00 -0.00000000000E+00 -0.33573454812E+04  0.33573454812E+04  0.00000000000E+00 0.  1.
         23    2    1    2    0    0  0.56759442250E+03  0.11846554325E+04  0.61517324821E+03  0.14530253870E+04  0.85280288219E+02 0.  0.
         13    1    3    3    0    0  0.24549764286E+03  0.57805972132E+03  0.25879912059E+03  0.67926365933E+03  0.00000000000E+00 0. -1.
        -13    1    3    3    0    0  0.32209677964E+03  0.60659571120E+03  0.35637412762E+03  0.77376172762E+03  0.00000000000E+00 0.  1.
         22    1    1    2    0    0 -0.56759442250E+03 -0.11846554325E+04 -0.27916081776E+04  0.30852306461E+04  0.00000000000E+00 0.  1.
<mgrwt>
<rscale>  0 0.39823233E+04</rscale>
<asrwt>0</asrwt>
<pdfrwt beam="1">  1        1 0.18167855E+00 0.39823233E+04</pdfrwt>
<pdfrwt beam="2">  1       -1 0.51651469E+00 0.39823233E+04</pdfrwt>
<totfact> 0.10147671E-02</totfact>
</mgrwt>
</event>
<event>
 6    1  0.1014650E-006  0.2000273E+04  0.7818608E-02  0.8606493E-01
          3   -1    0    0  501    0  0.00000000000E+00  0.00000000000E+00  0.12881617851E+04  0.12881617851E+04  0.00000000000E+00 0. -1.
         -3   -1    0    0    0  501 -0.00000000000E+00 -0.00000000000E+00 -0.77651198576E+03  0.77651198576E+03  0.00000000000E+00 0.  1.
         23    2    1    2    0    0  0.78825064081E+03  0.45918829838E+03  0.67059479833E+03  0.11386843115E+04  0.12129143276E+03 0.  0.
         13    1    3    3    0    0  0.90455704519E+02  0.78598078851E+02  0.13350208546E+03  0.17939537146E+03  0.00000000000E+00 0. -1.
        -13    1    3    3    0    0  0.69779493629E+03  0.38059021953E+03  0.53709271287E+03  0.95928894006E+03  0.00000000000E+00 0.  1.
         22    1    1    2    0    0 -0.78825064081E+03 -0.45918829838E+03 -0.15894499899E+03  0.92598945934E+03  0.00000000000E+00 0.  1.
<mgrwt>
<rscale>  0 0.20002730E+04</rscale>
<asrwt>0</asrwt>
<pdfrwt beam="1">  1        3 0.19817874E+00 0.20002730E+04</pdfrwt>
<pdfrwt beam="2">  1       -3 0.11946338E+00 0.20002730E+04</pdfrwt>
<totfact> 0.20990308E-01</totfact>
</mgrwt>
</event>
<event>
 6    1  0.1014650E-006  0.1342317E+04  0.7818608E-02  0.8996665E-01
          2   -1    0    0  501    0  0.00000000000E+00  0.00000000000E+00  0.82957449521E+03  0.82957449521E+03  0.00000000000E+00 0. -1.
         -2   -1    0    0    0  501 -0.00000000000E+00 -0.00000000000E+00 -0.54299351971E+03  0.54299351971E+03  0.00000000000E+00 0.  1.
         23    2    1    2    0    0 -0.13305347005E+03  0.21587393755E+02  0.81309167766E+03  0.82907674456E+03  0.89893996629E+02 0.  0.
         11    1    3    3    0    0  0.31154864729E+01 -0.13420566577E+02  0.18164851143E+03  0.18217024885E+03  0.00000000000E+00 0. -1.
        -11    1    3    3    0    0 -0.13616895653E+03  0.35007960332E+02  0.63144316623E+03  0.64690649571E+03  0.00000000000E+00 0.  1.
         22    1    1    2    0    0  0.13305347005E+03 -0.21587393755E+02 -0.52651070216E+03  0.54349127035E+03  0.00000000000E+00 0.  1.
<mgrwt>
<rscale>  0 0.13423168E+04</rscale>
<asrwt>0</asrwt>
<pdfrwt beam="1">  1        2 0.12762684E+00 0.13423168E+04</pdfrwt>
<pdfrwt beam="2">  1       -2 0.83537465E-01 0.13423168E+04</pdfrwt>
<totfact> 0.40202901E+01</totfact>
</mgrwt>
</event>
<event>
 6    1  0.1014650E-006  0.3137695E+04  0.7818608E-02  0.8205468E-01
         -2   -1    0    0    0  501 -0.00000000000E+00  0.00000000000E+00  0.20894617172E+04  0.20894617172E+04  0.00000000000E+00 0.  1.
          2   -1    0    0  501    0  0.00000000000E+00 -0.00000000000E+00 -0.11779501503E+04  0.11779501503E+04  0.00000000000E+00 0. -1.
         23    2    1    2    0    0  0.15134671138E+04 -0.40704947290E+03  0.48792626458E+03  0.16439290416E+04  0.90325391235E+02 0.  0.
         13    1    3    3    0    0  0.92016349608E+03 -0.26838479089E+03  0.33913754964E+03  0.10167327737E+04  0.00000000000E+00 0. -1.
        -13    1    3    3    0    0  0.59330361767E+03 -0.13866468201E+03  0.14878871493E+03  0.62719626790E+03  0.00000000000E+00 0.  1.
         22    1    1    2    0    0 -0.15134671138E+04  0.40704947290E+03  0.42358530234E+03  0.16234828260E+04  0.00000000000E+00 0. -1.
<mgrwt>
<rscale>  0 0.31376945E+04</rscale>
<asrwt>0</asrwt>
<pdfrwt beam="1">  1        2 0.18122310E+00 0.31376945E+04</pdfrwt>
<pdfrwt beam="2">  1       -2 0.32145565E+00 0.31376945E+04</pdfrwt>
<totfact> 0.38754873E-01</totfact>
</mgrwt>
</event>
<event>
 6    1  0.1014650E-006  0.1897626E+04  0.7818608E-02  0.8656039E-01
         -2   -1    0    0    0  501 -0.00000000000E+00  0.00000000000E+00  0.78165051456E+03  0.78165051456E+03  0.00000000000E+00 0.  1.
          2   -1    0    0  501    0  0.00000000000E+00 -0.00000000000E+00 -0.11517248379E+04  0.11517248379E+04  0.00000000000E+00 0. -1.
         23    2    1    2    0    0  0.59625577108E+03  0.11785825660E+03  0.55395548958E+03  0.82737236495E+03  0.90922124122E+02 0.  0.
         11    1    3    3    0    0  0.57940090037E+03  0.97299966304E+02  0.53611524761E+03  0.79535667817E+03  0.00000000000E+00 0. -1.
        -11    1    3    3    0    0  0.16854870716E+02  0.20558290294E+02  0.17840241965E+02  0.32015686781E+02  0.00000000000E+00 0.  1.
         22    1    1    2    0    0 -0.59625577108E+03 -0.11785825660E+03 -0.92402981293E+03  0.11060029875E+04  0.00000000000E+00 0. -1.
<mgrwt>
<rscale>  0 0.18976262E+04</rscale>
<asrwt>0</asrwt>
<pdfrwt beam="1">  1        2 0.17718844E+00 0.18976262E+04</pdfrwt>
<pdfrwt beam="2">  1       -2 0.12025393E+00 0.18976262E+04</pdfrwt>
<totfact> 0.10022898E+01</totfact>
</mgrwt>
</event>
<event>
 6    1  0.1014650E-006  0.1409437E+04  0.7818608E-02  0.8947016E-01
         -2   -1    0    0    0  501 -0.00000000000E+00  0.00000000000E+00  0.28814110685E+03  0.28814110685E+03  0.00000000000E+00 0.  1.
          2   -1    0    0  501    0  0.00000000000E+00 -0.00000000000E+00 -0.17235583648E+04  0.17235583648E+04  0.00000000000E+00 0. -1.
         23    2    1    2    0    0  0.58251017056E+03 -0.32061863721E+03 -0.10414242582E+04  0.12388185667E+04  0.89401042085E+02 0.  0.
         13    1    3    3    0    0  0.39917508507E+03 -0.25295948178E+03 -0.78729819041E+03  0.91824162865E+03  0.00000000000E+00 0. -1.
        -13    1    3    3    0    0  0.18333508550E+03 -0.67659155432E+02 -0.25412606778E+03  0.32057693806E+03  0.00000000000E+00 0.  1.
         22    1    1    2    0    0 -0.58251017056E+03  0.32061863721E+03 -0.39399299973E+03  0.77288090491E+03  0.00000000000E+00 0. -1.
<mgrwt>
<rscale>  0 0.14094368E+04</rscale>
<asrwt>0</asrwt>
<pdfrwt beam="1">  1        2 0.26516283E+00 0.14094368E+04</pdfrwt>
<pdfrwt beam="2">  1       -2 0.44329400E-01 0.14094368E+04</pdfrwt>
<totfact> 0.44660018E+01</totfact>
</mgrwt>
</event>
<event>
 6    1  0.1014650E-006  0.2647663E+04  0.7818608E-02  0.8352189E-01
          2   -1    0    0  501    0  0.00000000000E+00  0.00000000000E+00  0.44977872906E+04  0.44977872906E+04  0.00000000000E+00 0. -1.
         -2   -1    0    0    0  501 -0.00000000000E+00 -0.00000000000E+00 -0.38964261832E+03  0.38964261832E+03  0.00000000000E+00 0.  1.
         23    2    1    2    0    0  0.99326470367E+03  0.82022292854E+03  0.15080912655E+04  0.19857720824E+04  0.98036086177E+02 0.  0.
         13    1    3    3    0    0  0.45660270275E+03  0.31419728945E+03  0.64362935831E+03  0.84939079094E+03  0.00000000000E+00 0. -1.
        -13    1    3    3    0    0  0.53666200091E+03  0.50602563909E+03  0.86446190720E+03  0.11363812915E+04  0.00000000000E+00 0.  1.
         22    1    1    2    0    0 -0.99326470367E+03 -0.82022292854E+03  0.26000534068E+04  0.29016578265E+04  0.00000000000E+00 0. -1.
<mgrwt>
<rscale>  0 0.26476628E+04</rscale>
<asrwt>0</asrwt>
<pdfrwt beam="1">  1        2 0.69196724E+00 0.26476628E+04</pdfrwt>
<pdfrwt beam="2">  1       -2 0.59945021E-01 0.26476628E+04</pdfrwt>
<totfact> 0.28380173E-01</totfact>
</mgrwt>
</event>
<event>
 6    1  0.1014650E-006  0.1351749E+04  0.7818608E-02  0.8989505E-01
          2   -1    0    0  501    0  0.00000000000E+00  0.00000000000E+00  0.91608587183E+03  0.91608587183E+03  0.00000000000E+00 0. -1.
         -2   -1    0    0    0  501 -0.00000000000E+00 -0.00000000000E+00 -0.49864996406E+03  0.49864996406E+03  0.00000000000E+00 0.  1.
         23    2    1    2    0    0  0.30084276342E+03 -0.60130227949E+03  0.22237722934E+03  0.71465106413E+03  0.95935977183E+02 0.  0.
         11    1    3    3    0    0 -0.45868434546E+01 -0.38714299503E+02  0.11052204871E+02  0.40521443106E+02  0.00000000000E+00 0. -1.
        -11    1    3    3    0    0  0.30542960688E+03 -0.56258797999E+03  0.21132502447E+03  0.67412962103E+03  0.00000000000E+00 0.  1.
         22    1    1    2    0    0 -0.30084276342E+03  0.60130227949E+03  0.19505867842E+03  0.70008477176E+03  0.00000000000E+00 0. -1.
<mgrwt>
<rscale>  0 0.13517488E+04</rscale>
<asrwt>0</asrwt>
<pdfrwt beam="1">  1        2 0.14093629E+00 0.13517488E+04</pdfrwt>
<pdfrwt beam="2">  1       -2 0.76715379E-01 0.13517488E+04</pdfrwt>
<totfact> 0.42424768E+01</totfact>
</mgrwt>
</event>
<event>
 6    1  0.1014650E-006  0.4762442E+04  0.7818608E-02  0.7866235E-01
         -1   -1    0    0    0  501 -0.00000000000E+00  0.00000000000E+00  0.22666503458E+04  0.22666503458E+04  0.00000000000E+00 0.  1.
          1   -1    0    0  501    0  0.00000000000E+00 -0.00000000000E+00 -0.25015831420E+04  0.25015831420E+04  0.00000000000E+00 0. -1.
         23    2    1    2    0    0  0.11617234179E+04  0.11740367666E+04  0.15986815261E+04  0.23004196553E+04  0.90467340120E+02 0.  0.
         13    1    3    3    0    0  0.10093772950E+04  0.10605919888E+04  0.14094491752E+04  0.20323003882E+04  0.00000000000E+00 0. -1.
        -13    1    3    3    0    0  0.15234612295E+03  0.11344477780E+03  0.18923235091E+03  0.26811926716E+03  0.00000000000E+00 0.  1.
         22    1    1    2    0    0 -0.11617234179E+04 -0.11740367666E+04 -0.18336143222E+04  0.24678138325E+04  0.00000000000E+00 0. -1.
<mgrwt>
<rscale>  0 0.47624424E+04</rscale>
<asrwt>0</asrwt>
<pdfrwt beam="1">  1        1 0.38485895E+00 0.47624424E+04</pdfrwt>
<pdfrwt beam="2">  1       -1 0.34871543E+00 0.47624424E+04</pdfrwt>
<totfact> 0.15753408E-02</totfact>
</mgrwt>
</event>
<event>
 6    1  0.1014650E-006  0.2941941E+04  0.7818608E-02  0.8260507E-01
          2   -1    0    0  501    0  0.00000000000E+00  0.00000000000E+00  0.21602646606E+04  0.21602646606E+04  0.00000000000E+00 0. -1.
         -2   -1    0    0    0  501 -0.00000000000E+00 -0.00000000000E+00 -0.10016156567E+04  0.10016156567E+04  0.00000000000E+00 0.  1.
         23    2    1    2    0    0  0.12272304554E+04 -0.75558230812E+03  0.27116846584E+03  0.14693612124E+04  0.92145648672E+02 0.  0.
         11    1    3    3    0    0  0.56703416516E+03 -0.29834416464E+03  0.10502126666E+03  0.64928148864E+03  0.00000000000E+00 0. -1.
        -11    1    3    3    0    0  0.66019629028E+03 -0.45723814349E+03  0.16614719918E+03  0.82007972378E+03  0.00000000000E+00 0.  1.
         22    1    1    2    0    0 -0.12272304554E+04  0.75558230812E+03  0.88748053805E+03  0.16925191049E+04  0.00000000000E+00 0. -1.
<mgrwt>
<rscale>  0 0.29419415E+04</rscale>
<asrwt>0</asrwt>
<pdfrwt beam="1">  1        2 0.33234841E+00 0.29419415E+04</pdfrwt>
<pdfrwt beam="2">  1       -2 0.15409472E+00 0.29419415E+04</pdfrwt>
<totfact> 0.13039320E+00</totfact>
</mgrwt>
</event>
<event>
 6    1  0.1014650E-006  0.1802380E+04  0.7818608E-02  0.8705035E-01
          2   -1    0    0  501    0  0.00000000000E+00  0.00000000000E+00  0.12300305947E+04  0.12300305947E+04  0.00000000000E+00 0. -1.
         -2   -1    0    0    0  501 -0.00000000000E+00 -0.00000000000E+00 -0.66026272782E+03  0.66026272782E+03  0.00000000000E+00 0.  1.
         23    2    1    2    0    0  0.84587940667E+03  0.19005014186E+03  0.36512642695E+02  0.87245632122E+03  0.90641228530E+02 0.  0.
         11    1    3    3    0    0  0.44122962608E+03  0.53555731534E+02  0.27320167002E+02  0.44530685020E+03  0.00000000000E+00 0. -1.
        -11    1    3    3    0    0  0.40464978060E+03  0.13649441033E+03  0.91924756926E+01  0.42714947102E+03  0.00000000000E+00 0.  1.
         22    1    1    2    0    0 -0.84587940667E+03 -0.19005014186E+03  0.53325522415E+03  0.10178370013E+04  0.00000000000E+00 0. -1.
<mgrwt>
<rscale>  0 0.18023799E+04</rscale>
<asrwt>0</asrwt>
<pdfrwt beam="1">  1        2 0.18923548E+00 0.18023799E+04</pdfrwt>
<pdfrwt beam="2">  1       -2 0.10157888E+00 0.18023799E+04</pdfrwt>
<totfact> 0.13654564E+01</totfact>
</mgrwt>
</event>
<event>
 6    1  0.1014650E-006  0.2828359E+04  0.7818608E-02  0.8294518E-01
          2   -1    0    0  501    0  0.00000000000E+00  0.00000000000E+00  0.15730565834E+04  0.15730565834E+04  0.00000000000E+00 0. -1.
         -2   -1    0    0    0  501 -0.00000000000E+00 -0.00000000000E+00 -0.12713488247E+04  0.12713488247E+04  0.00000000000E+00 0.  1.
         23    2    1    2    0    0  0.33260183451E+03  0.79732068062E+03  0.12750770509E+04  0.15429477534E+04  0.92314874403E+02 0.  0.
         11    1    3    3    0    0  0.13419836422E+03  0.21504651010E+03  0.38719672649E+03  0.46279099762E+03  0.00000000000E+00 0.  1.
        -11    1    3    3    0    0  0.19840347028E+03  0.58227417051E+03  0.88788032442E+03  0.10801567558E+04  0.00000000000E+00 0. -1.
         22    1    1    2    0    0 -0.33260183451E+03 -0.79732068062E+03 -0.97336929221E+03  0.13014576547E+04  0.00000000000E+00 0.  1.
<mgrwt>
<rscale>  0 0.28283590E+04</rscale>
<asrwt>0</asrwt>
<pdfrwt beam="1">  1        2 0.24200871E+00 0.28283590E+04</pdfrwt>
<pdfrwt beam="2">  1       -2 0.19559213E+00 0.28283590E+04</pdfrwt>
<totfact> 0.14258284E+00</totfact>
</mgrwt>
</event>
<event>
 6    1  0.1014650E-006  0.4129618E+04  0.7818608E-02  0.7978897E-01
          1   -1    0    0  501    0  0.00000000000E+00  0.00000000000E+00  0.32978372406E+04  0.32978372406E+04  0.00000000000E+00 0. -1.
         -1   -1    0    0    0  501 -0.00000000000E+00 -0.00000000000E+00 -0.12927975555E+04  0.12927975555E+04  0.00000000000E+00 0.  1.
         23    2    1    2    0    0  0.74410555993E+02 -0.11743366326E+04  0.28877109114E+04  0.31196786611E+04  0.94430838986E+02 0.  0.
         13    1    3    3    0    0  0.56654517425E+02 -0.53559704262E+03  0.14302906245E+04  0.15283341248E+04  0.00000000000E+00 0. -1.
        -13    1    3    3    0    0  0.17756038568E+02 -0.63873958995E+03  0.14574202868E+04  0.15913445363E+04  0.00000000000E+00 0.  1.
         22    1    1    2    0    0 -0.74410555993E+02  0.11743366326E+04 -0.88267122629E+03  0.14709561350E+04  0.00000000000E+00 0.  1.
<mgrwt>
<rscale>  0 0.41296179E+04</rscale>
<asrwt>0</asrwt>
<pdfrwt beam="1">  1        1 0.50735957E+00 0.41296179E+04</pdfrwt>
<pdfrwt beam="2">  1       -1 0.19889193E+00 0.41296179E+04</pdfrwt>
<totfact> 0.42482481E-02</totfact>
</mgrwt>
</event>
<event>
 6    1  0.1014650E-006  0.4124945E+04  0.7818608E-02  0.7979805E-01
         -2   -1    0    0    0  501 -0.00000000000E+00  0.00000000000E+00  0.10195959004E+04  0.10195959004E+04  0.00000000000E+00 0.  1.
          2   -1    0    0  501    0  0.00000000000E+00 -0.00000000000E+00 -0.41720384056E+04  0.41720384056E+04  0.00000000000E+00 0. -1.
         23    2    1    2    0    0  0.95357459637E+03  0.58374281824E+03 -0.37567607613E+04  0.39207052193E+04  0.92832164222E+02 0.  0.
         13    1    3    3    0    0  0.51912044005E+03  0.35201175303E+03 -0.19790500907E+04  0.20760629969E+04  0.00000000000E+00 0. -1.
        -13    1    3    3    0    0  0.43445415632E+03  0.23173106521E+03 -0.17777106706E+04  0.18446422225E+04  0.00000000000E+00 0.  1.
         22    1    1    2    0    0 -0.95357459637E+03 -0.58374281824E+03  0.60431825611E+03  0.12709290867E+04  0.00000000000E+00 0.  1.
<mgrwt>
<rscale>  0 0.41249452E+04</rscale>
<asrwt>0</asrwt>
<pdfrwt beam="1">  1        2 0.64185205E+00 0.41249452E+04</pdfrwt>
<pdfrwt beam="2">  1       -2 0.15686091E+00 0.41249452E+04</pdfrwt>
<totfact> 0.50787275E-02</totfact>
</mgrwt>
</event>
<event>
 6    1  0.1014650E-006  0.1500639E+04  0.7818608E-02  0.8884028E-01
         -2   -1    0    0    0  501 -0.00000000000E+00  0.00000000000E+00  0.23357880248E+04  0.23357880248E+04  0.00000000000E+00 0.  1.
          2   -1    0    0  501    0  0.00000000000E+00 -0.00000000000E+00 -0.24102320213E+03  0.24102320213E+03  0.00000000000E+00 0. -1.
         23    2    1    2    0    0 -0.25277832425E+03 -0.56932365020E+03  0.17609815472E+04  0.18701022523E+04  0.90554539566E+02 0.  0.
         11    1    3    3    0    0 -0.14080103848E+03 -0.20796939761E+03  0.70750467533E+03  0.75075899488E+03  0.00000000000E+00 0. -1.
        -11    1    3    3    0    0 -0.11197728577E+03 -0.36135425260E+03  0.10534768718E+04  0.11193432574E+04  0.00000000000E+00 0.  1.
         22    1    1    2    0    0  0.25277832425E+03  0.56932365020E+03  0.33378327556E+03  0.70670897471E+03  0.00000000000E+00 0.  1.
<mgrwt>
<rscale>  0 0.15006387E+04</rscale>
<asrwt>0</asrwt>
<pdfrwt beam="1">  1        2 0.37080494E-01 0.15006387E+04</pdfrwt>
<pdfrwt beam="2">  1       -2 0.35935199E+00 0.15006387E+04</pdfrwt>
<totfact> 0.18534539E+00</totfact>
</mgrwt>
</event>
<event>
 6    1  0.1014650E-006  0.4397441E+04  0.7818608E-02  0.7928842E-01
         -2   -1    0    0    0  501 -0.00000000000E+00  0.00000000000E+00  0.21778178767E+04  0.21778178767E+04  0.00000000000E+00 0.  1.
          2   -1    0    0  501    0  0.00000000000E+00 -0.00000000000E+00 -0.22198237970E+04  0.22198237970E+04  0.00000000000E+00 0. -1.
         23    2    1    2    0    0 -0.12555828313E+04  0.17641278276E+04 -0.39877702942E+03  0.22031210284E+04  0.77999411561E+02 0.  0.
         13    1    3    3    0    0 -0.38834822812E+03  0.58002454612E+03 -0.15962365459E+03  0.71604645903E+03  0.00000000000E+00 0.  1.
        -13    1    3    3    0    0 -0.86723460317E+03  0.11841032815E+04 -0.23915337482E+03  0.14870745694E+04  0.00000000000E+00 0. -1.
         22    1    1    2    0    0  0.12555828313E+04 -0.17641278276E+04  0.35677110913E+03  0.21945206453E+04  0.00000000000E+00 0.  1.
<mgrwt>
<rscale>  0 0.43974411E+04</rscale>
<asrwt>0</asrwt>
<pdfrwt beam="1">  1        2 0.34151135E+00 0.43974411E+04</pdfrwt>
<pdfrwt beam="2">  1       -2 0.33504890E+00 0.43974411E+04</pdfrwt>
<totfact> 0.74240354E-02</totfact>
</mgrwt>
</event>
<event>
 6    1  0.1014650E-006  0.1339530E+04  0.7818608E-02  0.8998792E-01
         -1   -1    0    0    0  501 -0.00000000000E+00  0.00000000000E+00  0.75534261854E+03  0.75534261854E+03  0.00000000000E+00 0.  1.
          1   -1    0    0  501    0  0.00000000000E+00 -0.00000000000E+00 -0.59388324715E+03  0.59388324715E+03  0.00000000000E+00 0. -1.
         23    2    1    2    0    0  0.31745399056E+03  0.56860317900E+03  0.22486754877E+03  0.69492684517E+03  0.90946656605E+02 0.  0.
         11    1    3    3    0    0  0.81842037310E+02  0.11182089430E+03  0.83845169978E+02  0.16196309457E+03  0.00000000000E+00 0.  1.
        -11    1    3    3    0    0  0.23561195325E+03  0.45678228470E+03  0.14102237879E+03  0.53296375060E+03  0.00000000000E+00 0. -1.
         22    1    1    2    0    0 -0.31745399056E+03 -0.56860317900E+03 -0.63408177386E+02  0.65429902052E+03  0.00000000000E+00 0. -1.
<mgrwt>
<rscale>  0 0.13395303E+04</rscale>
<asrwt>0</asrwt>
<pdfrwt beam="1">  1        1 0.91366654E-01 0.13395303E+04</pdfrwt>
<pdfrwt beam="2">  1       -1 0.11620656E+00 0.13395303E+04</pdfrwt>
<totfact> 0.22802153E+01</totfact>
</mgrwt>
</event>
<event>
 6    1  0.1014650E-006  0.5065714E+04  0.7818608E-02  0.7818449E-01
          2   -1    0    0  501    0  0.00000000000E+00  0.00000000000E+00  0.34021557299E+04  0.34021557299E+04  0.00000000000E+00 0. -1.
         -2   -1    0    0    0  501 -0.00000000000E+00 -0.00000000000E+00 -0.18856761851E+04  0.18856761851E+04  0.00000000000E+00 0.  1.
         23    2    1    2    0    0 -0.17861083690E+04 -0.37219152887E+03  0.25912048922E+04  0.31703465639E+04  0.89693376754E+02 0.  0.
         13    1    3    3    0    0 -0.12745915245E+04 -0.23988412309E+03  0.18958083974E+04  0.22970018342E+04  0.00000000000E+00 0. -1.
        -13    1    3    3    0    0 -0.51151684451E+03 -0.13230740578E+03  0.69539649479E+03  0.87334472965E+03  0.00000000000E+00 0.  1.
         22    1    1    2    0    0  0.17861083690E+04  0.37219152887E+03 -0.10747253473E+04  0.21174853511E+04  0.00000000000E+00 0.  1.
<mgrwt>
<rscale>  0 0.50657138E+04</rscale>
<asrwt>0</asrwt>
<pdfrwt beam="1">  1        2 0.52340857E+00 0.50657138E+04</pdfrwt>
<pdfrwt beam="2">  1       -2 0.29010403E+00 0.50657138E+04</pdfrwt>
<totfact> 0.25102101E-02</totfact>
</mgrwt>
</event>
<event>
 6    1  0.1014650E-006  0.2719670E+04  0.7818608E-02  0.8328651E-01
          1   -1    0    0  501    0  0.00000000000E+00  0.00000000000E+00  0.16026196981E+04  0.16026196981E+04  0.00000000000E+00 0. -1.
         -1   -1    0    0    0  501 -0.00000000000E+00 -0.00000000000E+00 -0.11538305058E+04  0.11538305058E+04  0.00000000000E+00 0.  1.
         23    2    1    2    0    0  0.80904440049E+03 -0.56255356284E+03 -0.72295221224E+03  0.12254383581E+04  0.89553979159E+02 0.  0.
         13    1    3    3    0    0  0.12661878280E+03 -0.91600739463E+02 -0.76161510381E+02  0.17384932353E+03  0.00000000000E+00 0. -1.
        -13    1    3    3    0    0  0.68242561769E+03 -0.47095282338E+03 -0.64679070186E+03  0.10515890345E+04  0.00000000000E+00 0.  1.
         22    1    1    2    0    0 -0.80904440049E+03  0.56255356284E+03  0.11717414045E+04  0.15310118458E+04  0.00000000000E+00 0. -1.
<mgrwt>
<rscale>  0 0.27196702E+04</rscale>
<asrwt>0</asrwt>
<pdfrwt beam="1">  1        1 0.24655688E+00 0.27196702E+04</pdfrwt>
<pdfrwt beam="2">  1       -1 0.17751238E+00 0.27196702E+04</pdfrwt>
<totfact> 0.10506563E+00</totfact>
</mgrwt>
</event>
<event>
 6    1  0.1014650E-006  0.1536533E+04  0.7818608E-02  0.8860516E-01
          2   -1    0    0  501    0  0.00000000000E+00  0.00000000000E+00  0.13172666224E+04  0.13172666224E+04  0.00000000000E+00 0. -1.
         -2   -1    0    0    0  501 -0.00000000000E+00 -0.00000000000E+00 -0.44807447202E+03  0.44807447202E+03  0.00000000000E+00 0.  1.
         23    2    1    2    0    0  0.69886241086E+03  0.38891186556E+02  0.79505245815E+02  0.71010339564E+03  0.89468176983E+02 0.  0.
         11    1    3    3    0    0  0.93357796479E+02  0.35041707963E+02  0.19651641784E+02  0.10163555719E+03  0.00000000000E+00 0. -1.
        -11    1    3    3    0    0  0.60550461438E+03  0.38494785930E+01  0.59853604031E+02  0.60846783846E+03  0.00000000000E+00 0.  1.
         22    1    1    2    0    0 -0.69886241086E+03 -0.38891186556E+02  0.78968690461E+03  0.10552376988E+04  0.00000000000E+00 0. -1.
<mgrwt>
<rscale>  0 0.15365332E+04</rscale>
<asrwt>0</asrwt>
<pdfrwt beam="1">  1        2 0.20265640E+00 0.15365332E+04</pdfrwt>
<pdfrwt beam="2">  1       -2 0.68934535E-01 0.15365332E+04</pdfrwt>
<totfact> 0.29917434E+01</totfact>
</mgrwt>
</event>
<event>
 6    1  0.1014650E-006  0.2049582E+04  0.7818608E-02  0.8583784E-01
         -2   -1    0    0    0  501 -0.00000000000E+00  0.00000000000E+00  0.62898567913E+03  0.62898567913E+03  0.00000000000E+00 0.  1.
          2   -1    0    0  501    0  0.00000000000E+00 -0.00000000000E+00 -0.16696669145E+04  0.16696669145E+04  0.00000000000E+00 0. -1.
         23    2    1    2    0    0  0.63789048088E+03 -0.61809887114E+03 -0.10901028067E+04  0.14090498891E+04  0.90260626333E+02 0.  0.
         11    1    3    3    0    0  0.30173447367E+03 -0.27722088910E+03 -0.57203742863E+03  0.70364901315E+03  0.00000000000E+00 0.  1.
        -11    1    3    3    0    0  0.33615600721E+03 -0.34087798204E+03 -0.51806537812E+03  0.70540087597E+03  0.00000000000E+00 0. -1.
         22    1    1    2    0    0 -0.63789048088E+03  0.61809887114E+03  0.49421571397E+02  0.88960270448E+03  0.00000000000E+00 0.  1.
<mgrwt>
<rscale>  0 0.20495820E+04</rscale>
<asrwt>0</asrwt>
<pdfrwt beam="1">  1        2 0.25687183E+00 0.20495820E+04</pdfrwt>
<pdfrwt beam="2">  1       -2 0.96767029E-01 0.20495820E+04</pdfrwt>
<totfact> 0.84217653E+00</totfact>
</mgrwt>
</event>
<event>
 6    1  0.1014650E-006  0.3601157E+04  0.7818608E-02  0.8090227E-01
          2   -1    0    0  501    0  0.00000000000E+00  0.00000000000E+00  0.34669356533E+04  0.34669356533E+04  0.00000000000E+00 0. -1.
         -2   -1    0    0    0  501 -0.00000000000E+00 -0.00000000000E+00 -0.93514346642E+03  0.93514346642E+03  0.00000000000E+00 0.  1.
         23    2    1    2    0    0  0.10971383231E+04  0.11716046835E+04  0.22609861071E+04  0.27742873741E+04  0.90786691267E+02 0.  0.
         11    1    3    3    0    0  0.66524582228E+03  0.66932318117E+03  0.12680700177E+04  0.15806793143E+04  0.00000000000E+00 0.  1.
        -11    1    3    3    0    0  0.43189250078E+03  0.50228150229E+03  0.99291608941E+03  0.11936080598E+04  0.00000000000E+00 0. -1.
         22    1    1    2    0    0 -0.10971383231E+04 -0.11716046835E+04  0.27080607979E+03  0.16277917456E+04  0.00000000000E+00 0.  1.
<mgrwt>
<rscale>  0 0.36011566E+04</rscale>
<asrwt>0</asrwt>
<pdfrwt beam="1">  1        2 0.53337471E+00 0.36011566E+04</pdfrwt>
<pdfrwt beam="2">  1       -2 0.14386823E+00 0.36011566E+04</pdfrwt>
<totfact> 0.23332638E-01</totfact>
</mgrwt>
</event>
<event>
 6    1  0.1014650E-006  0.1754097E+04  0.7818608E-02  0.8731098E-01
          2   -1    0    0  501    0  0.00000000000E+00  0.00000000000E+00  0.10818837611E+04  0.10818837611E+04  0.00000000000E+00 0. -1.
         -2   -1    0    0    0  501 -0.00000000000E+00 -0.00000000000E+00 -0.71099506501E+03  0.71099506501E+03  0.00000000000E+00 0.  1.
         23    2    1    2    0    0 -0.57752648156E+03  0.17704931788E+03  0.83251234536E+03  0.10326290701E+04  0.91447763679E+02 0.  0.
         13    1    3    3    0    0 -0.39894263553E+03  0.15643626451E+03  0.54111668006E+03  0.69024256080E+03  0.00000000000E+00 0.  1.
        -13    1    3    3    0    0 -0.17858384603E+03  0.20613053369E+02  0.29139566530E+03  0.34238650935E+03  0.00000000000E+00 0. -1.
         22    1    1    2    0    0  0.57752648156E+03 -0.17704931788E+03 -0.46162364927E+03  0.76024975595E+03  0.00000000000E+00 0.  1.
<mgrwt>
<rscale>  0 0.17540969E+04</rscale>
<asrwt>0</asrwt>
<pdfrwt beam="1">  1        2 0.16644366E+00 0.17540969E+04</pdfrwt>
<pdfrwt beam="2">  1       -2 0.10938386E+00 0.17540969E+04</pdfrwt>
<totfact> 0.14110888E+01</totfact>
</mgrwt>
</event>
<event>
 6    1  0.1014650E-006  0.3098884E+04  0.7818608E-02  0.8216044E-01
          2   -1    0    0  501    0  0.00000000000E+00  0.00000000000E+00  0.13557570428E+04  0.13557570428E+04  0.00000000000E+00 0. -1.
         -2   -1    0    0    0  501 -0.00000000000E+00 -0.00000000000E+00 -0.17707974667E+04  0.17707974667E+04  0.00000000000E+00 0.  1.
         23    2    1    2    0    0  0.15977187996E+03  0.91958139311E+03  0.10382810107E+04  0.13993312511E+04  0.94570084773E+02 0.  0.
         13    1    3    3    0    0  0.95905646408E+02  0.72312753644E+03  0.76897186039E+03  0.10599193597E+04  0.00000000000E+00 0.  1.
        -13    1    3    3    0    0  0.63866233549E+02  0.19645385667E+03  0.26930915030E+03  0.33941189140E+03  0.00000000000E+00 0. -1.
         22    1    1    2    0    0 -0.15977187996E+03 -0.91958139311E+03 -0.14533214345E+04  0.17272232584E+04  0.00000000000E+00 0.  1.
<mgrwt>
<rscale>  0 0.30988844E+04</rscale>
<asrwt>0</asrwt>
<pdfrwt beam="1">  1        2 0.20857801E+00 0.30988844E+04</pdfrwt>
<pdfrwt beam="2">  1       -2 0.27243038E+00 0.30988844E+04</pdfrwt>
<totfact> 0.61021812E-01</totfact>
</mgrwt>
</event>
<event>
 6    1  0.1014650E-006  0.1679044E+04  0.7818608E-02  0.8773407E-01
          2   -1    0    0  501    0  0.00000000000E+00  0.00000000000E+00  0.25300843989E+04  0.25300843989E+04  0.00000000000E+00 0. -1.
         -2   -1    0    0    0  501 -0.00000000000E+00 -0.00000000000E+00 -0.27856661702E+03  0.27856661702E+03  0.00000000000E+00 0.  1.
         23    2    1    2    0    0  0.61836126669E+03  0.40779390248E+03  0.17811905890E+04  0.19312262662E+04  0.91260363415E+02 0.  0.
         13    1    3    3    0    0  0.34826818736E+03  0.17582873415E+03  0.91172719254E+03  0.99169196210E+03  0.00000000000E+00 0.  1.
        -13    1    3    3    0    0  0.27009307933E+03  0.23196516833E+03  0.86946339646E+03  0.93953430411E+03  0.00000000000E+00 0. -1.
         22    1    1    2    0    0 -0.61836126669E+03 -0.40779390248E+03  0.47032719290E+03  0.87742474972E+03  0.00000000000E+00 0. -1.
<mgrwt>
<rscale>  0 0.16790438E+04</rscale>
<asrwt>0</asrwt>
<pdfrwt beam="1">  1        2 0.38924374E+00 0.16790438E+04</pdfrwt>
<pdfrwt beam="2">  1       -2 0.42856404E-01 0.16790438E+04</pdfrwt>
<totfact> 0.16481645E+01</totfact>
</mgrwt>
</event>
<event>
 6    1  0.1014650E-006  0.6175621E+03  0.7818608E-02  0.9869626E-01
         -1   -1    0    0    0  501 -0.00000000000E+00  0.00000000000E+00  0.46592359137E+03  0.46592359137E+03  0.00000000000E+00 0.  1.
          1   -1    0    0  501    0  0.00000000000E+00 -0.00000000000E+00 -0.20463813881E+03  0.20463813881E+03  0.00000000000E+00 0. -1.
         23    2    1    2    0    0 -0.73839004926E+02 -0.11515633450E+03  0.42574800472E+03  0.45664326187E+03  0.92458234187E+02 0.  0.
         11    1    3    3    0    0 -0.11596528214E+02 -0.62079753042E+02  0.30039316235E+03  0.30695997652E+03  0.00000000000E+00 0. -1.
        -11    1    3    3    0    0 -0.62242476712E+02 -0.53076581456E+02  0.12535484237E+03  0.14968328535E+03  0.00000000000E+00 0.  1.
         22    1    1    2    0    0  0.73839004926E+02  0.11515633450E+03 -0.16446255216E+03  0.21391846831E+03  0.00000000000E+00 0. -1.
<mgrwt>
<rscale>  0 0.61756210E+03</rscale>
<asrwt>0</asrwt>
<pdfrwt beam="1">  1        1 0.31482791E-01 0.61756210E+03</pdfrwt>
<pdfrwt beam="2">  1       -1 0.71680552E-01 0.61756210E+03</pdfrwt>
<totfact> 0.28790531E+02</totfact>
</mgrwt>
</event>
<event>
 6    1  0.1014650E-006  0.1865013E+04  0.7818608E-02  0.8672471E-01
         -2   -1    0    0    0  501 -0.00000000000E+00  0.00000000000E+00  0.64710737490E+03  0.64710737490E+03  0.00000000000E+00 0.  1.
          2   -1    0    0  501    0  0.00000000000E+00 -0.00000000000E+00 -0.13437769310E+04  0.13437769310E+04  0.00000000000E+00 0. -1.
         23    2    1    2    0    0  0.56902737958E+03  0.34955574833E+02  0.43579477765E+03  0.72301620624E+03  0.88438087662E+02 0.  0.
         11    1    3    3    0    0  0.26090742511E+03  0.32083377505E+02  0.14951230217E+03  0.30241685815E+03  0.00000000000E+00 0. -1.
        -11    1    3    3    0    0  0.30811995446E+03  0.28721973283E+01  0.28628247547E+03  0.42059934810E+03  0.00000000000E+00 0.  1.
         22    1    1    2    0    0 -0.56902737958E+03 -0.34955574833E+02 -0.11324643338E+04  0.12678680997E+04  0.00000000000E+00 0. -1.
<mgrwt>
<rscale>  0 0.18650126E+04</rscale>
<asrwt>0</asrwt>
<pdfrwt beam="1">  1        2 0.20673491E+00 0.18650126E+04</pdfrwt>
<pdfrwt beam="2">  1       -2 0.99554980E-01 0.18650126E+04</pdfrwt>
<totfact> 0.12225081E+01</totfact>
</mgrwt>
</event>
<event>
 6    1  0.1608396E-006  0.3620975E+04  0.7818608E-02  0.8085704E-01
          2   -1    0    0  501    0  0.00000000000E+00  0.00000000000E+00  0.20514332670E+04  0.20514332670E+04  0.00000000000E+00 0. -1.
         -2   -1    0    0    0  501 -0.00000000000E+00 -0.00000000000E+00 -0.15978413790E+04  0.15978413790E+04  0.00000000000E+00 0.  1.
         23    2    1    2    0    0  0.92091612466E+02 -0.47532228677E+03  0.19839301613E+04  0.20441742216E+04  0.90869256976E+02 0.  0.
         11    1    3    3    0    0  0.59380588843E+02 -0.27558158711E+03  0.13338206017E+04  0.13632859799E+04  0.00000000000E+00 0. -1.
        -11    1    3    3    0    0  0.32711023624E+02 -0.19974069966E+03  0.65010955964E+03  0.68088824171E+03  0.00000000000E+00 0.  1.
         22    1    1    2    0    0 -0.92091612466E+02  0.47532228677E+03 -0.15303382734E+04  0.16051004244E+04  0.00000000000E+00 0.  1.
<mgrwt>
<rscale>  0 0.36209750E+04</rscale>
<asrwt>0</asrwt>
<pdfrwt beam="1">  1        2 0.31560512E+00 0.36209750E+04</pdfrwt>
<pdfrwt beam="2">  1       -2 0.24582175E+00 0.36209750E+04</pdfrwt>
<totfact> 0.34702113E-01</totfact>
</mgrwt>
</event>
<event>
 6    1  0.1014650E-006  0.2525241E+04  0.7818608E-02  0.8394048E-01
         -1   -1    0    0    0  501 -0.00000000000E+00  0.00000000000E+00  0.89130187897E+03  0.89130187897E+03  0.00000000000E+00 0.  1.
          1   -1    0    0  501    0  0.00000000000E+00 -0.00000000000E+00 -0.17886314461E+04  0.17886314461E+04  0.00000000000E+00 0. -1.
         23    2    1    2    0    0  0.84574636714E+03  0.73385133102E+03  0.16598644855E+03  0.11357618181E+04  0.92621341352E+02 0.  0.
         11    1    3    3    0    0  0.50541807569E+03  0.39055125609E+03  0.12284984191E+03  0.65043815888E+03  0.00000000000E+00 0. -1.
        -11    1    3    3    0    0  0.34032829144E+03  0.34330007492E+03  0.43136606646E+02  0.48532365925E+03  0.00000000000E+00 0.  1.
         22    1    1    2    0    0 -0.84574636714E+03 -0.73385133102E+03 -0.10633160156E+04  0.15441715069E+04  0.00000000000E+00 0.  1.
<mgrwt>
<rscale>  0 0.25252410E+04</rscale>
<asrwt>0</asrwt>
<pdfrwt beam="1">  1        1 0.27517406E+00 0.25252410E+04</pdfrwt>
<pdfrwt beam="2">  1       -1 0.13712337E+00 0.25252410E+04</pdfrwt>
<totfact> 0.16266109E+00</totfact>
</mgrwt>
</event>
<event>
 6    1  0.1014650E-006  0.3701236E+04  0.7818608E-02  0.8067688E-01
         -1   -1    0    0    0  501 -0.00000000000E+00  0.00000000000E+00  0.26482603833E+04  0.26482603833E+04  0.00000000000E+00 0.  1.
          1   -1    0    0  501    0  0.00000000000E+00 -0.00000000000E+00 -0.12932213080E+04  0.12932213080E+04  0.00000000000E+00 0. -1.
         23    2    1    2    0    0  0.15305829144E+04 -0.57241592173E+03  0.16003317024E+04  0.22890554394E+04  0.91483341503E+02 0.  0.
         11    1    3    3    0    0  0.10450896458E+04 -0.36759906746E+03  0.10323804895E+04  0.15143153296E+04  0.00000000000E+00 0.  1.
        -11    1    3    3    0    0  0.48549326857E+03 -0.20481685427E+03  0.56795121285E+03  0.77474010984E+03  0.00000000000E+00 0. -1.
         22    1    1    2    0    0 -0.15305829144E+04  0.57241592173E+03 -0.24529262704E+03  0.16524262520E+04  0.00000000000E+00 0. -1.
<mgrwt>
<rscale>  0 0.37012359E+04</rscale>
<asrwt>0</asrwt>
<pdfrwt beam="1">  1        1 0.19895713E+00 0.37012359E+04</pdfrwt>
<pdfrwt beam="2">  1       -1 0.40742467E+00 0.37012359E+04</pdfrwt>
<totfact> 0.46655815E-02</totfact>
</mgrwt>
</event>
<event>
 6    1  0.1014650E-006  0.1314031E+04  0.7818608E-02  0.9018512E-01
         -2   -1    0    0    0  501 -0.00000000000E+00  0.00000000000E+00  0.45590985380E+03  0.45590985380E+03  0.00000000000E+00 0.  1.
          2   -1    0    0  501    0  0.00000000000E+00 -0.00000000000E+00 -0.94682995300E+03  0.94682995300E+03  0.00000000000E+00 0. -1.
         23    2    1    2    0    0 -0.10241141060E+03  0.11979744177E+03  0.43087998014E+03  0.46756340079E+03  0.90102455019E+02 0.  0.
         11    1    3    3    0    0 -0.73249231646E+02  0.31209507637E+02  0.12888771483E+03  0.15149761166E+03  0.00000000000E+00 0.  1.
        -11    1    3    3    0    0 -0.29162178953E+02  0.88587934136E+02  0.30199226531E+03  0.31606578913E+03  0.00000000000E+00 0. -1.
         22    1    1    2    0    0  0.10241141060E+03 -0.11979744177E+03 -0.92180007934E+03  0.93517640600E+03  0.00000000000E+00 0. -1.
<mgrwt>
<rscale>  0 0.13140306E+04</rscale>
<asrwt>0</asrwt>
<pdfrwt beam="1">  1        2 0.14566615E+00 0.13140306E+04</pdfrwt>
<pdfrwt beam="2">  1       -2 0.70139978E-01 0.13140306E+04</pdfrwt>
<totfact> 0.49457600E+01</totfact>
</mgrwt>
</event>
<event>
 6    1  0.1014650E-006  0.5592147E+04  0.7818608E-02  0.7743135E-01
         -2   -1    0    0    0  501 -0.00000000000E+00  0.00000000000E+00  0.21971379713E+04  0.21971379713E+04  0.00000000000E+00 0.  1.
          2   -1    0    0  501    0  0.00000000000E+00 -0.00000000000E+00 -0.35582779503E+04  0.35582779503E+04  0.00000000000E+00 0. -1.
         23    2    1    2    0    0  0.19373353562E+04 -0.74804209474E+03  0.12449336046E+04  0.24230811874E+04  0.92884350490E+02 0.  0.
         11    1    3    3    0    0  0.18949096928E+04 -0.73578361734E+03  0.12022608258E+04  0.23616713084E+04  0.00000000000E+00 0. -1.
        -11    1    3    3    0    0  0.42425663404E+02 -0.12258477393E+02  0.42672778851E+02  0.61409878994E+02  0.00000000000E+00 0.  1.
         22    1    1    2    0    0 -0.19373353562E+04  0.74804209474E+03 -0.26060735836E+04  0.33323347343E+04  0.00000000000E+00 0. -1.
<mgrwt>
<rscale>  0 0.55921472E+04</rscale>
<asrwt>0</asrwt>
<pdfrwt beam="1">  1        2 0.54742737E+00 0.55921472E+04</pdfrwt>
<pdfrwt beam="2">  1       -2 0.33802123E+00 0.55921472E+04</pdfrwt>
<totfact> 0.94831675E-03</totfact>
</mgrwt>
</event>
<event>
 6    1  0.1014650E-006  0.1619282E+04  0.7818608E-02  0.8808789E-01
          2   -1    0    0  501    0  0.00000000000E+00  0.00000000000E+00  0.34966982694E+03  0.34966982694E+03  0.00000000000E+00 0. -1.
         -2   -1    0    0    0  501 -0.00000000000E+00 -0.00000000000E+00 -0.18746795734E+04  0.18746795734E+04  0.00000000000E+00 0.  1.
         23    2    1    2    0    0  0.65157115460E+03 -0.46606895619E+03 -0.89307300945E+03  0.12040017728E+04  0.10136876849E+03 0.  0.
         11    1    3    3    0    0  0.33958304620E+03 -0.18771906970E+03 -0.46491300854E+03  0.60555693366E+03  0.00000000000E+00 0. -1.
        -11    1    3    3    0    0  0.31198810841E+03 -0.27834988649E+03 -0.42816000091E+03  0.59844483912E+03  0.00000000000E+00 0.  1.
         22    1    1    2    0    0 -0.65157115460E+03  0.46606895619E+03 -0.63193673697E+03  0.10203476275E+04  0.00000000000E+00 0. -1.
<mgrwt>
<rscale>  0 0.16192824E+04</rscale>
<asrwt>0</asrwt>
<pdfrwt beam="1">  1        2 0.53795357E-01 0.16192824E+04</pdfrwt>
<pdfrwt beam="2">  1       -2 0.28841225E+00 0.16192824E+04</pdfrwt>
<totfact> 0.33212197E+00</totfact>
</mgrwt>
</event>
<event>
 6    1  0.1014650E-006  0.3529581E+04  0.7818608E-02  0.8106815E-01
         -2   -1    0    0    0  501 -0.00000000000E+00  0.00000000000E+00  0.12157386498E+04  0.12157386498E+04  0.00000000000E+00 0.  1.
          2   -1    0    0  501    0  0.00000000000E+00 -0.00000000000E+00 -0.25618053585E+04  0.25618053585E+04  0.00000000000E+00 0. -1.
         23    2    1    2    0    0 -0.47582370046E+03 -0.14756561929E+04 -0.15727146079E+04  0.22105919785E+04  0.96520794919E+02 0.  0.
         13    1    3    3    0    0 -0.31401351118E+03 -0.84924948058E+03 -0.95741717283E+03  0.13177544568E+04  0.00000000000E+00 0. -1.
        -13    1    3    3    0    0 -0.16181018928E+03 -0.62640671232E+03 -0.61529743506E+03  0.89283752171E+03  0.00000000000E+00 0.  1.
         22    1    1    2    0    0  0.47582370046E+03  0.14756561929E+04  0.22664789923E+03  0.15669520298E+04  0.00000000000E+00 0.  1.
<mgrwt>
<rscale>  0 0.35295812E+04</rscale>
<asrwt>0</asrwt>
<pdfrwt beam="1">  1        2 0.39412390E+00 0.35295812E+04</pdfrwt>
<pdfrwt beam="2">  1       -2 0.18703672E+00 0.35295812E+04</pdfrwt>
<totfact> 0.42623000E-01</totfact>
</mgrwt>
</event>
<event>
 6    1  0.1014650E-006  0.1558403E+04  0.7818608E-02  0.8846518E-01
         -1   -1    0    0    0  501 -0.00000000000E+00  0.00000000000E+00  0.36551287959E+03  0.36551287959E+03  0.00000000000E+00 0.  1.
          1   -1    0    0  501    0  0.00000000000E+00 -0.00000000000E+00 -0.16611037132E+04  0.16611037132E+04  0.00000000000E+00 0. -1.
         23    2    1    2    0    0  0.43340199703E+03  0.55174813195E+03 -0.21365809460E+03  0.73710438119E+03  0.73551310230E+02 0.  0.
         11    1    3    3    0    0  0.13067873230E+03  0.12373966027E+03 -0.73903513637E+02  0.19455118588E+03  0.00000000000E+00 0.  1.
        -11    1    3    3    0    0  0.30272326473E+03  0.42800847168E+03 -0.13975458097E+03  0.54255319531E+03  0.00000000000E+00 0. -1.
         22    1    1    2    0    0 -0.43340199703E+03 -0.55174813195E+03 -0.10819327391E+04  0.12895122116E+04  0.00000000000E+00 0. -1.
<mgrwt>
<rscale>  0 0.15584028E+04</rscale>
<asrwt>0</asrwt>
<pdfrwt beam="1">  1        1 0.25555442E+00 0.15584028E+04</pdfrwt>
<pdfrwt beam="2">  1       -1 0.56232751E-01 0.15584028E+04</pdfrwt>
<totfact> 0.15610205E+01</totfact>
</mgrwt>
</event>
<event>
 6    1  0.1014650E-006  0.3049790E+04  0.7818608E-02  0.8229654E-01
          2   -1    0    0  501    0  0.00000000000E+00  0.00000000000E+00  0.11643452452E+04  0.11643452452E+04  0.00000000000E+00 0. -1.
         -2   -1    0    0    0  501 -0.00000000000E+00 -0.00000000000E+00 -0.19970927701E+04  0.19970927701E+04  0.00000000000E+00 0.  1.
         23    2    1    2    0    0 -0.10567395554E+04 -0.28407498376E+03 -0.15154943126E+04  0.18716549868E+04  0.94722192930E+02 0.  0.
         11    1    3    3    0    0 -0.52976246398E+03 -0.10611066692E+03 -0.80102815645E+03  0.96620590419E+03  0.00000000000E+00 0. -1.
        -11    1    3    3    0    0 -0.52697709141E+03 -0.17796431684E+03 -0.71446615618E+03  0.90544908264E+03  0.00000000000E+00 0.  1.
         22    1    1    2    0    0  0.10567395554E+04  0.28407498376E+03  0.68274678775E+03  0.12897830285E+04  0.00000000000E+00 0. -1.
<mgrwt>
<rscale>  0 0.30497905E+04</rscale>
<asrwt>0</asrwt>
<pdfrwt beam="1">  1        2 0.17913004E+00 0.30497905E+04</pdfrwt>
<pdfrwt beam="2">  1       -2 0.30724504E+00 0.30497905E+04</pdfrwt>
<totfact> 0.48672107E-01</totfact>
</mgrwt>
</event>
<event>
 6    1  0.1014650E-006  0.4302351E+04  0.7818608E-02  0.7946184E-01
          1   -1    0    0  501    0  0.00000000000E+00  0.00000000000E+00  0.25538333762E+04  0.25538333762E+04  0.00000000000E+00 0. -1.
         -1   -1    0    0    0  501 -0.00000000000E+00 -0.00000000000E+00 -0.18120039411E+04  0.18120039411E+04  0.00000000000E+00 0.  1.
         23    2    1    2    0    0 -0.57384353327E+03  0.67556237511E+03  0.23590903310E+04  0.25215993368E+04  0.86458673981E+02 0.  0.
         13    1    3    3    0    0 -0.98438267168E+02  0.12831436795E+03  0.52897893019E+03  0.55314860395E+03  0.00000000000E+00 0.  1.
        -13    1    3    3    0    0 -0.47540526610E+03  0.54724800716E+03  0.18301114008E+04  0.19684507329E+04  0.00000000000E+00 0. -1.
         22    1    1    2    0    0  0.57384353327E+03 -0.67556237511E+03 -0.16172608959E+04  0.18442379805E+04  0.00000000000E+00 0.  1.
<mgrwt>
<rscale>  0 0.43023511E+04</rscale>
<asrwt>0</asrwt>
<pdfrwt beam="1">  1        1 0.39289744E+00 0.43023511E+04</pdfrwt>
<pdfrwt beam="2">  1       -1 0.27876984E+00 0.43023511E+04</pdfrwt>
<totfact> 0.43020512E-02</totfact>
</mgrwt>
</event>
<event>
 6    1  0.1014650E-006  0.2883895E+04  0.7818608E-02  0.8277685E-01
          1   -1    0    0  501    0  0.00000000000E+00  0.00000000000E+00  0.23948603264E+04  0.23948603264E+04  0.00000000000E+00 0. -1.
         -1   -1    0    0    0  501 -0.00000000000E+00 -0.00000000000E+00 -0.86819760639E+03  0.86819760639E+03  0.00000000000E+00 0.  1.
         23    2    1    2    0    0  0.65438585248E+02 -0.47669172954E+03  0.23003044938E+04  0.23519932767E+04  0.94627669760E+02 0.  0.
         11    1    3    3    0    0  0.89195140439E+02 -0.37468533634E+03  0.17642119777E+04  0.18057654268E+04  0.00000000000E+00 0.  1.
        -11    1    3    3    0    0 -0.23756555191E+02 -0.10200639320E+03  0.53609251614E+03  0.54622784993E+03  0.00000000000E+00 0. -1.
         22    1    1    2    0    0 -0.65438585248E+02  0.47669172954E+03 -0.77364177379E+03  0.91106465611E+03  0.00000000000E+00 0.  1.
<mgrwt>
<rscale>  0 0.28838946E+04</rscale>
<asrwt>0</asrwt>
<pdfrwt beam="1">  1        1 0.36844005E+00 0.28838946E+04</pdfrwt>
<pdfrwt beam="2">  1       -1 0.13356886E+00 0.28838946E+04</pdfrwt>
<totfact> 0.65151209E-01</totfact>
</mgrwt>
</event>
<event>
 6    1  0.1014650E-006  0.1491987E+04  0.7818608E-02  0.8889799E-01
         -1   -1    0    0    0  501 -0.00000000000E+00  0.00000000000E+00  0.47618212184E+03  0.47618212184E+03  0.00000000000E+00 0.  1.
          1   -1    0    0  501    0  0.00000000000E+00 -0.00000000000E+00 -0.11686831923E+04  0.11686831923E+04  0.00000000000E+00 0. -1.
         23    2    1    2    0    0 -0.62791865090E+03 -0.16550201631E+03  0.50865212680E+02  0.65781608516E+03  0.91989034563E+02 0.  0.
         11    1    3    3    0    0 -0.53445984828E+03 -0.13195282386E+03  0.10446088843E+02  0.55060693596E+03  0.00000000000E+00 0.  1.
        -11    1    3    3    0    0 -0.93458802619E+02 -0.33549192448E+02  0.40419123837E+02  0.10720914920E+03  0.00000000000E+00 0. -1.
         22    1    1    2    0    0  0.62791865090E+03  0.16550201631E+03 -0.74336628317E+03  0.98704922902E+03  0.00000000000E+00 0. -1.
<mgrwt>
<rscale>  0 0.14919867E+04</rscale>
<asrwt>0</asrwt>
<pdfrwt beam="1">  1        1 0.17979741E+00 0.14919867E+04</pdfrwt>
<pdfrwt beam="2">  1       -1 0.73258789E-01 0.14919867E+04</pdfrwt>
<totfact> 0.20482504E+01</totfact>
</mgrwt>
</event>
<event>
 6    1  0.1014650E-006  0.2012867E+04  0.7818608E-02  0.8600628E-01
          2   -1    0    0  501    0  0.00000000000E+00  0.00000000000E+00  0.24580935408E+04  0.24580935408E+04  0.00000000000E+00 0. -1.
         -2   -1    0    0    0  501 -0.00000000000E+00 -0.00000000000E+00 -0.41207085646E+03  0.41207085646E+03  0.00000000000E+00 0.  1.
         23    2    1    2    0    0 -0.68185906878E+03 -0.37246288255E+03  0.19327139978E+04  0.20849897371E+04  0.90213181211E+02 0.  0.
         11    1    3    3    0    0 -0.17931192690E+03 -0.54195560469E+02  0.46105131149E+03  0.49765272805E+03  0.00000000000E+00 0.  1.
        -11    1    3    3    0    0 -0.50254714188E+03 -0.31826732208E+03  0.14716626863E+04  0.15873370091E+04  0.00000000000E+00 0. -1.
         22    1    1    2    0    0  0.68185906878E+03  0.37246288255E+03  0.11330868660E+03  0.78517466020E+03  0.00000000000E+00 0.  1.
<mgrwt>
<rscale>  0 0.20128673E+04</rscale>
<asrwt>0</asrwt>
<pdfrwt beam="1">  1        2 0.37816823E+00 0.20128673E+04</pdfrwt>
<pdfrwt beam="2">  1       -2 0.63395518E-01 0.20128673E+04</pdfrwt>
<totfact> 0.78728335E+00</totfact>
</mgrwt>
</event>
<event>
 6    1  0.1014650E-006  0.1094906E+04  0.7818608E-02  0.9210172E-01
         -2   -1    0    0    0  501 -0.00000000000E+00  0.00000000000E+00  0.36932278267E+03  0.36932278267E+03  0.00000000000E+00 0.  1.
          2   -1    0    0  501    0  0.00000000000E+00 -0.00000000000E+00 -0.81149750176E+03  0.81149750176E+03  0.00000000000E+00 0. -1.
         23    2    1    2    0    0  0.30245366968E+03 -0.20925921728E+03  0.20901344117E+03  0.43294752627E+03  0.92137395208E+02 0.  0.
         11    1    3    3    0    0  0.10121719394E+03 -0.29573738871E+02  0.87661195270E+02  0.13712771980E+03  0.00000000000E+00 0. -1.
        -11    1    3    3    0    0  0.20123647574E+03 -0.17968547841E+03  0.12135224590E+03  0.29581980648E+03  0.00000000000E+00 0.  1.
         22    1    1    2    0    0 -0.30245366968E+03  0.20925921728E+03 -0.65118816027E+03  0.74787275816E+03  0.00000000000E+00 0. -1.
<mgrwt>
<rscale>  0 0.10949055E+04</rscale>
<asrwt>0</asrwt>
<pdfrwt beam="1">  1        2 0.12484577E+00 0.10949055E+04</pdfrwt>
<pdfrwt beam="2">  1       -2 0.56818890E-01 0.10949055E+04</pdfrwt>
<totfact> 0.97519200E+01</totfact>
</mgrwt>
</event>
<event>
 6    1  0.1014650E-006  0.2359265E+04  0.7818608E-02  0.8454913E-01
          1   -1    0    0  501    0  0.00000000000E+00  0.00000000000E+00  0.16068462096E+04  0.16068462096E+04  0.00000000000E+00 0. -1.
         -1   -1    0    0    0  501 -0.00000000000E+00 -0.00000000000E+00 -0.86600278736E+03  0.86600278736E+03  0.00000000000E+00 0.  1.
         23    2    1    2    0    0 -0.89389404510E+03  0.44167450921E+03 -0.28641193955E+03  0.10412846378E+04  0.90105282521E+02 0.  0.
         11    1    3    3    0    0 -0.16979391280E+03  0.80665290190E+02 -0.18088794450E+02  0.18884932181E+03  0.00000000000E+00 0. -1.
        -11    1    3    3    0    0 -0.72410013230E+03  0.36100921902E+03 -0.26832314510E+03  0.85243531603E+03  0.00000000000E+00 0.  1.
         22    1    1    2    0    0  0.89389404510E+03 -0.44167450921E+03  0.10272553617E+04  0.14315643591E+04  0.00000000000E+00 0. -1.
<mgrwt>
<rscale>  0 0.23592654E+04</rscale>
<asrwt>0</asrwt>
<pdfrwt beam="1">  1        1 0.24720711E+00 0.23592654E+04</pdfrwt>
<pdfrwt beam="2">  1       -1 0.13323120E+00 0.23592654E+04</pdfrwt>
<totfact> 0.23651447E+00</totfact>
</mgrwt>
</event>
<event>
 6    1  0.1014650E-006  0.2060832E+04  0.7818608E-02  0.8578696E-01
         -1   -1    0    0    0  501 -0.00000000000E+00  0.00000000000E+00  0.99314635489E+03  0.99314635489E+03  0.00000000000E+00 0.  1.
          1   -1    0    0  501    0  0.00000000000E+00 -0.00000000000E+00 -0.10690841185E+04  0.10690841185E+04  0.00000000000E+00 0. -1.
         23    2    1    2    0    0  0.50302970017E+03  0.26849943341E+03  0.81837333372E+03  0.10016065232E+04  0.91377726414E+02 0.  0.
         13    1    3    3    0    0  0.36942908915E+03  0.23385785999E+03  0.58275247986E+03  0.72853812761E+03  0.00000000000E+00 0. -1.
        -13    1    3    3    0    0  0.13360061102E+03  0.34641573416E+02  0.23562085386E+03  0.27306839554E+03  0.00000000000E+00 0.  1.
         22    1    1    2    0    0 -0.50302970017E+03 -0.26849943341E+03 -0.89431109728E+03  0.10606239502E+04  0.00000000000E+00 0. -1.
<mgrwt>
<rscale>  0 0.20608319E+04</rscale>
<asrwt>0</asrwt>
<pdfrwt beam="1">  1        1 0.16447448E+00 0.20608319E+04</pdfrwt>
<pdfrwt beam="2">  1       -1 0.15279175E+00 0.20608319E+04</pdfrwt>
<totfact> 0.40986725E+00</totfact>
</mgrwt>
</event>
<event>
 6    1  0.1014650E-006  0.4591807E+04  0.7818608E-02  0.7894758E-01
          2   -1    0    0  501    0  0.00000000000E+00  0.00000000000E+00  0.27846294293E+04  0.27846294293E+04  0.00000000000E+00 0. -1.
         -2   -1    0    0    0  501 -0.00000000000E+00 -0.00000000000E+00 -0.18929534530E+04  0.18929534530E+04  0.00000000000E+00 0.  1.
         23    2    1    2    0    0 -0.20271012750E+04 -0.36867793420E+03  0.14757572133E+04  0.25360381385E+04  0.92558568124E+02 0.  0.
         13    1    3    3    0    0 -0.12025523985E+04 -0.24908187286E+03  0.83701318739E+03  0.14861914838E+04  0.00000000000E+00 0. -1.
        -13    1    3    3    0    0 -0.82454887651E+03 -0.11959606134E+03  0.63874402595E+03  0.10498466547E+04  0.00000000000E+00 0.  1.
         22    1    1    2    0    0  0.20271012750E+04  0.36867793420E+03 -0.58408123704E+03  0.21415447438E+04  0.00000000000E+00 0.  1.
<mgrwt>
<rscale>  0 0.45918074E+04</rscale>
<asrwt>0</asrwt>
<pdfrwt beam="1">  1        2 0.42840453E+00 0.45918074E+04</pdfrwt>
<pdfrwt beam="2">  1       -2 0.29122361E+00 0.45918074E+04</pdfrwt>
<totfact> 0.63891817E-02</totfact>
</mgrwt>
</event>
<event>
 6    1  0.1014650E-006  0.3077366E+04  0.7818608E-02  0.8221977E-01
          2   -1    0    0  501    0  0.00000000000E+00  0.00000000000E+00  0.13298174765E+04  0.13298174765E+04  0.00000000000E+00 0. -1.
         -2   -1    0    0    0  501 -0.00000000000E+00 -0.00000000000E+00 -0.17803536914E+04  0.17803536914E+04  0.00000000000E+00 0.  1.
         23    2    1    2    0    0 -0.34542258973E+03 -0.72796740724E+02  0.12867330642E+04  0.13373991354E+04  0.91314500407E+02 0.  0.
         13    1    3    3    0    0 -0.28659786611E+03 -0.88082934990E+02  0.98570532045E+03  0.10302970053E+04  0.00000000000E+00 0.  1.
        -13    1    3    3    0    0 -0.58824723625E+02  0.15286194266E+02  0.30102774374E+03  0.30710213016E+03  0.00000000000E+00 0. -1.
         22    1    1    2    0    0  0.34542258973E+03  0.72796740724E+02 -0.17372692791E+04  0.17727720325E+04  0.00000000000E+00 0.  1.
<mgrwt>
<rscale>  0 0.30773661E+04</rscale>
<asrwt>0</asrwt>
<pdfrwt beam="1">  1        2 0.20458730E+00 0.30773661E+04</pdfrwt>
<pdfrwt beam="2">  1       -2 0.27390057E+00 0.30773661E+04</pdfrwt>
<totfact> 0.61985895E-01</totfact>
</mgrwt>
</event>
<event>
 6    1  0.1014650E-006  0.1541123E+04  0.7818608E-02  0.8857558E-01
         -1   -1    0    0    0  501 -0.00000000000E+00  0.00000000000E+00  0.27394242554E+03  0.27394242554E+03  0.00000000000E+00 0.  1.
          1   -1    0    0  501    0  0.00000000000E+00 -0.00000000000E+00 -0.21674797830E+04  0.21674797830E+04  0.00000000000E+00 0. -1.
         23    2    1    2    0    0  0.55747504569E+03 -0.35987352149E+03 -0.15625798460E+04  0.16999235555E+04  0.88300291414E+02 0.  0.
         13    1    3    3    0    0  0.61623626692E+02 -0.76599053709E+02 -0.22514022395E+03  0.24566848971E+03  0.00000000000E+00 0. -1.
        -13    1    3    3    0    0  0.49585141900E+03 -0.28327446778E+03 -0.13374396221E+04  0.14542550658E+04  0.00000000000E+00 0.  1.
         22    1    1    2    0    0 -0.55747504569E+03  0.35987352149E+03 -0.33095751146E+03  0.74149865302E+03  0.00000000000E+00 0.  1.
<mgrwt>
<rscale>  0 0.15411225E+04</rscale>
<asrwt>0</asrwt>
<pdfrwt beam="1">  1        1 0.33345842E+00 0.15411225E+04</pdfrwt>
<pdfrwt beam="2">  1       -1 0.42144989E-01 0.15411225E+04</pdfrwt>
<totfact> 0.12241121E+01</totfact>
</mgrwt>
</event>
<event>
 6    1  0.1014650E-006  0.1070495E+04  0.7818608E-02  0.9234436E-01
         -1   -1    0    0    0  501 -0.00000000000E+00  0.00000000000E+00  0.94067888872E+03  0.94067888872E+03  0.00000000000E+00 0.  1.
          1   -1    0    0  501    0  0.00000000000E+00 -0.00000000000E+00 -0.30455657221E+03  0.30455657221E+03  0.00000000000E+00 0. -1.
         23    2    1    2    0    0  0.23747869117E+03 -0.46085049606E+03  0.45562281904E+03  0.69627337019E+03  0.91788584946E+02 0.  0.
         13    1    3    3    0    0  0.21904061570E+03 -0.34147373675E+03  0.34843895240E+03  0.53478295389E+03  0.00000000000E+00 0.  1.
        -13    1    3    3    0    0  0.18438075472E+02 -0.11937675931E+03  0.10718386664E+03  0.16149041631E+03  0.00000000000E+00 0. -1.
         22    1    1    2    0    0 -0.23747869117E+03  0.46085049606E+03  0.18049949747E+03  0.54896209074E+03  0.00000000000E+00 0. -1.
<mgrwt>
<rscale>  0 0.10704951E+04</rscale>
<asrwt>0</asrwt>
<pdfrwt beam="1">  1        1 0.46854858E-01 0.10704951E+04</pdfrwt>
<pdfrwt beam="2">  1       -1 0.14471983E+00 0.10704951E+04</pdfrwt>
<totfact> 0.32965819E+01</totfact>
</mgrwt>
</event>
<event>
 6    1  0.1014650E-006  0.3689757E+04  0.7818608E-02  0.8070236E-01
         -2   -1    0    0    0  501 -0.00000000000E+00  0.00000000000E+00  0.91064140238E+03  0.91064140238E+03  0.00000000000E+00 0.  1.
          2   -1    0    0  501    0  0.00000000000E+00 -0.00000000000E+00 -0.37375603424E+04  0.37375603424E+04  0.00000000000E+00 0. -1.
         23    2    1    2    0    0  0.11590118134E+04 -0.71645808988E+03 -0.29790573123E+04  0.32771559167E+04  0.91366594116E+02 0.  0.
         13    1    3    3    0    0  0.59302487069E+03 -0.38895583722E+03 -0.14501564380E+04  0.16142858592E+04  0.00000000000E+00 0.  1.
        -13    1    3    3    0    0  0.56598694276E+03 -0.32750225266E+03 -0.15289008743E+04  0.16628700575E+04  0.00000000000E+00 0. -1.
         22    1    1    2    0    0 -0.11590118134E+04  0.71645808988E+03  0.15213837225E+03  0.13710458280E+04  0.00000000000E+00 0.  1.
<mgrwt>
<rscale>  0 0.36897573E+04</rscale>
<asrwt>0</asrwt>
<pdfrwt beam="1">  1        2 0.57500929E+00 0.36897573E+04</pdfrwt>
<pdfrwt beam="2">  1       -2 0.14009868E+00 0.36897573E+04</pdfrwt>
<totfact> 0.15839446E-01</totfact>
</mgrwt>
</event>
<event>
 6    1  0.1014650E-006  0.6235937E+03  0.7818608E-02  0.9857631E-01
          2   -1    0    0  501    0  0.00000000000E+00  0.00000000000E+00  0.29363543581E+03  0.29363543581E+03  0.00000000000E+00 0. -1.
         -2   -1    0    0    0  501 -0.00000000000E+00 -0.00000000000E+00 -0.33108149908E+03  0.33108149908E+03  0.00000000000E+00 0.  1.
         23    2    1    2    0    0  0.98470388700E+02 -0.42840016989E+02 -0.30553359914E+03  0.33592183210E+03  0.89224506558E+02 0.  0.
         13    1    3    3    0    0  0.43092386714E+01 -0.80705613873E+01 -0.15331472090E+03  0.15358745763E+03  0.00000000000E+00 0. -1.
        -13    1    3    3    0    0  0.94161150029E+02 -0.34769455602E+02 -0.15221887825E+03  0.18233437447E+03  0.00000000000E+00 0.  1.
         22    1    1    2    0    0 -0.98470388700E+02  0.42840016989E+02  0.26808753587E+03  0.28879510279E+03  0.00000000000E+00 0. -1.
<mgrwt>
<rscale>  0 0.62359365E+03</rscale>
<asrwt>0</asrwt>
<pdfrwt beam="1">  1        2 0.45174682E-01 0.62359365E+03</pdfrwt>
<pdfrwt beam="2">  1       -2 0.50935615E-01 0.62359365E+03</pdfrwt>
<totfact> 0.41348695E+02</totfact>
</mgrwt>
</event>
<event>
 6    1  0.1014650E-006  0.3080667E+04  0.7818608E-02  0.8221064E-01
         -1   -1    0    0    0  501 -0.00000000000E+00  0.00000000000E+00  0.12495540844E+04  0.12495540844E+04  0.00000000000E+00 0.  1.
          1   -1    0    0  501    0  0.00000000000E+00 -0.00000000000E+00 -0.18987790576E+04  0.18987790576E+04  0.00000000000E+00 0. -1.
         23    2    1    2    0    0 -0.13332433519E+04  0.65265334321E+03 -0.74009392352E+03  0.16611373284E+04  0.90244038890E+02 0.  0.
         13    1    3    3    0    0 -0.37024376752E+03  0.16087840093E+03 -0.16174534022E+03  0.43488373430E+03  0.00000000000E+00 0.  1.
        -13    1    3    3    0    0 -0.96299958434E+03  0.49177494228E+03 -0.57834858329E+03  0.12262535941E+04  0.00000000000E+00 0. -1.
         22    1    1    2    0    0  0.13332433519E+04 -0.65265334321E+03  0.90868950324E+02  0.14871958135E+04  0.00000000000E+00 0. -1.
<mgrwt>
<rscale>  0 0.30806669E+04</rscale>
<asrwt>0</asrwt>
<pdfrwt beam="1">  1        1 0.29211986E+00 0.30806669E+04</pdfrwt>
<pdfrwt beam="2">  1       -1 0.19223909E+00 0.30806669E+04</pdfrwt>
<totfact> 0.50285082E-01</totfact>
</mgrwt>
</event>
<event>
 6    1  0.1068575E-006  0.4430182E+04  0.7818608E-02  0.7922975E-01
          2   -1    0    0  501    0  0.00000000000E+00  0.00000000000E+00  0.31422208392E+04  0.31422208392E+04  0.00000000000E+00 0. -1.
         -2   -1    0    0    0  501 -0.00000000000E+00 -0.00000000000E+00 -0.15615161596E+04  0.15615161596E+04  0.00000000000E+00 0.  1.
         23    2    1    2    0    0 -0.17754652933E+03  0.54390046318E+03 -0.14803188012E+04  0.15897017976E+04  0.91965037979E+02 0.  0.
         11    1    3    3    0    0 -0.92762948887E+02  0.28575541938E+03 -0.90236248564E+03  0.95106213250E+03  0.00000000000E+00 0.  1.
        -11    1    3    3    0    0 -0.84783580445E+02  0.25814504380E+03 -0.57795631557E+03  0.63863966511E+03  0.00000000000E+00 0. -1.
         22    1    1    2    0    0  0.17754652933E+03 -0.54390046318E+03  0.30610234808E+04  0.31140352011E+04  0.00000000000E+00 0. -1.
<mgrwt>
<rscale>  0 0.44301822E+04</rscale>
<asrwt>0</asrwt>
<pdfrwt beam="1">  1        2 0.48341859E+00 0.44301822E+04</pdfrwt>
<pdfrwt beam="2">  1       -2 0.24023326E+00 0.44301822E+04</pdfrwt>
<totfact> 0.79465792E-02</totfact>
</mgrwt>
</event>
<event>
 6    1  0.1014650E-006  0.1057272E+04  0.7818608E-02  0.9247868E-01
          2   -1    0    0  501    0  0.00000000000E+00  0.00000000000E+00  0.21002800794E+04  0.21002800794E+04  0.00000000000E+00 0. -1.
         -2   -1    0    0    0  501 -0.00000000000E+00 -0.00000000000E+00 -0.13305655102E+03  0.13305655102E+03  0.00000000000E+00 0.  1.
         23    2    1    2    0    0  0.36015965280E+03 -0.36618588413E+03  0.12171924753E+04  0.13242966655E+04  0.91635468591E+02 0.  0.
         11    1    3    3    0    0  0.13297657954E+03 -0.19703397792E+03  0.59172120897E+03  0.63768263917E+03  0.00000000000E+00 0. -1.
        -11    1    3    3    0    0  0.22718307326E+03 -0.16915190621E+03  0.62547126630E+03  0.68661402630E+03  0.00000000000E+00 0.  1.
         22    1    1    2    0    0 -0.36015965280E+03  0.36618588413E+03  0.75003105315E+03  0.90903996498E+03  0.00000000000E+00 0.  1.
<mgrwt>
<rscale>  0 0.10572720E+04</rscale>
<asrwt>0</asrwt>
<pdfrwt beam="1">  1        2 0.32311999E+00 0.10572720E+04</pdfrwt>
<pdfrwt beam="2">  1       -2 0.20470240E-01 0.10572720E+04</pdfrwt>
<totfact> 0.12041562E+02</totfact>
</mgrwt>
</event>
<event>
 6    1  0.1014650E-006  0.3443382E+04  0.7818608E-02  0.8127340E-01
         -2   -1    0    0    0  501 -0.00000000000E+00  0.00000000000E+00  0.79119424051E+03  0.79119424051E+03  0.00000000000E+00 0.  1.
          2   -1    0    0  501    0  0.00000000000E+00 -0.00000000000E+00 -0.37465127758E+04  0.37465127758E+04  0.00000000000E+00 0. -1.
         23    2    1    2    0    0  0.12754263730E+04  0.19964432607E+03 -0.29773049344E+04  0.32465626821E+04  0.96199204525E+02 0.  0.
         13    1    3    3    0    0  0.20189116860E+03  0.50299111896E+02 -0.55926524128E+03  0.59671404769E+03  0.00000000000E+00 0. -1.
        -13    1    3    3    0    0  0.10735352044E+04  0.14934521417E+03 -0.24180396931E+04  0.26498486344E+04  0.00000000000E+00 0.  1.
         22    1    1    2    0    0 -0.12754263730E+04 -0.19964432607E+03  0.21986399071E+02  0.12911443342E+04  0.00000000000E+00 0.  1.
<mgrwt>
<rscale>  0 0.34433817E+04</rscale>
<asrwt>0</asrwt>
<pdfrwt beam="1">  1        2 0.57638658E+00 0.34433817E+04</pdfrwt>
<pdfrwt beam="2">  1       -2 0.12172219E+00 0.34433817E+04</pdfrwt>
<totfact> 0.22756123E-01</totfact>
</mgrwt>
</event>
<event>
 6    1  0.1014650E-006  0.3414665E+04  0.7818608E-02  0.8134316E-01
          2   -1    0    0  501    0  0.00000000000E+00  0.00000000000E+00  0.22926084103E+04  0.22926084103E+04  0.00000000000E+00 0. -1.
         -2   -1    0    0    0  501 -0.00000000000E+00 -0.00000000000E+00 -0.12714707525E+04  0.12714707525E+04  0.00000000000E+00 0.  1.
         23    2    1    2    0    0  0.90613798760E+03 -0.14279374969E+04  0.27575133072E+03  0.17159199910E+04  0.90835407927E+02 0.  0.
         11    1    3    3    0    0  0.98000246309E+02 -0.11561638922E+03  0.91458122463E+01  0.15183821526E+03  0.00000000000E+00 0.  1.
        -11    1    3    3    0    0  0.80813774129E+03 -0.13123211077E+04  0.26660551847E+03  0.15640817757E+04  0.00000000000E+00 0. -1.
         22    1    1    2    0    0 -0.90613798760E+03  0.14279374969E+04  0.74538632713E+03  0.18481591718E+04  0.00000000000E+00 0. -1.
<mgrwt>
<rscale>  0 0.34146652E+04</rscale>
<asrwt>0</asrwt>
<pdfrwt beam="1">  1        2 0.35270899E+00 0.34146652E+04</pdfrwt>
<pdfrwt beam="2">  1       -2 0.19561089E+00 0.34146652E+04</pdfrwt>
<totfact> 0.53854352E-01</totfact>
</mgrwt>
</event>
<event>
 6    1  0.1014650E-006  0.3100105E+04  0.7818608E-02  0.8215709E-01
         -2   -1    0    0    0  501 -0.00000000000E+00  0.00000000000E+00  0.69242737115E+03  0.69242737115E+03  0.00000000000E+00 0.  1.
          2   -1    0    0  501    0  0.00000000000E+00 -0.00000000000E+00 -0.34699120392E+04  0.34699120392E+04  0.00000000000E+00 0. -1.
         23    2    1    2    0    0  0.92097847333E+03 -0.60742223359E+03 -0.28492445558E+04  0.30567569396E+04  0.91680589859E+02 0.  0.
         11    1    3    3    0    0  0.20536860873E+03 -0.94568162349E+02 -0.62191972949E+03  0.66174281463E+03  0.00000000000E+00 0. -1.
        -11    1    3    3    0    0  0.71560986460E+03 -0.51285407124E+03 -0.22273248264E+04  0.23950141250E+04  0.00000000000E+00 0.  1.
         22    1    1    2    0    0 -0.92097847333E+03  0.60742223359E+03  0.71759887782E+02  0.11055824708E+04  0.00000000000E+00 0.  1.
<mgrwt>
<rscale>  0 0.31001046E+04</rscale>
<asrwt>0</asrwt>
<pdfrwt beam="1">  1        2 0.53383262E+00 0.31001046E+04</pdfrwt>
<pdfrwt beam="2">  1       -2 0.10652729E+00 0.31001046E+04</pdfrwt>
<totfact> 0.51378971E-01</totfact>
</mgrwt>
</event>
<event>
 6    1  0.1014650E-006  0.7065359E+04  0.7818608E-02  0.7570732E-01
          2   -1    0    0  501    0  0.00000000000E+00  0.00000000000E+00  0.29915585875E+04  0.29915585875E+04  0.00000000000E+00 0. -1.
         -2   -1    0    0    0  501 -0.00000000000E+00 -0.00000000000E+00 -0.41716803575E+04  0.41716803575E+04  0.00000000000E+00 0.  1.
         23    2    1    2    0    0  0.84710229824E+01  0.12511030363E+04  0.27586587202E+04  0.30305252705E+04  0.92492784312E+02 0.  0.
         11    1    3    3    0    0  0.50475373575E+02  0.65071692990E+03  0.14265243690E+04  0.15687421909E+04  0.00000000000E+00 0. -1.
        -11    1    3    3    0    0 -0.42004350593E+02  0.60038610637E+03  0.13321343512E+04  0.14617830796E+04  0.00000000000E+00 0.  1.
         22    1    1    2    0    0 -0.84710229824E+01 -0.12511030363E+04 -0.39387804901E+04  0.41327136745E+04  0.00000000000E+00 0.  1.
<mgrwt>
<rscale>  0 0.70653595E+04</rscale>
<asrwt>0</asrwt>
<pdfrwt beam="1">  1        2 0.46023978E+00 0.70653595E+04</pdfrwt>
<pdfrwt beam="2">  1       -2 0.64179698E+00 0.70653595E+04</pdfrwt>
<totfact> 0.40356680E-04</totfact>
</mgrwt>
</event>
<event>
 6    1  0.1014650E-006  0.1302519E+04  0.7818608E-02  0.9027570E-01
         -1   -1    0    0    0  501 -0.00000000000E+00  0.00000000000E+00  0.63774444939E+03  0.63774444939E+03  0.00000000000E+00 0.  1.
          1   -1    0    0  501    0  0.00000000000E+00 -0.00000000000E+00 -0.66506110808E+03  0.66506110808E+03  0.00000000000E+00 0. -1.
         23    2    1    2    0    0  0.30523248123E+03  0.87044325343E+02 -0.57879358555E+03  0.66651129925E+03  0.92150502887E+02 0.  0.
         11    1    3    3    0    0  0.20774956856E+03  0.89510431802E+02 -0.33791443311E+03  0.40664255156E+03  0.00000000000E+00 0.  1.
        -11    1    3    3    0    0  0.97482912667E+02 -0.24661064589E+01 -0.24087915244E+03  0.25986874769E+03  0.00000000000E+00 0. -1.
         22    1    1    2    0    0 -0.30523248123E+03 -0.87044325343E+02  0.55147692687E+03  0.63629425821E+03  0.00000000000E+00 0.  1.
<mgrwt>
<rscale>  0 0.13025191E+04</rscale>
<asrwt>0</asrwt>
<pdfrwt beam="1">  1        1 0.10231709E+00 0.13025191E+04</pdfrwt>
<pdfrwt beam="2">  1       -1 0.98114531E-01 0.13025191E+04</pdfrwt>
<totfact> 0.28796579E+01</totfact>
</mgrwt>
</event>
<event>
 6    1  0.1014650E-006  0.2967748E+04  0.7818608E-02  0.8253001E-01
          2   -1    0    0  501    0  0.00000000000E+00  0.00000000000E+00  0.41884074195E+04  0.41884074195E+04  0.00000000000E+00 0. -1.
         -2   -1    0    0    0  501 -0.00000000000E+00 -0.00000000000E+00 -0.52570876578E+03  0.52570876578E+03  0.00000000000E+00 0.  1.
         23    2    1    2    0    0  0.44421333828E+03 -0.11803548276E+04  0.59496388436E+03  0.13972562811E+04  0.88204776085E+02 0.  0.
         11    1    3    3    0    0  0.26149061503E+03 -0.56970989081E+03  0.29315500475E+03  0.69201629911E+03  0.00000000000E+00 0. -1.
        -11    1    3    3    0    0  0.18272272325E+03 -0.61064493675E+03  0.30180887961E+03  0.70523998198E+03  0.00000000000E+00 0.  1.
         22    1    1    2    0    0 -0.44421333828E+03  0.11803548276E+04  0.30677347693E+04  0.33168599041E+04  0.00000000000E+00 0. -1.
<mgrwt>
<rscale>  0 0.29677483E+04</rscale>
<asrwt>0</asrwt>
<pdfrwt beam="1">  1        2 0.64437035E+00 0.29677483E+04</pdfrwt>
<pdfrwt beam="2">  1       -2 0.80878275E-01 0.29677483E+04</pdfrwt>
<totfact> 0.27537432E-01</totfact>
</mgrwt>
</event>
<event>
 6    1  0.1014650E-006  0.3555125E+04  0.7818608E-02  0.8100849E-01
         -1   -1    0    0    0  501 -0.00000000000E+00  0.00000000000E+00  0.81455960477E+03  0.81455960477E+03  0.00000000000E+00 0.  1.
          1   -1    0    0  501    0  0.00000000000E+00 -0.00000000000E+00 -0.38790631419E+04  0.38790631419E+04  0.00000000000E+00 0. -1.
         23    2    1    2    0    0  0.15707354688E+04 -0.90602941952E+02 -0.44449816948E+03  0.16375064314E+04  0.91814401029E+02 0.  0.
         13    1    3    3    0    0  0.77581151872E+03 -0.34507677267E+01 -0.23984550151E+03  0.81204758787E+03  0.00000000000E+00 0. -1.
        -13    1    3    3    0    0  0.79492395006E+03 -0.87152174226E+02 -0.20465266797E+03  0.82545884353E+03  0.00000000000E+00 0.  1.
         22    1    1    2    0    0 -0.15707354688E+04  0.90602941952E+02 -0.26200053676E+04  0.30561163153E+04  0.00000000000E+00 0. -1.
<mgrwt>
<rscale>  0 0.35551248E+04</rscale>
<asrwt>0</asrwt>
<pdfrwt beam="1">  1        1 0.59677894E+00 0.35551248E+04</pdfrwt>
<pdfrwt beam="2">  1       -1 0.12531686E+00 0.35551248E+04</pdfrwt>
<totfact> 0.55043178E-02</totfact>
</mgrwt>
</event>
<event>
 6    1  0.1014650E-006  0.2003137E+04  0.7818608E-02  0.8605155E-01
          1   -1    0    0  501    0  0.00000000000E+00  0.00000000000E+00  0.22849151454E+04  0.22849151454E+04  0.00000000000E+00 0. -1.
         -1   -1    0    0    0  501 -0.00000000000E+00 -0.00000000000E+00 -0.43902700080E+03  0.43902700080E+03  0.00000000000E+00 0.  1.
         23    2    1    2    0    0 -0.74435013151E+03 -0.58949222826E+03  0.13491441786E+04  0.16523485790E+04  0.92236686986E+02 0.  0.
         11    1    3    3    0    0 -0.28240627973E+03 -0.25208294855E+03  0.47020481225E+03  0.60364864387E+03  0.00000000000E+00 0.  1.
        -11    1    3    3    0    0 -0.46194385178E+03 -0.33740927971E+03  0.87893936638E+03  0.10486999352E+04  0.00000000000E+00 0. -1.
         22    1    1    2    0    0  0.74435013151E+03  0.58949222826E+03  0.49674396593E+03  0.10715935671E+04  0.00000000000E+00 0.  1.
<mgrwt>
<rscale>  0 0.20031370E+04</rscale>
<asrwt>0</asrwt>
<pdfrwt beam="1">  1        1 0.35152540E+00 0.20031370E+04</pdfrwt>
<pdfrwt beam="2">  1       -1 0.67542617E-01 0.20031370E+04</pdfrwt>
<totfact> 0.39245180E+00</totfact>
</mgrwt>
</event>
<event>
 6    1  0.1014650E-006  0.1869007E+04  0.7818608E-02  0.8670439E-01
          2   -1    0    0  501    0  0.00000000000E+00  0.00000000000E+00  0.26500784812E+04  0.26500784812E+04  0.00000000000E+00 0. -1.
         -2   -1    0    0    0  501 -0.00000000000E+00 -0.00000000000E+00 -0.32953634120E+03  0.32953634120E+03  0.00000000000E+00 0.  1.
         23    2    1    2    0    0 -0.48806132373E+03 -0.45245832955E+03  0.22038668525E+04  0.23039407009E+04  0.90505547277E+02 0.  0.
         11    1    3    3    0    0 -0.44865800786E+03 -0.40930864523E+03  0.19066860753E+04  0.20010695552E+04  0.00000000000E+00 0.  1.
        -11    1    3    3    0    0 -0.39403315867E+02 -0.43149684312E+02  0.29718077721E+03  0.30287114571E+03  0.00000000000E+00 0. -1.
         22    1    1    2    0    0  0.48806132373E+03  0.45245832955E+03  0.11667528747E+03  0.67567412145E+03  0.00000000000E+00 0.  1.
<mgrwt>
<rscale>  0 0.18690074E+04</rscale>
<asrwt>0</asrwt>
<pdfrwt beam="1">  1        2 0.40770437E+00 0.18690074E+04</pdfrwt>
<pdfrwt beam="2">  1       -2 0.50697900E-01 0.18690074E+04</pdfrwt>
<totfact> 0.98337764E+00</totfact>
</mgrwt>
</event>
<event>
 6    1  0.1014650E-006  0.8995065E+03  0.7818608E-02  0.9426198E-01
         -4   -1    0    0    0  501 -0.00000000000E+00  0.00000000000E+00  0.86994782121E+03  0.86994782121E+03  0.00000000000E+00 0.  1.
          4   -1    0    0  501    0  0.00000000000E+00 -0.00000000000E+00 -0.23251740141E+03  0.23251740141E+03  0.00000000000E+00 0. -1.
         23    2    1    2    0    0 -0.15159995973E+03  0.41779424565E+03  0.29309249975E+03  0.54023468035E+03  0.91737216858E+02 0.  0.
         13    1    3    3    0    0 -0.89217178063E+02  0.18096624059E+03  0.85298137920E+02  0.21905309272E+03  0.00000000000E+00 0. -1.
        -13    1    3    3    0    0 -0.62382781668E+02  0.23682800505E+03  0.20779436183E+03  0.32118158763E+03  0.00000000000E+00 0.  1.
         22    1    1    2    0    0  0.15159995973E+03 -0.41779424565E+03  0.34433792004E+03  0.56223054227E+03  0.00000000000E+00 0.  1.
<mgrwt>
<rscale>  0 0.89950655E+03</rscale>
<asrwt>0</asrwt>
<pdfrwt beam="1">  1        4 0.35771908E-01 0.89950655E+03</pdfrwt>
<pdfrwt beam="2">  1       -4 0.13383812E+00 0.89950655E+03</pdfrwt>
<totfact> 0.60922412E+00</totfact>
</mgrwt>
</event>
<event>
 6    1  0.1014650E-006  0.1728311E+04  0.7818608E-02  0.8745380E-01
         -1   -1    0    0    0  501 -0.00000000000E+00  0.00000000000E+00  0.11389262747E+04  0.11389262747E+04  0.00000000000E+00 0.  1.
          1   -1    0    0  501    0  0.00000000000E+00 -0.00000000000E+00 -0.65567425154E+03  0.65567425154E+03  0.00000000000E+00 0. -1.
         23    2    1    2    0    0 -0.56222839478E+03 -0.51495528149E+03 -0.17488047724E+03  0.78741727679E+03  0.90349746186E+02 0.  0.
         11    1    3    3    0    0 -0.39441584817E+03 -0.32012132873E+03 -0.14670253997E+03  0.52873732763E+03  0.00000000000E+00 0. -1.
        -11    1    3    3    0    0 -0.16781254661E+03 -0.19483395277E+03 -0.28177937265E+02  0.25867994916E+03  0.00000000000E+00 0.  1.
         22    1    1    2    0    0  0.56222839478E+03  0.51495528149E+03  0.65813250036E+03  0.10071832494E+04  0.00000000000E+00 0.  1.
<mgrwt>
<rscale>  0 0.17283109E+04</rscale>
<asrwt>0</asrwt>
<pdfrwt beam="1">  1        1 0.10087296E+00 0.17283109E+04</pdfrwt>
<pdfrwt beam="2">  1       -1 0.17521943E+00 0.17283109E+04</pdfrwt>
<totfact> 0.64317155E+00</totfact>
</mgrwt>
</event>
<event>
 6    1  0.1014650E-006  0.1761249E+04  0.7818608E-02  0.8727183E-01
          2   -1    0    0  501    0  0.00000000000E+00  0.00000000000E+00  0.17581245059E+04  0.17581245059E+04  0.00000000000E+00 0. -1.
         -2   -1    0    0    0  501 -0.00000000000E+00 -0.00000000000E+00 -0.44109481261E+03  0.44109481261E+03  0.00000000000E+00 0.  1.
         23    2    1    2    0    0  0.47720048594E+03 -0.73695933346E+03  0.63136908937E+03  0.10852355544E+04  0.90994057936E+02 0.  0.
         11    1    3    3    0    0  0.57228912307E+02 -0.12647514760E+03  0.69103160840E+02  0.15506888212E+03  0.00000000000E+00 0. -1.
        -11    1    3    3    0    0  0.41997157363E+03 -0.61048418587E+03  0.56226592853E+03  0.93016667229E+03  0.00000000000E+00 0.  1.
         22    1    1    2    0    0 -0.47720048594E+03  0.73695933346E+03  0.68566060395E+03  0.11139837641E+04  0.00000000000E+00 0.  1.
<mgrwt>
<rscale>  0 0.17612491E+04</rscale>
<asrwt>0</asrwt>
<pdfrwt beam="1">  1        2 0.27048069E+00 0.17612491E+04</pdfrwt>
<pdfrwt beam="2">  1       -2 0.67860742E-01 0.17612491E+04</pdfrwt>
<totfact> 0.17145045E+01</totfact>
</mgrwt>
</event>
<event>
 6    1  0.1014650E-006  0.1188276E+04  0.7818608E-02  0.9123181E-01
         -2   -1    0    0    0  501 -0.00000000000E+00  0.00000000000E+00  0.13981683825E+03  0.13981683825E+03  0.00000000000E+00 0.  1.
          2   -1    0    0  501    0  0.00000000000E+00 -0.00000000000E+00 -0.25247326061E+04  0.25247326061E+04  0.00000000000E+00 0. -1.
         23    2    1    2    0    0  0.52776260184E+03 -0.91918754487E+02 -0.64213692514E+03  0.84129397242E+03  0.91941808047E+02 0.  0.
         11    1    3    3    0    0  0.12611061341E+03 -0.53677833405E+02 -0.12602321777E+03  0.18619089138E+03  0.00000000000E+00 0. -1.
        -11    1    3    3    0    0  0.40165198844E+03 -0.38240921082E+02 -0.51611370737E+03  0.65510308105E+03  0.00000000000E+00 0.  1.
         22    1    1    2    0    0 -0.52776260184E+03  0.91918754487E+02 -0.17427788427E+04  0.18232554719E+04  0.00000000000E+00 0.  1.
<mgrwt>
<rscale>  0 0.11882763E+04</rscale>
<asrwt>0</asrwt>
<pdfrwt beam="1">  1        2 0.38842046E+00 0.11882763E+04</pdfrwt>
<pdfrwt beam="2">  1       -2 0.21510280E-01 0.11882763E+04</pdfrwt>
<totfact> 0.62939619E+01</totfact>
</mgrwt>
</event>
<event>
 6    1  0.1014650E-006  0.1582191E+04  0.7818608E-02  0.8831564E-01
          2   -1    0    0  501    0  0.00000000000E+00  0.00000000000E+00  0.20621945615E+04  0.20621945615E+04  0.00000000000E+00 0. -1.
         -2   -1    0    0    0  501 -0.00000000000E+00 -0.00000000000E+00 -0.30347863598E+03  0.30347863598E+03  0.00000000000E+00 0.  1.
         23    2    1    2    0    0 -0.19095631451E+03 -0.61248563249E+03  0.19697272204E+03  0.67728793407E+03  0.91201580930E+02 0.  0.
         13    1    3    3    0    0 -0.17202635681E+03 -0.50583996219E+03  0.12978368119E+03  0.54982809922E+03  0.00000000000E+00 0.  1.
        -13    1    3    3    0    0 -0.18929957695E+02 -0.10664567029E+03  0.67189040853E+02  0.12745983486E+03  0.00000000000E+00 0. -1.
         22    1    1    2    0    0  0.19095631451E+03  0.61248563249E+03  0.15617432035E+04  0.16883852634E+04  0.00000000000E+00 0. -1.
<mgrwt>
<rscale>  0 0.15821909E+04</rscale>
<asrwt>0</asrwt>
<pdfrwt beam="1">  1        2 0.31726069E+00 0.15821909E+04</pdfrwt>
<pdfrwt beam="2">  1       -2 0.46689022E-01 0.15821909E+04</pdfrwt>
<totfact> 0.25770368E+01</totfact>
</mgrwt>
</event>
<event>
 6    1  0.1014650E-006  0.2063121E+04  0.7818608E-02  0.8577665E-01
          2   -1    0    0  501    0  0.00000000000E+00  0.00000000000E+00  0.28176082834E+04  0.28176082834E+04  0.00000000000E+00 0. -1.
         -2   -1    0    0    0  501 -0.00000000000E+00 -0.00000000000E+00 -0.37766677547E+03  0.37766677547E+03  0.00000000000E+00 0.  1.
         23    2    1    2    0    0  0.43454350633E+03 -0.86981072582E+03  0.69863667831E+03  0.12008976454E+04  0.93076252723E+02 0.  0.
         13    1    3    3    0    0  0.23770370212E+03 -0.51277483979E+03  0.45810509932E+03  0.72753100851E+03  0.00000000000E+00 0. -1.
        -13    1    3    3    0    0  0.19683980421E+03 -0.35703588603E+03  0.24053157899E+03  0.47336663689E+03  0.00000000000E+00 0.  1.
         22    1    1    2    0    0 -0.43454350633E+03  0.86981072582E+03  0.17413048296E+04  0.19943774134E+04  0.00000000000E+00 0. -1.
<mgrwt>
<rscale>  0 0.20631210E+04</rscale>
<asrwt>0</asrwt>
<pdfrwt beam="1">  1        2 0.43347818E+00 0.20631210E+04</pdfrwt>
<pdfrwt beam="2">  1       -2 0.58102583E-01 0.20631210E+04</pdfrwt>
<totfact> 0.57876753E+00</totfact>
</mgrwt>
</event>
<event>
 6    1  0.1014650E-006  0.1878369E+04  0.7818608E-02  0.8665699E-01
         -2   -1    0    0    0  501 -0.00000000000E+00  0.00000000000E+00  0.70577615572E+03  0.70577615572E+03  0.00000000000E+00 0.  1.
          2   -1    0    0  501    0  0.00000000000E+00 -0.00000000000E+00 -0.12497838278E+04  0.12497838278E+04  0.00000000000E+00 0. -1.
         23    2    1    2    0    0  0.12983317166E+03  0.55798159296E+03 -0.10445289109E+04  0.11948224328E+04  0.91432431792E+02 0.  0.
         11    1    3    3    0    0  0.63881476877E+02  0.44296940122E+03 -0.80810926301E+03  0.92376583313E+03  0.00000000000E+00 0. -1.
        -11    1    3    3    0    0  0.65951694786E+02  0.11501219174E+03 -0.23641964790E+03  0.27105659964E+03  0.00000000000E+00 0.  1.
         22    1    1    2    0    0 -0.12983317166E+03 -0.55798159296E+03  0.50052123885E+03  0.76073755073E+03  0.00000000000E+00 0.  1.
<mgrwt>
<rscale>  0 0.18783691E+04</rscale>
<asrwt>0</asrwt>
<pdfrwt beam="1">  1        2 0.19227443E+00 0.18783691E+04</pdfrwt>
<pdfrwt beam="2">  1       -2 0.10858095E+00 0.18783691E+04</pdfrwt>
<totfact> 0.11256256E+01</totfact>
</mgrwt>
</event>
<event>
 6    1  0.1014650E-006  0.3403521E+04  0.7818608E-02  0.8137043E-01
         -3   -1    0    0    0  501 -0.00000000000E+00  0.00000000000E+00  0.12288142200E+04  0.12288142200E+04  0.00000000000E+00 0.  1.
          3   -1    0    0  501    0  0.00000000000E+00 -0.00000000000E+00 -0.23567347340E+04  0.23567347340E+04  0.00000000000E+00 0. -1.
         23    2    1    2    0    0 -0.10551129285E+04  0.21851364494E+02 -0.19691499693E+04  0.22359535440E+04  0.90531074148E+02 0.  0.
         11    1    3    3    0    0 -0.52629547399E+03 -0.34057629723E+02 -0.96921543557E+03  0.11034153382E+04  0.00000000000E+00 0. -1.
        -11    1    3    3    0    0 -0.52881745448E+03  0.55908994216E+02 -0.99993453378E+03  0.11325382058E+04  0.00000000000E+00 0.  1.
         22    1    1    2    0    0  0.10551129285E+04 -0.21851364494E+02  0.84122945537E+03  0.13495954099E+04  0.00000000000E+00 0.  1.
<mgrwt>
<rscale>  0 0.34035212E+04</rscale>
<asrwt>0</asrwt>
<pdfrwt beam="1">  1        3 0.36257457E+00 0.34035212E+04</pdfrwt>
<pdfrwt beam="2">  1       -3 0.18904834E+00 0.34035212E+04</pdfrwt>
<totfact> 0.65079999E-03</totfact>
</mgrwt>
</event>
<event>
 6    1  0.1014650E-006  0.3672111E+04  0.7818608E-02  0.8074171E-01
         -2   -1    0    0    0  501 -0.00000000000E+00  0.00000000000E+00  0.16693429636E+04  0.16693429636E+04  0.00000000000E+00 0.  1.
          2   -1    0    0  501    0  0.00000000000E+00 -0.00000000000E+00 -0.20194167143E+04  0.20194167143E+04  0.00000000000E+00 0. -1.
         23    2    1    2    0    0  0.12614798129E+04  0.11410703241E+04  0.51575668706E+03  0.17800860154E+04  0.96583947816E+02 0.  0.
         13    1    3    3    0    0  0.25691154882E+03  0.24351959919E+03  0.67708164855E+02  0.36040218464E+03  0.00000000000E+00 0. -1.
        -13    1    3    3    0    0  0.10045682641E+04  0.89755072493E+03  0.44804852221E+03  0.14196838308E+04  0.00000000000E+00 0.  1.
         22    1    1    2    0    0 -0.12614798129E+04 -0.11410703241E+04 -0.86583043775E+03  0.19086736625E+04  0.00000000000E+00 0. -1.
<mgrwt>
<rscale>  0 0.36721106E+04</rscale>
<asrwt>0</asrwt>
<pdfrwt beam="1">  1        2 0.31067950E+00 0.36721106E+04</pdfrwt>
<pdfrwt beam="2">  1       -2 0.25682199E+00 0.36721106E+04</pdfrwt>
<totfact> 0.30813091E-01</totfact>
</mgrwt>
</event>
<event>
 6    1  0.1014650E-006  0.9000179E+03  0.7818608E-02  0.9425559E-01
          1   -1    0    0  501    0  0.00000000000E+00  0.00000000000E+00  0.11274926130E+04  0.11274926130E+04  0.00000000000E+00 0. -1.
         -1   -1    0    0    0  501 -0.00000000000E+00 -0.00000000000E+00 -0.17960922341E+03  0.17960922341E+03  0.00000000000E+00 0.  1.
         23    2    1    2    0    0 -0.30665243531E+03  0.29037470233E+03  0.68782156841E+03  0.81113274999E+03  0.80527289170E+02 0.  0.
         11    1    3    3    0    0 -0.12515893056E+03  0.17394608648E+03  0.34082483858E+03  0.40259603760E+03  0.00000000000E+00 0.  1.
        -11    1    3    3    0    0 -0.18149350475E+03  0.11642861585E+03  0.34699672983E+03  0.40853671239E+03  0.00000000000E+00 0. -1.
         22    1    1    2    0    0  0.30665243531E+03 -0.29037470233E+03  0.26006182116E+03  0.49596908640E+03  0.00000000000E+00 0. -1.
<mgrwt>
<rscale>  0 0.90001794E+03</rscale>
<asrwt>0</asrwt>
<pdfrwt beam="1">  1        1 0.17346040E+00 0.90001794E+03</pdfrwt>
<pdfrwt beam="2">  1       -1 0.27632189E-01 0.90001794E+03</pdfrwt>
<totfact> 0.14334996E+02</totfact>
</mgrwt>
</event>
<event>
 6    1  0.1014650E-006  0.3515756E+04  0.7818608E-02  0.8110066E-01
         -2   -1    0    0    0  501 -0.00000000000E+00  0.00000000000E+00  0.15473924494E+04  0.15473924494E+04  0.00000000000E+00 0.  1.
          2   -1    0    0  501    0  0.00000000000E+00 -0.00000000000E+00 -0.19969947674E+04  0.19969947674E+04  0.00000000000E+00 0. -1.
         23    2    1    2    0    0 -0.45297963854E+03  0.28970785600E+03  0.14611423081E+04  0.15594272119E+04  0.88063555911E+02 0.  0.
         13    1    3    3    0    0 -0.34515492084E+03  0.22863142190E+03  0.10096330124E+04  0.10912209062E+04  0.00000000000E+00 0.  1.
        -13    1    3    3    0    0 -0.10782471770E+03  0.61076434099E+02  0.45150929577E+03  0.46820630572E+03  0.00000000000E+00 0. -1.
         22    1    1    2    0    0  0.45297963854E+03 -0.28970785600E+03 -0.19107446261E+04  0.19849600049E+04  0.00000000000E+00 0. -1.
<mgrwt>
<rscale>  0 0.35157558E+04</rscale>
<asrwt>0</asrwt>
<pdfrwt beam="1">  1        2 0.30722996E+00 0.35157558E+04</pdfrwt>
<pdfrwt beam="2">  1       -2 0.23806038E+00 0.35157558E+04</pdfrwt>
<totfact> 0.41920087E-01</totfact>
</mgrwt>
</event>
<event>
 6    1  0.1111029E-006  0.3307543E+04  0.7818608E-02  0.8160979E-01
         -2   -1    0    0    0  501 -0.00000000000E+00  0.00000000000E+00  0.10044343366E+04  0.10044343366E+04  0.00000000000E+00 0.  1.
          2   -1    0    0  501    0  0.00000000000E+00 -0.00000000000E+00 -0.27228862714E+04  0.27228862714E+04  0.00000000000E+00 0. -1.
         23    2    1    2    0    0  0.12492261238E+04 -0.27537635342E+03  0.31891297034E+03  0.13216494333E+04  0.93025252150E+02 0.  0.
         13    1    3    3    0    0  0.73156827167E+03 -0.12597816803E+03  0.15345623644E+03  0.75803129978E+03  0.00000000000E+00 0.  1.
        -13    1    3    3    0    0  0.51765785212E+03 -0.14939818538E+03  0.16545673390E+03  0.56361813353E+03  0.00000000000E+00 0. -1.
         22    1    1    2    0    0 -0.12492261238E+04  0.27537635342E+03 -0.20373649051E+04  0.24056711747E+04  0.00000000000E+00 0. -1.
<mgrwt>
<rscale>  0 0.33075432E+04</rscale>
<asrwt>0</asrwt>
<pdfrwt beam="1">  1        2 0.41890557E+00 0.33075432E+04</pdfrwt>
<pdfrwt beam="2">  1       -2 0.15452836E+00 0.33075432E+04</pdfrwt>
<totfact> 0.59425148E-01</totfact>
</mgrwt>
</event>
<event>
 6    1  0.1014650E-006  0.7089527E+03  0.7818608E-02  0.9702043E-01
          1   -1    0    0  501    0  0.00000000000E+00  0.00000000000E+00  0.20839718402E+03  0.20839718402E+03  0.00000000000E+00 0. -1.
         -1   -1    0    0    0  501 -0.00000000000E+00 -0.00000000000E+00 -0.60295200536E+03  0.60295200536E+03  0.00000000000E+00 0.  1.
         23    2    1    2    0    0  0.14538002275E+03 -0.22176048761E+03  0.58865298168E+02  0.28608461828E+03  0.89812140655E+02 0.  0.
         11    1    3    3    0    0  0.19515790548E+02 -0.89414602334E+02 -0.73455066017E+01  0.91813907762E+02  0.00000000000E+00 0. -1.
        -11    1    3    3    0    0  0.12586423221E+03 -0.13234588528E+03  0.66210804769E+02  0.19427071052E+03  0.00000000000E+00 0.  1.
         22    1    1    2    0    0 -0.14538002275E+03  0.22176048761E+03 -0.45342011951E+03  0.52526457110E+03  0.00000000000E+00 0.  1.
<mgrwt>
<rscale>  0 0.70895275E+03</rscale>
<asrwt>0</asrwt>
<pdfrwt beam="1">  1        1 0.32061105E-01 0.70895275E+03</pdfrwt>
<pdfrwt beam="2">  1       -1 0.92761848E-01 0.70895275E+03</pdfrwt>
<totfact> 0.16168076E+02</totfact>
</mgrwt>
</event>
<event>
 6    1  0.1014650E-006  0.3808481E+04  0.7818608E-02  0.8044337E-01
         -2   -1    0    0    0  501 -0.00000000000E+00  0.00000000000E+00  0.19608903591E+04  0.19608903591E+04  0.00000000000E+00 0.  1.
          2   -1    0    0  501    0  0.00000000000E+00 -0.00000000000E+00 -0.18492272834E+04  0.18492272834E+04  0.00000000000E+00 0. -1.
         23    2    1    2    0    0 -0.51134343278E+03  0.28175720072E+03  0.18680284806E+04  0.19592587441E+04  0.91132844822E+02 0.  0.
         11    1    3    3    0    0 -0.29134077193E+03  0.10974104044E+03  0.10163026587E+04  0.10629175111E+04  0.00000000000E+00 0. -1.
        -11    1    3    3    0    0 -0.22000266085E+03  0.17201616028E+03  0.85172582190E+03  0.89634123294E+03  0.00000000000E+00 0.  1.
         22    1    1    2    0    0  0.51134343278E+03 -0.28175720072E+03 -0.17563654049E+04  0.18508588984E+04  0.00000000000E+00 0. -1.
<mgrwt>
<rscale>  0 0.38084810E+04</rscale>
<asrwt>0</asrwt>
<pdfrwt beam="1">  1        2 0.28449650E+00 0.38084810E+04</pdfrwt>
<pdfrwt beam="2">  1       -2 0.30167544E+00 0.38084810E+04</pdfrwt>
<totfact> 0.20152456E-01</totfact>
</mgrwt>
</event>
<event>
 6    1  0.1014650E-006  0.3609219E+04  0.7818608E-02  0.8088383E-01
         -2   -1    0    0    0  501 -0.00000000000E+00  0.00000000000E+00  0.15747771156E+04  0.15747771156E+04  0.00000000000E+00 0.  1.
          2   -1    0    0  501    0  0.00000000000E+00 -0.00000000000E+00 -0.20679850218E+04  0.20679850218E+04  0.00000000000E+00 0. -1.
         23    2    1    2    0    0 -0.13970161594E+04 -0.99712731939E+03 -0.80553299337E+03  0.18982094724E+04  0.91644733089E+02 0.  0.
         11    1    3    3    0    0 -0.11717608014E+04 -0.87540046547E+03 -0.69344488750E+03  0.16187078682E+04  0.00000000000E+00 0.  1.
        -11    1    3    3    0    0 -0.22525535805E+03 -0.12172685391E+03 -0.11208810587E+03  0.27950160423E+03  0.00000000000E+00 0. -1.
         22    1    1    2    0    0  0.13970161594E+04  0.99712731939E+03  0.31232508721E+03  0.17445526650E+04  0.00000000000E+00 0. -1.
<mgrwt>
<rscale>  0 0.36092190E+04</rscale>
<asrwt>0</asrwt>
<pdfrwt beam="1">  1        2 0.31815154E+00 0.36092190E+04</pdfrwt>
<pdfrwt beam="2">  1       -2 0.24227340E+00 0.36092190E+04</pdfrwt>
<totfact> 0.35763532E-01</totfact>
</mgrwt>
</event>
<event>
 6    1  0.1014650E-006  0.2990448E+04  0.7818608E-02  0.8246464E-01
          2   -1    0    0  501    0  0.00000000000E+00  0.00000000000E+00  0.10138353599E+04  0.10138353599E+04  0.00000000000E+00 0. -1.
         -2   -1    0    0    0  501 -0.00000000000E+00 -0.00000000000E+00 -0.22051848294E+04  0.22051848294E+04  0.00000000000E+00 0.  1.
         23    2    1    2    0    0 -0.11992894843E+04 -0.40946362471E+03  0.25510308424E+03  0.12959547412E+04  0.92007502448E+02 0.  0.
         13    1    3    3    0    0 -0.67396135441E+03 -0.23626913208E+03  0.97513954525E+02  0.72080231780E+03  0.00000000000E+00 0. -1.
        -13    1    3    3    0    0 -0.52532812991E+03 -0.17319449263E+03  0.15758912971E+03  0.57515242342E+03  0.00000000000E+00 0.  1.
         22    1    1    2    0    0  0.11992894843E+04  0.40946362471E+03 -0.14464525538E+04  0.19230654481E+04  0.00000000000E+00 0.  1.
<mgrwt>
<rscale>  0 0.29904477E+04</rscale>
<asrwt>0</asrwt>
<pdfrwt beam="1">  1        2 0.15597467E+00 0.29904477E+04</pdfrwt>
<pdfrwt beam="2">  1       -2 0.33925920E+00 0.29904477E+04</pdfrwt>
<totfact> 0.38415960E-01</totfact>
</mgrwt>
</event>
<event>
 6    1  0.1014650E-006  0.2000444E+04  0.7818608E-02  0.8606413E-01
          2   -1    0    0  501    0  0.00000000000E+00  0.00000000000E+00  0.24598927284E+04  0.24598927284E+04  0.00000000000E+00 0. -1.
         -2   -1    0    0    0  501 -0.00000000000E+00 -0.00000000000E+00 -0.40670237794E+03  0.40670237794E+03  0.00000000000E+00 0.  1.
         23    2    1    2    0    0  0.72245112986E+03  0.62083798981E+03  0.14564435531E+04  0.17425478721E+04  0.88711998261E+02 0.  0.
         13    1    3    3    0    0  0.60928883677E+03  0.55865790863E+03  0.12848768093E+04  0.15278219662E+04  0.00000000000E+00 0.  1.
        -13    1    3    3    0    0  0.11316229310E+03  0.62180081183E+02  0.17156674385E+03  0.21472590591E+03  0.00000000000E+00 0. -1.
         22    1    1    2    0    0 -0.72245112986E+03 -0.62083798981E+03  0.59674679737E+03  0.11240472342E+04  0.00000000000E+00 0. -1.
<mgrwt>
<rscale>  0 0.20004442E+04</rscale>
<asrwt>0</asrwt>
<pdfrwt beam="1">  1        2 0.37844503E+00 0.20004442E+04</pdfrwt>
<pdfrwt beam="2">  1       -2 0.62569598E-01 0.20004442E+04</pdfrwt>
<totfact> 0.80857774E+00</totfact>
</mgrwt>
</event>
<event>
 6    1  0.1014650E-006  0.1478045E+04  0.7818608E-02  0.8899186E-01
         -2   -1    0    0    0  501 -0.00000000000E+00  0.00000000000E+00  0.26214823681E+03  0.26214823681E+03  0.00000000000E+00 0.  1.
          2   -1    0    0  501    0  0.00000000000E+00 -0.00000000000E+00 -0.20833783767E+04  0.20833783767E+04  0.00000000000E+00 0. -1.
         23    2    1    2    0    0  0.56665025286E+03 -0.15672224636E+03 -0.16172131912E+04  0.17232105468E+04  0.91769881778E+02 0.  0.
         13    1    3    3    0    0  0.13070933423E+03 -0.50373774137E+02 -0.28720479503E+03  0.31954505389E+03  0.00000000000E+00 0.  1.
        -13    1    3    3    0    0  0.43594091863E+03 -0.10634847223E+03 -0.13300083961E+04  0.14036654929E+04  0.00000000000E+00 0. -1.
         22    1    1    2    0    0 -0.56665025286E+03  0.15672224636E+03 -0.20401694872E+03  0.62231606676E+03  0.00000000000E+00 0.  1.
<mgrwt>
<rscale>  0 0.14780446E+04</rscale>
<asrwt>0</asrwt>
<pdfrwt beam="1">  1        2 0.32051974E+00 0.14780446E+04</pdfrwt>
<pdfrwt beam="2">  1       -2 0.40330499E-01 0.14780446E+04</pdfrwt>
<totfact> 0.33832150E+01</totfact>
</mgrwt>
</event>
<event>
 6    1  0.1014650E-006  0.1852262E+04  0.7818608E-02  0.8678990E-01
          1   -1    0    0  501    0  0.00000000000E+00  0.00000000000E+00  0.12761134589E+04  0.12761134589E+04  0.00000000000E+00 0. -1.
         -1   -1    0    0    0  501 -0.00000000000E+00 -0.00000000000E+00 -0.67213356643E+03  0.67213356643E+03  0.00000000000E+00 0.  1.
         23    2    1    2    0    0  0.56060199990E+03 -0.61527632516E+03  0.72450259416E+03  0.11071969197E+04  0.90229991812E+02 0.  0.
         13    1    3    3    0    0  0.26743510663E+03 -0.31513377681E+03  0.41603099819E+03  0.58644064064E+03  0.00000000000E+00 0. -1.
        -13    1    3    3    0    0  0.29316689327E+03 -0.30014254835E+03  0.30847159597E+03  0.52075627904E+03  0.00000000000E+00 0.  1.
         22    1    1    2    0    0 -0.56060199990E+03  0.61527632516E+03 -0.12052270168E+03  0.84105010565E+03  0.00000000000E+00 0.  1.
<mgrwt>
<rscale>  0 0.18522621E+04</rscale>
<asrwt>0</asrwt>
<pdfrwt beam="1">  1        1 0.19632515E+00 0.18522621E+04</pdfrwt>
<pdfrwt beam="2">  1       -1 0.10340516E+00 0.18522621E+04</pdfrwt>
<totfact> 0.77991012E+00</totfact>
</mgrwt>
</event>
<event>
 6    1  0.1768581E-006  0.2989914E+04  0.7818608E-02  0.8246617E-01
          2   -1    0    0  501    0  0.00000000000E+00  0.00000000000E+00  0.16864568104E+04  0.16864568104E+04  0.00000000000E+00 0. -1.
         -2   -1    0    0    0  501 -0.00000000000E+00 -0.00000000000E+00 -0.13252027310E+04  0.13252027310E+04  0.00000000000E+00 0.  1.
         23    2    1    2    0    0  0.46590329756E+03  0.44215097011E+03 -0.11774271160E+04  0.13442953988E+04  0.90731156834E+02 0.  0.
         11    1    3    3    0    0  0.23122692812E+03  0.21184797509E+03 -0.48175754070E+03  0.57483544155E+03  0.00000000000E+00 0.  1.
        -11    1    3    3    0    0  0.23467636944E+03  0.23030299502E+03 -0.69566957529E+03  0.76945995729E+03  0.00000000000E+00 0. -1.
         22    1    1    2    0    0 -0.46590329756E+03 -0.44215097011E+03  0.15386811953E+04  0.16673641426E+04  0.00000000000E+00 0. -1.
<mgrwt>
<rscale>  0 0.29899145E+04</rscale>
<asrwt>0</asrwt>
<pdfrwt beam="1">  1        2 0.25945490E+00 0.29899145E+04</pdfrwt>
<pdfrwt beam="2">  1       -2 0.20387734E+00 0.29899145E+04</pdfrwt>
<totfact> 0.10726137E+00</totfact>
</mgrwt>
</event>
<event>
 6    1  0.1014650E-006  0.1621466E+04  0.7818608E-02  0.8807468E-01
         -1   -1    0    0    0  501 -0.00000000000E+00  0.00000000000E+00  0.46150119882E+03  0.46150119882E+03  0.00000000000E+00 0.  1.
          1   -1    0    0  501    0  0.00000000000E+00 -0.00000000000E+00 -0.14242389711E+04  0.14242389711E+04  0.00000000000E+00 0. -1.
         23    2    1    2    0    0 -0.70362172789E+03 -0.14318873690E+03 -0.91511045714E+03  0.11661188031E+04  0.82579440021E+02 0.  0.
         13    1    3    3    0    0 -0.41426362788E+03 -0.72286176816E+02 -0.59754537752E+03  0.73068469461E+03  0.00000000000E+00 0. -1.
        -13    1    3    3    0    0 -0.28935810001E+03 -0.70902560088E+02 -0.31756507962E+03  0.43543410852E+03  0.00000000000E+00 0.  1.
         22    1    1    2    0    0  0.70362172789E+03  0.14318873690E+03 -0.47627315104E+02  0.71962136675E+03  0.00000000000E+00 0.  1.
<mgrwt>
<rscale>  0 0.16214660E+04</rscale>
<asrwt>0</asrwt>
<pdfrwt beam="1">  1        1 0.21911368E+00 0.16214660E+04</pdfrwt>
<pdfrwt beam="2">  1       -1 0.71000186E-01 0.16214660E+04</pdfrwt>
<totfact> 0.14178751E+01</totfact>
</mgrwt>
</event>
<event>
 6    1  0.1014650E-006  0.9053928E+03  0.7818608E-02  0.9418865E-01
         -1   -1    0    0    0  501 -0.00000000000E+00  0.00000000000E+00  0.82045668771E+02  0.82045668771E+02  0.00000000000E+00 0.  1.
          1   -1    0    0  501    0  0.00000000000E+00 -0.00000000000E+00 -0.24978043313E+04  0.24978043313E+04  0.00000000000E+00 0. -1.
         23    2    1    2    0    0  0.23528697653E+03 -0.34611942061E+03 -0.76334526299E+03  0.87525953383E+03  0.90689836083E+02 0.  0.
         11    1    3    3    0    0  0.18686544163E+03 -0.30782386149E+03 -0.58958123565E+03  0.69085472887E+03  0.00000000000E+00 0. -1.
        -11    1    3    3    0    0  0.48421534900E+02 -0.38295559124E+02 -0.17376402734E+03  0.18440480495E+03  0.00000000000E+00 0.  1.
         22    1    1    2    0    0 -0.23528697653E+03  0.34611942061E+03 -0.16524133995E+04  0.17045904663E+04  0.00000000000E+00 0. -1.
<mgrwt>
<rscale>  0 0.90539279E+03</rscale>
<asrwt>0</asrwt>
<pdfrwt beam="1">  1        1 0.38427751E+00 0.90539279E+03</pdfrwt>
<pdfrwt beam="2">  1       -1 0.12622413E-01 0.90539279E+03</pdfrwt>
<totfact> 0.60659539E+01</totfact>
</mgrwt>
</event>
<event>
 6    1  0.1014650E-006  0.2740594E+04  0.7818608E-02  0.8321953E-01
         -1   -1    0    0    0  501 -0.00000000000E+00  0.00000000000E+00  0.10374878347E+04  0.10374878347E+04  0.00000000000E+00 0.  1.
          1   -1    0    0  501    0  0.00000000000E+00 -0.00000000000E+00 -0.18098660780E+04  0.18098660780E+04  0.00000000000E+00 0. -1.
         23    2    1    2    0    0  0.61404738914E+03 -0.47143666220E+03 -0.15594535547E+04  0.17433637549E+04  0.90083683728E+02 0.  0.
         13    1    3    3    0    0  0.33925100873E+03 -0.27756720302E+03 -0.97634521082E+03  0.10702265040E+04  0.00000000000E+00 0.  1.
        -13    1    3    3    0    0  0.27479638041E+03 -0.19386945918E+03 -0.58310834390E+03  0.67313725095E+03  0.00000000000E+00 0. -1.
         22    1    1    2    0    0 -0.61404738914E+03  0.47143666220E+03  0.78707531144E+03  0.11039901578E+04  0.00000000000E+00 0.  1.
<mgrwt>
<rscale>  0 0.27405941E+04</rscale>
<asrwt>0</asrwt>
<pdfrwt beam="1">  1        1 0.27844093E+00 0.27405941E+04</pdfrwt>
<pdfrwt beam="2">  1       -1 0.15961351E+00 0.27405941E+04</pdfrwt>
<totfact> 0.10269911E+00</totfact>
</mgrwt>
</event>
<event>
 6    1  0.1014650E-006  0.1908898E+04  0.7818608E-02  0.8650440E-01
          2   -1    0    0  501    0  0.00000000000E+00  0.00000000000E+00  0.12883054665E+04  0.12883054665E+04  0.00000000000E+00 0. -1.
         -2   -1    0    0    0  501 -0.00000000000E+00 -0.00000000000E+00 -0.70710929933E+03  0.70710929933E+03  0.00000000000E+00 0.  1.
         23    2    1    2    0    0  0.30058190392E+03  0.36339458328E+03  0.11555205854E+04  0.12522770657E+04  0.10278580557E+03 0.  0.
         11    1    3    3    0    0  0.25359947937E+03  0.31095944008E+03  0.86796160077E+03  0.95622476945E+03  0.00000000000E+00 0. -1.
        -11    1    3    3    0    0  0.46982424551E+02  0.52435143203E+02  0.28755898461E+03  0.29605229621E+03  0.00000000000E+00 0.  1.
         22    1    1    2    0    0 -0.30058190392E+03 -0.36339458328E+03 -0.57432441819E+03  0.74313770019E+03  0.00000000000E+00 0.  1.
<mgrwt>
<rscale>  0 0.19088979E+04</rscale>
<asrwt>0</asrwt>
<pdfrwt beam="1">  1        2 0.19820084E+00 0.19088979E+04</pdfrwt>
<pdfrwt beam="2">  1       -2 0.10878605E+00 0.19088979E+04</pdfrwt>
<totfact> 0.10609618E+01</totfact>
</mgrwt>
</event>
<event>
 6    1  0.1014650E-006  0.2308388E+04  0.7818608E-02  0.8474621E-01
          1   -1    0    0  501    0  0.00000000000E+00  0.00000000000E+00  0.21148265145E+04  0.21148265145E+04  0.00000000000E+00 0. -1.
         -1   -1    0    0    0  501 -0.00000000000E+00 -0.00000000000E+00 -0.62991626689E+03  0.62991626689E+03  0.00000000000E+00 0.  1.
         23    2    1    2    0    0  0.60544098281E+03  0.46545665791E+03 -0.28261066860E+03  0.81929767096E+03  0.90394687730E+02 0.  0.
         13    1    3    3    0    0  0.43358623159E+03  0.29742699871E+03 -0.22638112648E+03  0.57245808075E+03  0.00000000000E+00 0. -1.
        -13    1    3    3    0    0  0.17185475122E+03  0.16802965920E+03 -0.56229542120E+02  0.24683959021E+03  0.00000000000E+00 0.  1.
         22    1    1    2    0    0 -0.60544098281E+03 -0.46545665791E+03  0.17675209163E+04  0.19254451105E+04  0.00000000000E+00 0. -1.
<mgrwt>
<rscale>  0 0.23083879E+04</rscale>
<asrwt>0</asrwt>
<pdfrwt beam="1">  1        1 0.32535792E+00 0.23083879E+04</pdfrwt>
<pdfrwt beam="2">  1       -1 0.96910196E-01 0.23083879E+04</pdfrwt>
<totfact> 0.23018728E+00</totfact>
</mgrwt>
</event>
<event>
 6    1  0.1014650E-006  0.2243381E+04  0.7818608E-02  0.8500586E-01
          2   -1    0    0  501    0  0.00000000000E+00  0.00000000000E+00  0.20234041807E+04  0.20234041807E+04  0.00000000000E+00 0. -1.
         -2   -1    0    0    0  501 -0.00000000000E+00 -0.00000000000E+00 -0.62181818337E+03  0.62181818337E+03  0.00000000000E+00 0.  1.
         23    2    1    2    0    0 -0.83867714996E+03 -0.21670465334E+03 -0.13481423279E+03  0.88145765875E+03  0.91937251218E+02 0.  0.
         11    1    3    3    0    0 -0.41087045953E+03 -0.14957814588E+03 -0.86562159806E+02  0.44573665291E+03  0.00000000000E+00 0.  1.
        -11    1    3    3    0    0 -0.42780669043E+03 -0.67126507460E+02 -0.48252072985E+02  0.43572100584E+03  0.00000000000E+00 0. -1.
         22    1    1    2    0    0  0.83867714996E+03  0.21670465334E+03  0.15364002301E+04  0.17637647054E+04  0.00000000000E+00 0. -1.
<mgrwt>
<rscale>  0 0.22433809E+04</rscale>
<asrwt>0</asrwt>
<pdfrwt beam="1">  1        2 0.31129295E+00 0.22433809E+04</pdfrwt>
<pdfrwt beam="2">  1       -2 0.95664337E-01 0.22433809E+04</pdfrwt>
<totfact> 0.54143242E+00</totfact>
</mgrwt>
</event>
<event>
 6    1  0.1014650E-006  0.1857399E+04  0.7818608E-02  0.8676357E-01
         -1   -1    0    0    0  501 -0.00000000000E+00  0.00000000000E+00  0.46947832748E+03  0.46947832748E+03  0.00000000000E+00 0.  1.
          1   -1    0    0  501    0  0.00000000000E+00 -0.00000000000E+00 -0.18371090329E+04  0.18371090329E+04  0.00000000000E+00 0. -1.
         23    2    1    2    0    0 -0.21391904451E+03  0.25369731993E+03 -0.17598804976E+04  0.17927940292E+04  0.82506833554E+02 0.  0.
         11    1    3    3    0    0 -0.12793342889E+03  0.11017099688E+03 -0.10482783861E+04  0.10617872600E+04  0.00000000000E+00 0. -1.
        -11    1    3    3    0    0 -0.85985615613E+02  0.14352632305E+03 -0.71160211144E+03  0.73100676913E+03  0.00000000000E+00 0.  1.
         22    1    1    2    0    0  0.21391904451E+03 -0.25369731993E+03  0.39224979215E+03  0.51379333120E+03  0.00000000000E+00 0.  1.
<mgrwt>
<rscale>  0 0.18573991E+04</rscale>
<asrwt>0</asrwt>
<pdfrwt beam="1">  1        1 0.28263216E+00 0.18573991E+04</pdfrwt>
<pdfrwt beam="2">  1       -1 0.72227436E-01 0.18573991E+04</pdfrwt>
<totfact> 0.69805050E+00</totfact>
</mgrwt>
</event>
<event>
 6    1  0.1014650E-006  0.1966773E+04  0.7818608E-02  0.8622315E-01
          1   -1    0    0  501    0  0.00000000000E+00  0.00000000000E+00  0.76745714720E+03  0.76745714720E+03  0.00000000000E+00 0. -1.
         -1   -1    0    0    0  501 -0.00000000000E+00 -0.00000000000E+00 -0.12600695193E+04  0.12600695193E+04  0.00000000000E+00 0.  1.
         23    2    1    2    0    0 -0.67810743775E+03 -0.49148494882E+03 -0.77377553462E+03  0.11441015843E+04  0.94088815097E+02 0.  0.
         13    1    3    3    0    0 -0.55099380089E+03 -0.39418143351E+03 -0.67303343353E+03  0.95495925242E+03  0.00000000000E+00 0. -1.
        -13    1    3    3    0    0 -0.12711363686E+03 -0.97303515316E+02 -0.10074210109E+03  0.18914233186E+03  0.00000000000E+00 0.  1.
         22    1    1    2    0    0  0.67810743775E+03  0.49148494882E+03  0.28116316248E+03  0.88342508227E+03  0.00000000000E+00 0. -1.
<mgrwt>
<rscale>  0 0.19667734E+04</rscale>
<asrwt>0</asrwt>
<pdfrwt beam="1">  1        1 0.11807033E+00 0.19667734E+04</pdfrwt>
<pdfrwt beam="2">  1       -1 0.19385685E+00 0.19667734E+04</pdfrwt>
<totfact> 0.36485550E+00</totfact>
</mgrwt>
</event>
<event>
 6    1  0.1014650E-006  0.1097032E+04  0.7818608E-02  0.9208090E-01
         -1   -1    0    0    0  501 -0.00000000000E+00  0.00000000000E+00  0.76243406173E+03  0.76243406173E+03  0.00000000000E+00 0.  1.
          1   -1    0    0  501    0  0.00000000000E+00 -0.00000000000E+00 -0.39461738958E+03  0.39461738958E+03  0.00000000000E+00 0. -1.
         23    2    1    2    0    0  0.48248983506E+02 -0.41553256953E+03  0.55316698053E+03  0.69950362040E+03  0.91193891527E+02 0.  0.
         13    1    3    3    0    0 -0.22677910730E+02 -0.19906237632E+03  0.25710830056E+03  0.32595213685E+03  0.00000000000E+00 0. -1.
        -13    1    3    3    0    0  0.70926894235E+02 -0.21647019321E+03  0.29605867997E+03  0.37355148355E+03  0.00000000000E+00 0.  1.
         22    1    1    2    0    0 -0.48248983506E+02  0.41553256953E+03 -0.18535030838E+03  0.45754783091E+03  0.00000000000E+00 0. -1.
<mgrwt>
<rscale>  0 0.10970319E+04</rscale>
<asrwt>0</asrwt>
<pdfrwt beam="1">  1        1 0.60710368E-01 0.10970319E+04</pdfrwt>
<pdfrwt beam="2">  1       -1 0.11729755E+00 0.10970319E+04</pdfrwt>
<totfact> 0.39863089E+01</totfact>
</mgrwt>
</event>
<event>
 6    1  0.1014650E-006  0.2040557E+04  0.7818608E-02  0.8587890E-01
         -2   -1    0    0    0  501 -0.00000000000E+00  0.00000000000E+00  0.32298769461E+03  0.32298769461E+03  0.00000000000E+00 0.  1.
          2   -1    0    0  501    0  0.00000000000E+00 -0.00000000000E+00 -0.32229330279E+04  0.32229330279E+04  0.00000000000E+00 0. -1.
         23    2    1    2    0    0 -0.42854549837E+03  0.91931493098E+03 -0.12974329120E+04  0.16493877682E+04  0.91414780791E+02 0.  0.
         11    1    3    3    0    0 -0.86543272170E+02  0.26028132577E+03 -0.30962309914E+03  0.41364546416E+03  0.00000000000E+00 0. -1.
        -11    1    3    3    0    0 -0.34200222620E+03  0.65903360521E+03 -0.98780981290E+03  0.12357423040E+04  0.00000000000E+00 0.  1.
         22    1    1    2    0    0  0.42854549837E+03 -0.91931493098E+03 -0.16025124212E+04  0.18965329543E+04  0.00000000000E+00 0.  1.
<mgrwt>
<rscale>  0 0.20405565E+04</rscale>
<asrwt>0</asrwt>
<pdfrwt beam="1">  1        2 0.49583585E+00 0.20405565E+04</pdfrwt>
<pdfrwt beam="2">  1       -2 0.49690415E-01 0.20405565E+04</pdfrwt>
<totfact> 0.44605986E+00</totfact>
</mgrwt>
</event>
<event>
 6    1  0.1014650E-006  0.2694800E+04  0.7818608E-02  0.8336694E-01
         -2   -1    0    0    0  501 -0.00000000000E+00  0.00000000000E+00  0.14751786343E+04  0.14751786343E+04  0.00000000000E+00 0.  1.
          2   -1    0    0  501    0  0.00000000000E+00 -0.00000000000E+00 -0.12306892796E+04  0.12306892796E+04  0.00000000000E+00 0. -1.
         23    2    1    2    0    0  0.41646639068E+03  0.76295757003E+03  0.11539122877E+04  0.14478541701E+04  0.96018862666E+02 0.  0.
         11    1    3    3    0    0  0.27208154044E+03  0.58164331014E+03  0.82391421001E+03  0.10445917529E+04  0.00000000000E+00 0.  1.
        -11    1    3    3    0    0  0.14438485024E+03  0.18131425989E+03  0.32999807771E+03  0.40326241718E+03  0.00000000000E+00 0. -1.
         22    1    1    2    0    0 -0.41646639068E+03 -0.76295757003E+03 -0.90942293306E+03  0.12580137437E+04  0.00000000000E+00 0. -1.
<mgrwt>
<rscale>  0 0.26947998E+04</rscale>
<asrwt>0</asrwt>
<pdfrwt beam="1">  1        2 0.18933681E+00 0.26947998E+04</pdfrwt>
<pdfrwt beam="2">  1       -2 0.22695056E+00 0.26947998E+04</pdfrwt>
<totfact> 0.14240001E+00</totfact>
</mgrwt>
</event>
<event>
 6    1  0.1014650E-006  0.2002150E+04  0.7818608E-02  0.8605616E-01
          1   -1    0    0  501    0  0.00000000000E+00  0.00000000000E+00  0.14861054869E+04  0.14861054869E+04  0.00000000000E+00 0. -1.
         -1   -1    0    0    0  501 -0.00000000000E+00 -0.00000000000E+00 -0.67434741894E+03  0.67434741894E+03  0.00000000000E+00 0.  1.
         23    2    1    2    0    0 -0.80342182514E+03  0.41496649936E+03 -0.51455875164E+02  0.91032405794E+03  0.91424059552E+02 0.  0.
         11    1    3    3    0    0 -0.87922392482E+02  0.29244805950E+02 -0.29278722015E+02  0.97174324477E+02  0.00000000000E+00 0. -1.
        -11    1    3    3    0    0 -0.71549943266E+03  0.38572169341E+03 -0.22177153149E+02  0.81314973346E+03  0.00000000000E+00 0.  1.
         22    1    1    2    0    0  0.80342182514E+03 -0.41496649936E+03  0.86321394309E+03  0.12501288479E+04  0.00000000000E+00 0. -1.
<mgrwt>
<rscale>  0 0.20021502E+04</rscale>
<asrwt>0</asrwt>
<pdfrwt beam="1">  1        1 0.22863161E+00 0.20021502E+04</pdfrwt>
<pdfrwt beam="2">  1       -1 0.10374576E+00 0.20021502E+04</pdfrwt>
<totfact> 0.54311871E+00</totfact>
</mgrwt>
</event>
<event>
 6    1  0.1014650E-006  0.2528584E+04  0.7818608E-02  0.8392873E-01
         -2   -1    0    0    0  501 -0.00000000000E+00  0.00000000000E+00  0.83972021409E+03  0.83972021409E+03  0.00000000000E+00 0.  1.
          2   -1    0    0  501    0  0.00000000000E+00 -0.00000000000E+00 -0.19035314100E+04  0.19035314100E+04  0.00000000000E+00 0. -1.
         23    2    1    2    0    0 -0.79946522158E+03  0.67122914451E+03  0.23809593253E+03  0.10745229535E+04  0.90646012607E+02 0.  0.
         13    1    3    3    0    0 -0.41557489192E+03  0.34050693561E+03  0.16849360531E+03  0.56306088394E+03  0.00000000000E+00 0.  1.
        -13    1    3    3    0    0 -0.38389032966E+03  0.33072220890E+03  0.69602327219E+02  0.51146206958E+03  0.00000000000E+00 0. -1.
         22    1    1    2    0    0  0.79946522158E+03 -0.67122914451E+03 -0.13019071285E+04  0.16687286706E+04  0.00000000000E+00 0. -1.
<mgrwt>
<rscale>  0 0.25285836E+04</rscale>
<asrwt>0</asrwt>
<pdfrwt beam="1">  1        2 0.29285098E+00 0.25285836E+04</pdfrwt>
<pdfrwt beam="2">  1       -2 0.12918773E+00 0.25285836E+04</pdfrwt>
<totfact> 0.29680944E+00</totfact>
</mgrwt>
</event>
<event>
 6    1  0.1014650E-006  0.2237012E+04  0.7818608E-02  0.8503179E-01
         -1   -1    0    0    0  501 -0.00000000000E+00  0.00000000000E+00  0.18398097372E+04  0.18398097372E+04  0.00000000000E+00 0.  1.
          1   -1    0    0  501    0  0.00000000000E+00 -0.00000000000E+00 -0.67999177039E+03  0.67999177039E+03  0.00000000000E+00 0. -1.
         23    2    1    2    0    0  0.50804598548E+03  0.46393274985E+03 -0.40989274631E+03  0.80593568944E+03  0.90420972714E+02 0.  0.
         13    1    3    3    0    0  0.36154491590E+03  0.38215731953E+03 -0.30626768537E+03  0.60873544186E+03  0.00000000000E+00 0.  1.
        -13    1    3    3    0    0  0.14650106958E+03  0.81775430319E+02 -0.10362506094E+03  0.19720024758E+03  0.00000000000E+00 0. -1.
         22    1    1    2    0    0 -0.50804598548E+03 -0.46393274985E+03  0.15697107131E+04  0.17138658181E+04  0.00000000000E+00 0.  1.
<mgrwt>
<rscale>  0 0.22370118E+04</rscale>
<asrwt>0</asrwt>
<pdfrwt beam="1">  1        1 0.10461412E+00 0.22370118E+04</pdfrwt>
<pdfrwt beam="2">  1       -1 0.28304765E+00 0.22370118E+04</pdfrwt>
<totfact> 0.11005196E+00</totfact>
</mgrwt>
</event>
<event>
 6    1  0.1014650E-006  0.3005757E+04  0.7818608E-02  0.8242089E-01
          2   -1    0    0  501    0  0.00000000000E+00  0.00000000000E+00  0.25396354073E+04  0.25396354073E+04  0.00000000000E+00 0. -1.
         -2   -1    0    0    0  501 -0.00000000000E+00 -0.00000000000E+00 -0.88935754700E+03  0.88935754700E+03  0.00000000000E+00 0.  1.
         23    2    1    2    0    0  0.84547640268E+03 -0.64509972474E+02  0.22395042715E+04  0.23964331993E+04  0.92308247099E+02 0.  0.
         11    1    3    3    0    0  0.61838566461E+03 -0.22330684975E+02  0.15349095044E+04  0.16549461249E+04  0.00000000000E+00 0. -1.
        -11    1    3    3    0    0  0.22709073807E+03 -0.42179287499E+02  0.70459476714E+03  0.74148707440E+03  0.00000000000E+00 0.  1.
         22    1    1    2    0    0 -0.84547640268E+03  0.64509972474E+02 -0.58922641120E+03  0.10325597550E+04  0.00000000000E+00 0.  1.
<mgrwt>
<rscale>  0 0.30057571E+04</rscale>
<asrwt>0</asrwt>
<pdfrwt beam="1">  1        2 0.39071314E+00 0.30057571E+04</pdfrwt>
<pdfrwt beam="2">  1       -2 0.13682424E+00 0.30057571E+04</pdfrwt>
<totfact> 0.10763743E+00</totfact>
</mgrwt>
</event>
<event>
 6    1  0.1014650E-006  0.3497075E+04  0.7818608E-02  0.8114483E-01
         -2   -1    0    0    0  501 -0.00000000000E+00  0.00000000000E+00  0.77063585475E+03  0.77063585475E+03  0.00000000000E+00 0.  1.
          2   -1    0    0  501    0  0.00000000000E+00 -0.00000000000E+00 -0.39673515409E+04  0.39673515409E+04  0.00000000000E+00 0. -1.
         23    2    1    2    0    0  0.47822986026E+03 -0.84667720688E+03  0.36750779025E+03  0.10434975687E+04  0.90879634996E+02 0.  0.
         11    1    3    3    0    0  0.26273651209E+03 -0.39427678344E+03  0.20973834551E+03  0.51814556866E+03  0.00000000000E+00 0.  1.
        -11    1    3    3    0    0  0.21549334817E+03 -0.45240042343E+03  0.15776944475E+03  0.52535200002E+03  0.00000000000E+00 0. -1.
         22    1    1    2    0    0 -0.47822986026E+03  0.84667720688E+03 -0.35642234764E+04  0.36944898270E+04  0.00000000000E+00 0. -1.
<mgrwt>
<rscale>  0 0.34970750E+04</rscale>
<asrwt>0</asrwt>
<pdfrwt beam="1">  1        2 0.61036178E+00 0.34970750E+04</pdfrwt>
<pdfrwt beam="2">  1       -2 0.11855936E+00 0.34970750E+04</pdfrwt>
<totfact> 0.16305158E-01</totfact>
</mgrwt>
</event>
<event>
 6    1  0.1014650E-006  0.6199732E+03  0.7818608E-02  0.9864813E-01
         -2   -1    0    0    0  501 -0.00000000000E+00  0.00000000000E+00  0.67076871221E+03  0.67076871221E+03  0.00000000000E+00 0.  1.
          2   -1    0    0  501    0  0.00000000000E+00 -0.00000000000E+00 -0.14325608369E+03  0.14325608369E+03  0.00000000000E+00 0. -1.
         23    2    1    2    0    0  0.20412296504E+03  0.18683110323E+03  0.10612474018E+03  0.30990199495E+03  0.90580019913E+02 0.  0.
         13    1    3    3    0    0  0.18634503032E+03  0.14005769505E+03  0.57429961436E+02  0.24008087958E+03  0.00000000000E+00 0. -1.
        -13    1    3    3    0    0  0.17777934719E+02  0.46773408179E+02  0.48694778741E+02  0.69821115375E+02  0.00000000000E+00 0.  1.
         22    1    1    2    0    0 -0.20412296504E+03 -0.18683110323E+03  0.42138788834E+03  0.50412280094E+03  0.00000000000E+00 0.  1.
<mgrwt>
<rscale>  0 0.61997322E+03</rscale>
<asrwt>0</asrwt>
<pdfrwt beam="1">  1        2 0.22039398E-01 0.61997322E+03</pdfrwt>
<pdfrwt beam="2">  1       -2 0.10319518E+00 0.61997322E+03</pdfrwt>
<totfact> 0.19668409E+02</totfact>
</mgrwt>
</event>
<event>
 6    1  0.1014650E-006  0.3576731E+04  0.7818608E-02  0.8095843E-01
          2   -1    0    0  501    0  0.00000000000E+00  0.00000000000E+00  0.12916953272E+04  0.12916953272E+04  0.00000000000E+00 0. -1.
         -2   -1    0    0    0  501 -0.00000000000E+00 -0.00000000000E+00 -0.24760103829E+04  0.24760103829E+04  0.00000000000E+00 0.  1.
         23    2    1    2    0    0  0.11504301184E+04 -0.26820803057E+03 -0.20053050470E+04  0.23291475531E+04  0.90856962028E+02 0.  0.
         13    1    3    3    0    0  0.33066076138E+03 -0.98850996542E+02 -0.51748428457E+03  0.62201128881E+03  0.00000000000E+00 0. -1.
        -13    1    3    3    0    0  0.81976935702E+03 -0.16935703402E+03 -0.14878207625E+04  0.17071362643E+04  0.00000000000E+00 0.  1.
         22    1    1    2    0    0 -0.11504301184E+04  0.26820803057E+03  0.82098999142E+03  0.14385581570E+04  0.00000000000E+00 0. -1.
<mgrwt>
<rscale>  0 0.35767309E+04</rscale>
<asrwt>0</asrwt>
<pdfrwt beam="1">  1        2 0.19872236E+00 0.35767309E+04</pdfrwt>
<pdfrwt beam="2">  1       -2 0.38092467E+00 0.35767309E+04</pdfrwt>
<totfact> 0.13471908E-01</totfact>
</mgrwt>
</event>
<event>
 6    1  0.1014650E-006  0.2281805E+04  0.7818608E-02  0.8485130E-01
         -1   -1    0    0    0  501 -0.00000000000E+00  0.00000000000E+00  0.12135960549E+04  0.12135960549E+04  0.00000000000E+00 0.  1.
          1   -1    0    0  501    0  0.00000000000E+00 -0.00000000000E+00 -0.10725632673E+04  0.10725632673E+04  0.00000000000E+00 0. -1.
         23    2    1    2    0    0 -0.84442291853E+03 -0.51042138955E+03  0.64090857910E+03  0.11800599292E+04  0.90540430436E+02 0.  0.
         13    1    3    3    0    0 -0.25933579615E+03 -0.20341260058E+03  0.23126155106E+03  0.40263338937E+03  0.00000000000E+00 0.  1.
        -13    1    3    3    0    0 -0.58508712238E+03 -0.30700878897E+03  0.40964702803E+03  0.77742653985E+03  0.00000000000E+00 0. -1.
         22    1    1    2    0    0  0.84442291853E+03  0.51042138955E+03 -0.49987579152E+03  0.11060993930E+04  0.00000000000E+00 0. -1.
<mgrwt>
<rscale>  0 0.22818050E+04</rscale>
<asrwt>0</asrwt>
<pdfrwt beam="1">  1        1 0.16500973E+00 0.22818050E+04</pdfrwt>
<pdfrwt beam="2">  1       -1 0.18670709E+00 0.22818050E+04</pdfrwt>
<totfact> 0.22445008E+00</totfact>
</mgrwt>
</event>
<event>
 6    1  0.1014650E-006  0.7379202E+03  0.7818608E-02  0.9654495E-01
         -2   -1    0    0    0  501 -0.00000000000E+00  0.00000000000E+00  0.13379107800E+04  0.13379107800E+04  0.00000000000E+00 0.  1.
          2   -1    0    0  501    0  0.00000000000E+00 -0.00000000000E+00 -0.10174935346E+03  0.10174935346E+03  0.00000000000E+00 0. -1.
         23    2    1    2    0    0 -0.59388394932E+02 -0.11860711129E+03  0.12874526080E+04  0.12974440528E+04  0.90731604806E+02 0.  0.
         13    1    3    3    0    0 -0.53524170056E+02 -0.46292292978E+02  0.93083406893E+03  0.93352015353E+03  0.00000000000E+00 0.  1.
        -13    1    3    3    0    0 -0.58642248756E+01 -0.72314818314E+02  0.35661853903E+03  0.36392389927E+03  0.00000000000E+00 0. -1.
         22    1    1    2    0    0  0.59388394932E+02  0.11860711129E+03 -0.51291181427E+02  0.14221608064E+03  0.00000000000E+00 0. -1.
<mgrwt>
<rscale>  0 0.73792020E+03</rscale>
<asrwt>0</asrwt>
<pdfrwt beam="1">  1        2 0.15653748E-01 0.73792020E+03</pdfrwt>
<pdfrwt beam="2">  1       -2 0.20583241E+00 0.73792020E+03</pdfrwt>
<totfact> 0.47272236E+01</totfact>
</mgrwt>
</event>
<event>
 6    1  0.1014650E-006  0.2005977E+04  0.7818608E-02  0.8603832E-01
         -1   -1    0    0    0  501 -0.00000000000E+00  0.00000000000E+00  0.31867766517E+03  0.31867766517E+03  0.00000000000E+00 0.  1.
          1   -1    0    0  501    0  0.00000000000E+00 -0.00000000000E+00 -0.31567492092E+04  0.31567492092E+04  0.00000000000E+00 0. -1.
         23    2    1    2    0    0 -0.79709413830E+03 -0.24180989546E+03 -0.46130136174E+03  0.95692184355E+03  0.95233279230E+02 0.  0.
         13    1    3    3    0    0 -0.67348078192E+03 -0.23196662816E+03 -0.36811624804E+03  0.80180699190E+03  0.00000000000E+00 0. -1.
        -13    1    3    3    0    0 -0.12361335638E+03 -0.98432672980E+01 -0.93185113707E+02  0.15511485165E+03  0.00000000000E+00 0.  1.
         22    1    1    2    0    0  0.79709413830E+03  0.24180989546E+03 -0.23767701823E+04  0.25185050308E+04  0.00000000000E+00 0. -1.
<mgrwt>
<rscale>  0 0.20059765E+04</rscale>
<asrwt>0</asrwt>
<pdfrwt beam="1">  1        1 0.48565374E+00 0.20059765E+04</pdfrwt>
<pdfrwt beam="2">  1       -1 0.49027332E-01 0.20059765E+04</pdfrwt>
<totfact> 0.17737574E+00</totfact>
</mgrwt>
</event>
<event>
 6    1  0.1014650E-006  0.1881270E+04  0.7818608E-02  0.8664236E-01
         -2   -1    0    0    0  501 -0.00000000000E+00  0.00000000000E+00  0.20227966565E+04  0.20227966565E+04  0.00000000000E+00 0.  1.
          2   -1    0    0  501    0  0.00000000000E+00 -0.00000000000E+00 -0.43741135806E+03  0.43741135806E+03  0.00000000000E+00 0. -1.
         23    2    1    2    0    0 -0.45159200606E+03 -0.78952243881E+03  0.49088971154E+03  0.10371122303E+04  0.85720756501E+02 0.  0.
         11    1    3    3    0    0 -0.33658297053E+03 -0.52480537427E+03  0.36283886453E+03  0.72136039434E+03  0.00000000000E+00 0. -1.
        -11    1    3    3    0    0 -0.11500903552E+03 -0.26471706455E+03  0.12805084701E+03  0.31575183599E+03  0.00000000000E+00 0.  1.
         22    1    1    2    0    0  0.45159200606E+03  0.78952243881E+03  0.10944955869E+04  0.14230957842E+04  0.00000000000E+00 0.  1.
<mgrwt>
<rscale>  0 0.18812700E+04</rscale>
<asrwt>0</asrwt>
<pdfrwt beam="1">  1        2 0.67294056E-01 0.18812700E+04</pdfrwt>
<pdfrwt beam="2">  1       -2 0.31119948E+00 0.18812700E+04</pdfrwt>
<totfact> 0.18314679E+00</totfact>
</mgrwt>
</event>
<event>
 6    1  0.1014650E-006  0.6182013E+03  0.7818608E-02  0.9868347E-01
          2   -1    0    0  501    0  0.00000000000E+00  0.00000000000E+00  0.51860568927E+03  0.51860568927E+03  0.00000000000E+00 0. -1.
         -2   -1    0    0    0  501 -0.00000000000E+00 -0.00000000000E+00 -0.18423093874E+03  0.18423093874E+03  0.00000000000E+00 0.  1.
         23    2    1    2    0    0 -0.29573337048E+02  0.27779557275E+03  0.39515176173E+02  0.29665054861E+03  0.91624976608E+02 0.  0.
         13    1    3    3    0    0 -0.59646794570E+02  0.12806790206E+03  0.20338498963E+02  0.14273325534E+03  0.00000000000E+00 0. -1.
        -13    1    3    3    0    0  0.30073457522E+02  0.14972767070E+03  0.19176677210E+02  0.15391729327E+03  0.00000000000E+00 0.  1.
         22    1    1    2    0    0  0.29573337048E+02 -0.27779557275E+03  0.29485957435E+03  0.40618607939E+03  0.00000000000E+00 0. -1.
<mgrwt>
<rscale>  0 0.61820130E+03</rscale>
<asrwt>0</asrwt>
<pdfrwt beam="1">  1        2 0.79785490E-01 0.61820130E+03</pdfrwt>
<pdfrwt beam="2">  1       -2 0.28343221E-01 0.61820130E+03</pdfrwt>
<totfact> 0.67600028E+02</totfact>
</mgrwt>
</event>
<event>
 6    1  0.1014650E-006  0.4970874E+04  0.7818608E-02  0.7833016E-01
          2   -1    0    0  501    0  0.00000000000E+00  0.00000000000E+00  0.27943395100E+04  0.27943395100E+04  0.00000000000E+00 0. -1.
         -2   -1    0    0    0  501 -0.00000000000E+00 -0.00000000000E+00 -0.22106826298E+04  0.22106826298E+04  0.00000000000E+00 0.  1.
         23    2    1    2    0    0 -0.12676072084E+04 -0.11469130721E+04  0.21074448958E+04  0.27150073917E+04  0.87769689139E+02 0.  0.
         13    1    3    3    0    0 -0.57563615041E+03 -0.46711970509E+03  0.94068082289E+03  0.11976803443E+04  0.00000000000E+00 0.  1.
        -13    1    3    3    0    0 -0.69197105797E+03 -0.67979336704E+03  0.11667640729E+04  0.15173270474E+04  0.00000000000E+00 0. -1.
         22    1    1    2    0    0  0.12676072084E+04  0.11469130721E+04 -0.15237880156E+04  0.22900147480E+04  0.00000000000E+00 0.  1.
<mgrwt>
<rscale>  0 0.49708743E+04</rscale>
<asrwt>0</asrwt>
<pdfrwt beam="1">  1        2 0.42989839E+00 0.49708743E+04</pdfrwt>
<pdfrwt beam="2">  1       -2 0.34010502E+00 0.49708743E+04</pdfrwt>
<totfact> 0.30530594E-02</totfact>
</mgrwt>
</event>
<event>
 6    1  0.1014650E-006  0.4866601E+04  0.7818608E-02  0.7849421E-01
         -2   -1    0    0    0  501 -0.00000000000E+00  0.00000000000E+00  0.31889632790E+04  0.31889632790E+04  0.00000000000E+00 0.  1.
          2   -1    0    0  501    0  0.00000000000E+00 -0.00000000000E+00 -0.18567007147E+04  0.18567007147E+04  0.00000000000E+00 0. -1.
         23    2    1    2    0    0  0.18197937716E+04 -0.15777114632E+04  0.31321540419E+03  0.24304622909E+04  0.90665459099E+02 0.  0.
         11    1    3    3    0    0  0.89675290663E+03 -0.75763444717E+03  0.10953148680E+03  0.11790559264E+04  0.00000000000E+00 0. -1.
        -11    1    3    3    0    0  0.92304086500E+03 -0.82007701605E+03  0.20368391739E+03  0.12514063644E+04  0.00000000000E+00 0.  1.
         22    1    1    2    0    0 -0.18197937716E+04  0.15777114632E+04  0.10190471601E+04  0.26152017029E+04  0.00000000000E+00 0.  1.
<mgrwt>
<rscale>  0 0.48666006E+04</rscale>
<asrwt>0</asrwt>
<pdfrwt beam="1">  1        2 0.28564626E+00 0.48666006E+04</pdfrwt>
<pdfrwt beam="2">  1       -2 0.49060973E+00 0.48666006E+04</pdfrwt>
<totfact> 0.11213430E-02</totfact>
</mgrwt>
</event>
<event>
 6    1  0.1014650E-006  0.3971389E+04  0.7818608E-02  0.8010343E-01
         -1   -1    0    0    0  501 -0.00000000000E+00  0.00000000000E+00  0.17339238139E+04  0.17339238139E+04  0.00000000000E+00 0.  1.
          1   -1    0    0  501    0  0.00000000000E+00 -0.00000000000E+00 -0.22740229122E+04  0.22740229122E+04  0.00000000000E+00 0. -1.
         23    2    1    2    0    0 -0.52483522140E+03 -0.18950067099E+04  0.14584186318E+01  0.19683911410E+04  0.89772584047E+02 0.  0.
         13    1    3    3    0    0 -0.32147913377E+02 -0.76589399336E+02 -0.14633679229E+02  0.84341976458E+02  0.00000000000E+00 0.  1.
        -13    1    3    3    0    0 -0.49268730802E+03 -0.18184173106E+04  0.16092097860E+02  0.18840491646E+04  0.00000000000E+00 0. -1.
         22    1    1    2    0    0  0.52483522140E+03  0.18950067099E+04 -0.54155751694E+03  0.20395555850E+04  0.00000000000E+00 0. -1.
<mgrwt>
<rscale>  0 0.39713889E+04</rscale>
<asrwt>0</asrwt>
<pdfrwt beam="1">  1        1 0.34984968E+00 0.39713889E+04</pdfrwt>
<pdfrwt beam="2">  1       -1 0.26675751E+00 0.39713889E+04</pdfrwt>
<totfact> 0.82501312E-02</totfact>
</mgrwt>
</event>
<event>
 6    1  0.1014650E-006  0.2383382E+04  0.7818608E-02  0.8445751E-01
         -2   -1    0    0    0  501 -0.00000000000E+00  0.00000000000E+00  0.91070332613E+03  0.91070332613E+03  0.00000000000E+00 0.  1.
          2   -1    0    0  501    0  0.00000000000E+00 -0.00000000000E+00 -0.15593750188E+04  0.15593750188E+04  0.00000000000E+00 0. -1.
         23    2    1    2    0    0 -0.52011161409E+03 -0.76433161253E+03  0.45169248060E+03  0.10328865627E+04  0.90053592108E+02 0.  0.
         13    1    3    3    0    0 -0.72097957580E+02 -0.16961454221E+03  0.89874054894E+02  0.20504768753E+03  0.00000000000E+00 0. -1.
        -13    1    3    3    0    0 -0.44801365651E+03 -0.59471707031E+03  0.36181842570E+03  0.82783887522E+03  0.00000000000E+00 0.  1.
         22    1    1    2    0    0  0.52011161409E+03  0.76433161253E+03 -0.11003641733E+04  0.14371917822E+04  0.00000000000E+00 0. -1.
<mgrwt>
<rscale>  0 0.23833825E+04</rscale>
<asrwt>0</asrwt>
<pdfrwt beam="1">  1        2 0.23990385E+00 0.23833825E+04</pdfrwt>
<pdfrwt beam="2">  1       -2 0.14010820E+00 0.23833825E+04</pdfrwt>
<totfact> 0.37939205E+00</totfact>
</mgrwt>
</event>
<event>
 6    1  0.1014650E-006  0.1053802E+04  0.7818608E-02  0.9251428E-01
         -2   -1    0    0    0  501 -0.00000000000E+00  0.00000000000E+00  0.21264426572E+03  0.21264426572E+03  0.00000000000E+00 0.  1.
          2   -1    0    0  501    0  0.00000000000E+00 -0.00000000000E+00 -0.13055821385E+04  0.13055821385E+04  0.00000000000E+00 0. -1.
         23    2    1    2    0    0 -0.46036053987E+03  0.89778313017E+02 -0.88306285224E+03  0.10043786676E+04  0.94786785996E+02 0.  0.
         11    1    3    3    0    0 -0.32774380383E+03  0.90844537811E+02 -0.70085842224E+03  0.77901942147E+03  0.00000000000E+00 0. -1.
        -11    1    3    3    0    0 -0.13261673604E+03 -0.10662247939E+01 -0.18220442999E+03  0.22535924614E+03  0.00000000000E+00 0.  1.
         22    1    1    2    0    0  0.46036053987E+03 -0.89778313017E+02 -0.20987502054E+03  0.51384773659E+03  0.00000000000E+00 0.  1.
<mgrwt>
<rscale>  0 0.10538018E+04</rscale>
<asrwt>0</asrwt>
<pdfrwt beam="1">  1        2 0.20085879E+00 0.10538018E+04</pdfrwt>
<pdfrwt beam="2">  1       -2 0.32714503E-01 0.10538018E+04</pdfrwt>
<totfact> 0.14214593E+02</totfact>
</mgrwt>
</event>
<event>
 6    1  0.1014650E-006  0.2932518E+04  0.7818608E-02  0.8263268E-01
         -1   -1    0    0    0  501 -0.00000000000E+00  0.00000000000E+00  0.61742799341E+03  0.61742799341E+03  0.00000000000E+00 0.  1.
          1   -1    0    0  501    0  0.00000000000E+00 -0.00000000000E+00 -0.34820515051E+04  0.34820515051E+04  0.00000000000E+00 0. -1.
         23    2    1    2    0    0  0.12544747916E+04  0.52966020111E+03 -0.21887515472E+04  0.25792657491E+04  0.87929163956E+02 0.  0.
         11    1    3    3    0    0  0.82940603622E+03  0.30679075955E+03 -0.14428345259E+04  0.16922784677E+04  0.00000000000E+00 0. -1.
        -11    1    3    3    0    0  0.42506875537E+03  0.22286944156E+03 -0.74591702127E+03  0.88698728142E+03  0.00000000000E+00 0.  1.
         22    1    1    2    0    0 -0.12544747916E+04 -0.52966020111E+03 -0.67587196445E+03  0.15202137494E+04  0.00000000000E+00 0.  1.
<mgrwt>
<rscale>  0 0.29325184E+04</rscale>
<asrwt>0</asrwt>
<pdfrwt beam="1">  1        1 0.53570023E+00 0.29325184E+04</pdfrwt>
<pdfrwt beam="2">  1       -1 0.94988922E-01 0.29325184E+04</pdfrwt>
<totfact> 0.23651492E-01</totfact>
</mgrwt>
</event>
<event>
 6    1  0.1014650E-006  0.1538815E+04  0.7818608E-02  0.8859044E-01
          2   -1    0    0  501    0  0.00000000000E+00  0.00000000000E+00  0.10685621470E+04  0.10685621470E+04  0.00000000000E+00 0. -1.
         -2   -1    0    0    0  501 -0.00000000000E+00 -0.00000000000E+00 -0.55400434646E+03  0.55400434646E+03  0.00000000000E+00 0.  1.
         23    2    1    2    0    0 -0.52179463867E+03 -0.12437164744E+03  0.83575118112E+03  0.99734402158E+03  0.92071217080E+02 0.  0.
         11    1    3    3    0    0 -0.38142322327E+03 -0.60444733111E+02  0.64813487752E+03  0.75446408826E+03  0.00000000000E+00 0. -1.
        -11    1    3    3    0    0 -0.14037141540E+03 -0.63926914327E+02  0.18761630360E+03  0.24287993332E+03  0.00000000000E+00 0.  1.
         22    1    1    2    0    0  0.52179463867E+03  0.12437164744E+03 -0.32119338056E+03  0.62522247189E+03  0.00000000000E+00 0.  1.
<mgrwt>
<rscale>  0 0.15388152E+04</rscale>
<asrwt>0</asrwt>
<pdfrwt beam="1">  1        2 0.16439418E+00 0.15388152E+04</pdfrwt>
<pdfrwt beam="2">  1       -2 0.85231438E-01 0.15388152E+04</pdfrwt>
<totfact> 0.26295115E+01</totfact>
</mgrwt>
</event>
<event>
 6    1  0.1014650E-006  0.1694501E+04  0.7818608E-02  0.8764507E-01
          2   -1    0    0  501    0  0.00000000000E+00  0.00000000000E+00  0.18085849054E+04  0.18085849054E+04  0.00000000000E+00 0. -1.
         -2   -1    0    0    0  501 -0.00000000000E+00 -0.00000000000E+00 -0.39690324198E+03  0.39690324198E+03  0.00000000000E+00 0.  1.
         23    2    1    2    0    0  0.84391959361E+03 -0.16403102212E+02  0.75339890387E+03  0.11350650844E+04  0.91068629033E+02 0.  0.
         11    1    3    3    0    0  0.76311811901E+03 -0.23455541174E+02  0.64361250916E+03  0.99856721753E+03  0.00000000000E+00 0. -1.
        -11    1    3    3    0    0  0.80801474601E+02  0.70524389618E+01  0.10978639471E+03  0.13649786686E+03  0.00000000000E+00 0.  1.
         22    1    1    2    0    0 -0.84391959361E+03  0.16403102212E+02  0.65828275954E+03  0.10704230630E+04  0.00000000000E+00 0.  1.
<mgrwt>
<rscale>  0 0.16945008E+04</rscale>
<asrwt>0</asrwt>
<pdfrwt beam="1">  1        2 0.27824383E+00 0.16945008E+04</pdfrwt>
<pdfrwt beam="2">  1       -2 0.61062038E-01 0.16945008E+04</pdfrwt>
<totfact> 0.20271934E+01</totfact>
</mgrwt>
</event>
<event>
 6    1  0.1014650E-006  0.3940266E+04  0.7818608E-02  0.8016706E-01
          2   -1    0    0  501    0  0.00000000000E+00  0.00000000000E+00  0.35300491448E+04  0.35300491448E+04  0.00000000000E+00 0. -1.
         -2   -1    0    0    0  501 -0.00000000000E+00 -0.00000000000E+00 -0.10995382464E+04  0.10995382464E+04  0.00000000000E+00 0.  1.
         23    2    1    2    0    0 -0.10147571479E+04 -0.29625788230E+03 -0.73599638381E+03  0.12912840540E+04  0.90680919149E+02 0.  0.
         13    1    3    3    0    0 -0.50180001051E+03 -0.10031191900E+03 -0.34365886270E+03  0.61641475124E+03  0.00000000000E+00 0.  1.
        -13    1    3    3    0    0 -0.51295713743E+03 -0.19594596330E+03 -0.39233752110E+03  0.67486930278E+03  0.00000000000E+00 0. -1.
         22    1    1    2    0    0  0.10147571479E+04  0.29625788230E+03  0.31665072823E+04  0.33383033372E+04  0.00000000000E+00 0. -1.
<mgrwt>
<rscale>  0 0.39402660E+04</rscale>
<asrwt>0</asrwt>
<pdfrwt beam="1">  1        2 0.54308448E+00 0.39402660E+04</pdfrwt>
<pdfrwt beam="2">  1       -2 0.16915973E+00 0.39402660E+04</pdfrwt>
<totfact> 0.13239197E-01</totfact>
</mgrwt>
</event>
<event>
 6    1  0.1014650E-006  0.1586741E+04  0.7818608E-02  0.8828735E-01
          1   -1    0    0  501    0  0.00000000000E+00  0.00000000000E+00  0.56943209193E+03  0.56943209193E+03  0.00000000000E+00 0. -1.
         -1   -1    0    0    0  501 -0.00000000000E+00 -0.00000000000E+00 -0.11053764886E+04  0.11053764886E+04  0.00000000000E+00 0.  1.
         23    2    1    2    0    0 -0.52710512095E+03  0.43108943036E+03 -0.69313137906E+03  0.97596263691E+03  0.91619072895E+02 0.  0.
         13    1    3    3    0    0 -0.46634175031E+03  0.34416316125E+03 -0.56213658487E+03  0.80741590875E+03  0.00000000000E+00 0. -1.
        -13    1    3    3    0    0 -0.60763370640E+02  0.86926269105E+02 -0.13099479418E+03  0.16854672816E+03  0.00000000000E+00 0.  1.
         22    1    1    2    0    0  0.52710512095E+03 -0.43108943036E+03  0.15718698237E+03  0.69884594363E+03  0.00000000000E+00 0. -1.
<mgrwt>
<rscale>  0 0.15867411E+04</rscale>
<asrwt>0</asrwt>
<pdfrwt beam="1">  1        1 0.87604938E-01 0.15867411E+04</pdfrwt>
<pdfrwt beam="2">  1       -1 0.17005792E+00 0.15867411E+04</pdfrwt>
<totfact> 0.87178659E+00</totfact>
</mgrwt>
</event>
<event>
 6    1  0.1014650E-006  0.3657989E+04  0.7818608E-02  0.8077336E-01
         -1   -1    0    0    0  501 -0.00000000000E+00  0.00000000000E+00  0.12102696728E+04  0.12102696728E+04  0.00000000000E+00 0.  1.
          1   -1    0    0  501    0  0.00000000000E+00 -0.00000000000E+00 -0.27640286119E+04  0.27640286119E+04  0.00000000000E+00 0. -1.
         23    2    1    2    0    0  0.80355884410E+03  0.14016201655E+03  0.99985340126E+03  0.12935729739E+04  0.90950580404E+02 0.  0.
         11    1    3    3    0    0  0.58059529477E+03  0.60148374372E+02  0.72262522214E+03  0.92892192079E+03  0.00000000000E+00 0.  1.
        -11    1    3    3    0    0  0.22296354932E+03  0.80013642178E+02  0.27722817912E+03  0.36465105314E+03  0.00000000000E+00 0. -1.
         22    1    1    2    0    0 -0.80355884410E+03 -0.14016201655E+03 -0.25536123404E+04  0.26807253108E+04  0.00000000000E+00 0. -1.
<mgrwt>
<rscale>  0 0.36579885E+04</rscale>
<asrwt>0</asrwt>
<pdfrwt beam="1">  1        1 0.42523517E+00 0.36579885E+04</pdfrwt>
<pdfrwt beam="2">  1       -1 0.18619534E+00 0.36579885E+04</pdfrwt>
<totfact> 0.13374045E-01</totfact>
</mgrwt>
</event>
<event>
 6    1  0.1014650E-006  0.2480696E+04  0.7818608E-02  0.8409895E-01
         -2   -1    0    0    0  501 -0.00000000000E+00  0.00000000000E+00  0.79965747673E+03  0.79965747673E+03  0.00000000000E+00 0.  1.
          2   -1    0    0  501    0  0.00000000000E+00 -0.00000000000E+00 -0.19239026761E+04  0.19239026761E+04  0.00000000000E+00 0. -1.
         23    2    1    2    0    0  0.48298821335E+03 -0.95315470747E+03 -0.12507585110E+04  0.16475549816E+04  0.90879336753E+02 0.  0.
         13    1    3    3    0    0  0.27888777835E+03 -0.59196212340E+03 -0.82624412437E+03  0.10539814522E+04  0.00000000000E+00 0.  1.
        -13    1    3    3    0    0  0.20410043500E+03 -0.36119258407E+03 -0.42451438666E+03  0.59357352943E+03  0.00000000000E+00 0. -1.
         22    1    1    2    0    0 -0.48298821335E+03  0.95315470747E+03  0.12651331162E+03  0.10760051713E+04  0.00000000000E+00 0.  1.
<mgrwt>
<rscale>  0 0.24806960E+04</rscale>
<asrwt>0</asrwt>
<pdfrwt beam="1">  1        2 0.29598502E+00 0.24806960E+04</pdfrwt>
<pdfrwt beam="2">  1       -2 0.12302423E+00 0.24806960E+04</pdfrwt>
<totfact> 0.32832226E+00</totfact>
</mgrwt>
</event>
<event>
 6    1  0.1014650E-006  0.4177926E+04  0.7818608E-02  0.7969584E-01
          1   -1    0    0  501    0  0.00000000000E+00  0.00000000000E+00  0.17929064324E+04  0.17929064324E+04  0.00000000000E+00 0. -1.
         -1   -1    0    0    0  501 -0.00000000000E+00 -0.00000000000E+00 -0.24339063135E+04  0.24339063135E+04  0.00000000000E+00 0.  1.
         23    2    1    2    0    0 -0.15043163221E+04 -0.51018749527E+03 -0.16916932774E+04  0.23222877420E+04  0.89080495405E+02 0.  0.
         13    1    3    3    0    0 -0.66026174970E+03 -0.26787528948E+03 -0.77995374063E+03  0.10564234882E+04  0.00000000000E+00 0.  1.
        -13    1    3    3    0    0 -0.84405457243E+03 -0.24231220579E+03 -0.91173953676E+03  0.12658642539E+04  0.00000000000E+00 0. -1.
         22    1    1    2    0    0  0.15043163221E+04  0.51018749527E+03  0.10506933963E+04  0.19045250038E+04  0.00000000000E+00 0. -1.
<mgrwt>
<rscale>  0 0.41779259E+04</rscale>
<asrwt>0</asrwt>
<pdfrwt beam="1">  1        1 0.27583176E+00 0.41779259E+04</pdfrwt>
<pdfrwt beam="2">  1       -1 0.37444713E+00 0.41779259E+04</pdfrwt>
<totfact> 0.33877886E-02</totfact>
</mgrwt>
</event>
<event>
 6    1  0.1014650E-006  0.2832064E+04  0.7818608E-02  0.8293382E-01
         -2   -1    0    0    0  501 -0.00000000000E+00  0.00000000000E+00  0.15157743185E+04  0.15157743185E+04  0.00000000000E+00 0.  1.
          2   -1    0    0  501    0  0.00000000000E+00 -0.00000000000E+00 -0.13228528140E+04  0.13228528140E+04  0.00000000000E+00 0. -1.
         23    2    1    2    0    0  0.47438085608E+03  0.11598656415E+04  0.75418881708E+03  0.14655479290E+04  0.93297682132E+02 0.  0.
         13    1    3    3    0    0  0.32448227214E+03  0.88639382110E+03  0.54382503214E+03  0.10893706516E+04  0.00000000000E+00 0. -1.
        -13    1    3    3    0    0  0.14989858394E+03  0.27347182041E+03  0.21036378494E+03  0.37617727741E+03  0.00000000000E+00 0.  1.
         22    1    1    2    0    0 -0.47438085608E+03 -0.11598656415E+04 -0.56126731253E+03  0.13730792035E+04  0.00000000000E+00 0. -1.
<mgrwt>
<rscale>  0 0.28320638E+04</rscale>
<asrwt>0</asrwt>
<pdfrwt beam="1">  1        2 0.20351582E+00 0.28320638E+04</pdfrwt>
<pdfrwt beam="2">  1       -2 0.23319605E+00 0.28320638E+04</pdfrwt>
<totfact> 0.11361698E+00</totfact>
</mgrwt>
</event>
<event>
 6    1  0.1014650E-006  0.2878965E+04  0.7818608E-02  0.8279164E-01
          4   -1    0    0  501    0  0.00000000000E+00  0.00000000000E+00  0.11546873582E+04  0.11546873582E+04  0.00000000000E+00 0. -1.
         -4   -1    0    0    0  501 -0.00000000000E+00 -0.00000000000E+00 -0.17945196975E+04  0.17945196975E+04  0.00000000000E+00 0.  1.
         23    2    1    2    0    0  0.49710081432E+03 -0.92435324061E+03  0.68675421751E+03  0.12576485951E+04  0.92252373267E+02 0.  0.
         11    1    3    3    0    0  0.14288346487E+03 -0.19468181430E+03  0.18089950055E+03  0.30173054643E+03  0.00000000000E+00 0.  1.
        -11    1    3    3    0    0  0.35421734945E+03 -0.72967142631E+03  0.50585471697E+03  0.95591804863E+03  0.00000000000E+00 0. -1.
         22    1    1    2    0    0 -0.49710081432E+03  0.92435324061E+03 -0.13265865568E+04  0.16915584606E+04  0.00000000000E+00 0.  1.
<mgrwt>
<rscale>  0 0.28789645E+04</rscale>
<asrwt>0</asrwt>
<pdfrwt beam="1">  1        4 0.17764421E+00 0.28789645E+04</pdfrwt>
<pdfrwt beam="2">  1       -4 0.27607995E+00 0.28789645E+04</pdfrwt>
<totfact> 0.13956268E-02</totfact>
</mgrwt>
</event>
<event>
 6    1  0.1014650E-006  0.3718690E+04  0.7818608E-02  0.8063832E-01
         -2   -1    0    0    0  501 -0.00000000000E+00  0.00000000000E+00  0.86194566042E+03  0.86194566042E+03  0.00000000000E+00 0.  1.
          2   -1    0    0  501    0  0.00000000000E+00 -0.00000000000E+00 -0.40108846290E+04  0.40108846290E+04  0.00000000000E+00 0. -1.
         23    2    1    2    0    0  0.15813337901E+04  0.31235533796E+03 -0.27869723810E+04  0.32208005610E+04  0.90326013305E+02 0.  0.
         11    1    3    3    0    0  0.82490001764E+03  0.20682239603E+03 -0.14414904137E+04  0.16736577175E+04  0.00000000000E+00 0.  1.
        -11    1    3    3    0    0  0.75643377249E+03  0.10553294193E+03 -0.13454819673E+04  0.15471428435E+04  0.00000000000E+00 0. -1.
         22    1    1    2    0    0 -0.15813337901E+04 -0.31235533796E+03 -0.36196658760E+03  0.16520297284E+04  0.00000000000E+00 0.  1.
<mgrwt>
<rscale>  0 0.37186904E+04</rscale>
<asrwt>0</asrwt>
<pdfrwt beam="1">  1        2 0.61705917E+00 0.37186904E+04</pdfrwt>
<pdfrwt beam="2">  1       -2 0.13260703E+00 0.37186904E+04</pdfrwt>
<totfact> 0.11137407E-01</totfact>
</mgrwt>
</event>
<event>
 6    1  0.1014650E-006  0.3766657E+04  0.7818608E-02  0.8053348E-01
          1   -1    0    0  501    0  0.00000000000E+00  0.00000000000E+00  0.12111035185E+04  0.12111035185E+04  0.00000000000E+00 0. -1.
         -1   -1    0    0    0  501 -0.00000000000E+00 -0.00000000000E+00 -0.29286730447E+04  0.29286730447E+04  0.00000000000E+00 0.  1.
         23    2    1    2    0    0 -0.17103434015E+04  0.72469118700E+03 -0.11933229154E+04  0.22096764683E+04  0.90546377748E+02 0.  0.
         13    1    3    3    0    0 -0.57289210904E+03  0.24654258703E+03 -0.45177337839E+03  0.77012193920E+03  0.00000000000E+00 0. -1.
        -13    1    3    3    0    0 -0.11374512925E+04  0.47814859998E+03 -0.74154953700E+03  0.14395545291E+04  0.00000000000E+00 0.  1.
         22    1    1    2    0    0  0.17103434015E+04 -0.72469118700E+03 -0.52424661077E+03  0.19301000950E+04  0.00000000000E+00 0.  1.
<mgrwt>
<rscale>  0 0.37666570E+04</rscale>
<asrwt>0</asrwt>
<pdfrwt beam="1">  1        1 0.18632362E+00 0.37666570E+04</pdfrwt>
<pdfrwt beam="2">  1       -1 0.45056508E+00 0.37666570E+04</pdfrwt>
<totfact> 0.26822764E-02</totfact>
</mgrwt>
</event>
<event>
 6    1  0.1014650E-006  0.1178097E+04  0.7818608E-02  0.9132247E-01
         -2   -1    0    0    0  501 -0.00000000000E+00  0.00000000000E+00  0.26841117627E+03  0.26841117627E+03  0.00000000000E+00 0.  1.
          2   -1    0    0  501    0  0.00000000000E+00 -0.00000000000E+00 -0.12927121047E+04  0.12927121047E+04  0.00000000000E+00 0. -1.
         23    2    1    2    0    0  0.45789141605E+01  0.50086485120E+03 -0.11358976161E+03  0.52175741902E+03  0.91878205986E+02 0.  0.
         11    1    3    3    0    0  0.45590158598E+02  0.19145673517E+03 -0.52929962259E+02  0.20380315235E+03  0.00000000000E+00 0.  1.
        -11    1    3    3    0    0 -0.41011244437E+02  0.30940811602E+03 -0.60659799355E+02  0.31795426666E+03  0.00000000000E+00 0. -1.
         22    1    1    2    0    0 -0.45789141605E+01 -0.50086485120E+03 -0.91071116686E+03  0.10393658620E+04  0.00000000000E+00 0. -1.
<mgrwt>
<rscale>  0 0.11780974E+04</rscale>
<asrwt>0</asrwt>
<pdfrwt beam="1">  1        2 0.19887879E+00 0.11780974E+04</pdfrwt>
<pdfrwt beam="2">  1       -2 0.41294026E-01 0.11780974E+04</pdfrwt>
<totfact> 0.91585015E+01</totfact>
</mgrwt>
</event>
<event>
 6    1  0.1037744E-006  0.3973484E+04  0.7818608E-02  0.8009917E-01
          2   -1    0    0  501    0  0.00000000000E+00  0.00000000000E+00  0.18827772080E+04  0.18827772080E+04  0.00000000000E+00 0. -1.
         -2   -1    0    0    0  501 -0.00000000000E+00 -0.00000000000E+00 -0.20964476642E+04  0.20964476642E+04  0.00000000000E+00 0.  1.
         23    2    1    2    0    0  0.80380636172E+03  0.77784806190E+03 -0.17499508524E+04  0.20788802376E+04  0.90899846172E+02 0.  0.
         13    1    3    3    0    0  0.33015262629E+03  0.36325793693E+03 -0.70721883416E+03  0.86088069138E+03  0.00000000000E+00 0.  1.
        -13    1    3    3    0    0  0.47365373542E+03  0.41459012497E+03 -0.10427320182E+04  0.12179995462E+04  0.00000000000E+00 0. -1.
         22    1    1    2    0    0 -0.80380636172E+03 -0.77784806190E+03  0.15362803962E+04  0.19003446346E+04  0.00000000000E+00 0. -1.
<mgrwt>
<rscale>  0 0.39734841E+04</rscale>
<asrwt>0</asrwt>
<pdfrwt beam="1">  1        2 0.28965803E+00 0.39734841E+04</pdfrwt>
<pdfrwt beam="2">  1       -2 0.32253041E+00 0.39734841E+04</pdfrwt>
<totfact> 0.14172624E-01</totfact>
</mgrwt>
</event>
<event>
 6    1  0.1014650E-006  0.3703278E+04  0.7818608E-02  0.8067236E-01
         -2   -1    0    0    0  501 -0.00000000000E+00  0.00000000000E+00  0.13771006586E+04  0.13771006586E+04  0.00000000000E+00 0.  1.
          2   -1    0    0  501    0  0.00000000000E+00 -0.00000000000E+00 -0.24896992236E+04  0.24896992236E+04  0.00000000000E+00 0. -1.
         23    2    1    2    0    0  0.12151025852E+04 -0.97766682742E+03  0.48361917784E+03  0.16351597228E+04  0.86908526529E+02 0.  0.
         11    1    3    3    0    0  0.17566922754E+03 -0.12184817064E+03  0.39697819427E+02  0.21744555885E+03  0.00000000000E+00 0.  1.
        -11    1    3    3    0    0  0.10394333577E+04 -0.85581865677E+03  0.44392135842E+03  0.14177141640E+04  0.00000000000E+00 0. -1.
         22    1    1    2    0    0 -0.12151025852E+04  0.97766682742E+03 -0.15962177429E+04  0.22316401593E+04  0.00000000000E+00 0.  1.
<mgrwt>
<rscale>  0 0.37032777E+04</rscale>
<asrwt>0</asrwt>
<pdfrwt beam="1">  1        2 0.38303064E+00 0.37032777E+04</pdfrwt>
<pdfrwt beam="2">  1       -2 0.21186164E+00 0.37032777E+04</pdfrwt>
<totfact> 0.31771334E-01</totfact>
</mgrwt>
</event>
<event>
 6    1  0.1014650E-006  0.1600670E+04  0.7818608E-02  0.8820136E-01
         -1   -1    0    0    0  501 -0.00000000000E+00  0.00000000000E+00  0.68634480215E+03  0.68634480215E+03  0.00000000000E+00 0.  1.
          1   -1    0    0  501    0  0.00000000000E+00 -0.00000000000E+00 -0.93325724907E+03  0.93325724907E+03  0.00000000000E+00 0. -1.
         23    2    1    2    0    0 -0.50443829514E+03  0.43519628928E+03 -0.56838108955E+03  0.87987514755E+03  0.85260826431E+02 0.  0.
         13    1    3    3    0    0 -0.43971619320E+03  0.39225601271E+03 -0.46532871221E+03  0.75083015421E+03  0.00000000000E+00 0. -1.
        -13    1    3    3    0    0 -0.64722101936E+02  0.42940276568E+02 -0.10305237734E+03  0.12904499334E+03  0.00000000000E+00 0.  1.
         22    1    1    2    0    0  0.50443829514E+03 -0.43519628928E+03  0.32146864263E+03  0.73972690366E+03  0.00000000000E+00 0.  1.
<mgrwt>
<rscale>  0 0.16006702E+04</rscale>
<asrwt>0</asrwt>
<pdfrwt beam="1">  1        1 0.14357804E+00 0.16006702E+04</pdfrwt>
<pdfrwt beam="2">  1       -1 0.10559151E+00 0.16006702E+04</pdfrwt>
<totfact> 0.13787234E+01</totfact>
</mgrwt>
</event>
<event>
 6    1  0.1014650E-006  0.1626920E+04  0.7818608E-02  0.8804179E-01
          2   -1    0    0  501    0  0.00000000000E+00  0.00000000000E+00  0.19067264762E+04  0.19067264762E+04  0.00000000000E+00 0. -1.
         -2   -1    0    0    0  501 -0.00000000000E+00 -0.00000000000E+00 -0.34704347893E+03  0.34704347893E+03  0.00000000000E+00 0.  1.
         23    2    1    2    0    0 -0.37439287816E+03 -0.12717558799E+03  0.17630613501E+04  0.18091280636E+04  0.90638672370E+02 0.  0.
         11    1    3    3    0    0 -0.24183663851E+03 -0.63916416895E+02  0.92155854111E+03  0.95490335258E+03  0.00000000000E+00 0. -1.
        -11    1    3    3    0    0 -0.13255623965E+03 -0.63259171095E+02  0.84150280896E+03  0.85422471100E+03  0.00000000000E+00 0.  1.
         22    1    1    2    0    0  0.37439287816E+03  0.12717558799E+03 -0.20337835275E+03  0.44464189160E+03  0.00000000000E+00 0.  1.
<mgrwt>
<rscale>  0 0.16269198E+04</rscale>
<asrwt>0</asrwt>
<pdfrwt beam="1">  1        2 0.29334253E+00 0.16269198E+04</pdfrwt>
<pdfrwt beam="2">  1       -2 0.53391306E-01 0.16269198E+04</pdfrwt>
<totfact> 0.23822679E+01</totfact>
</mgrwt>
</event>
<event>
 6    1  0.1014650E-006  0.4428436E+04  0.7818608E-02  0.7923287E-01
         -2   -1    0    0    0  501 -0.00000000000E+00  0.00000000000E+00  0.14792003792E+04  0.14792003792E+04  0.00000000000E+00 0.  1.
          2   -1    0    0  501    0  0.00000000000E+00 -0.00000000000E+00 -0.33144674065E+04  0.33144674065E+04  0.00000000000E+00 0. -1.
         23    2    1    2    0    0  0.19142712375E+04 -0.50015353944E+03 -0.19918201827E+04  0.28089519813E+04  0.90970649423E+02 0.  0.
         11    1    3    3    0    0  0.15117543665E+04 -0.38894518758E+03 -0.16222621987E+04  0.22513138975E+04  0.00000000000E+00 0.  1.
        -11    1    3    3    0    0  0.40251687095E+03 -0.11120835186E+03 -0.36955798402E+03  0.55763808377E+03  0.00000000000E+00 0. -1.
         22    1    1    2    0    0 -0.19142712375E+04  0.50015353944E+03  0.15655315541E+03  0.19847158044E+04  0.00000000000E+00 0.  1.
<mgrwt>
<rscale>  0 0.44284360E+04</rscale>
<asrwt>0</asrwt>
<pdfrwt beam="1">  1        2 0.50991806E+00 0.44284360E+04</pdfrwt>
<pdfrwt beam="2">  1       -2 0.22756929E+00 0.44284360E+04</pdfrwt>
<totfact> 0.73416799E-02</totfact>
</mgrwt>
</event>
<event>
 6    1  0.1014650E-006  0.2021363E+04  0.7818608E-02  0.8596697E-01
          2   -1    0    0  501    0  0.00000000000E+00  0.00000000000E+00  0.26107151775E+04  0.26107151775E+04  0.00000000000E+00 0. -1.
         -2   -1    0    0    0  501 -0.00000000000E+00 -0.00000000000E+00 -0.39126338685E+03  0.39126338685E+03  0.00000000000E+00 0.  1.
         23    2    1    2    0    0  0.99558299993E+03 -0.14210279357E+03  0.12261003831E+04  0.15884278109E+04  0.91662682364E+02 0.  0.
         11    1    3    3    0    0  0.90686954924E+03 -0.13698532415E+03  0.10744850507E+04  0.14126908658E+04  0.00000000000E+00 0. -1.
        -11    1    3    3    0    0  0.88713450691E+02 -0.51174694214E+01  0.15161533244E+03  0.17573694506E+03  0.00000000000E+00 0.  1.
         22    1    1    2    0    0 -0.99558299993E+03  0.14210279357E+03  0.99335140756E+03  0.14135507535E+04  0.00000000000E+00 0.  1.
<mgrwt>
<rscale>  0 0.20213632E+04</rscale>
<asrwt>0</asrwt>
<pdfrwt beam="1">  1        2 0.40164848E+00 0.20213632E+04</pdfrwt>
<pdfrwt beam="2">  1       -2 0.60194369E-01 0.20213632E+04</pdfrwt>
<totfact> 0.71611293E+00</totfact>
</mgrwt>
</event>
<event>
 6    1  0.1014650E-006  0.1923876E+04  0.7818608E-02  0.8643062E-01
         -2   -1    0    0    0  501 -0.00000000000E+00  0.00000000000E+00  0.15310228978E+04  0.15310228978E+04  0.00000000000E+00 0.  1.
          2   -1    0    0  501    0  0.00000000000E+00 -0.00000000000E+00 -0.60438308884E+03  0.60438308884E+03  0.00000000000E+00 0. -1.
         23    2    1    2    0    0 -0.88416631783E+03 -0.10653555001E+03  0.67323109293E+02  0.89785797086E+03  0.92285609886E+02 0.  0.
         11    1    3    3    0    0 -0.52410821679E+03 -0.18214788577E+02  0.48145800503E+02  0.52663005946E+03  0.00000000000E+00 0. -1.
        -11    1    3    3    0    0 -0.36005810105E+03 -0.88320761429E+02  0.19177308791E+02  0.37122791140E+03  0.00000000000E+00 0.  1.
         22    1    1    2    0    0  0.88416631783E+03  0.10653555001E+03  0.85931669965E+03  0.12375480158E+04  0.00000000000E+00 0. -1.
<mgrwt>
<rscale>  0 0.19238756E+04</rscale>
<asrwt>0</asrwt>
<pdfrwt beam="1">  1        2 0.92982014E-01 0.19238756E+04</pdfrwt>
<pdfrwt beam="2">  1       -2 0.23554198E+00 0.19238756E+04</pdfrwt>
<totfact> 0.36265632E+00</totfact>
</mgrwt>
</event>
<event>
 6    1  0.1014650E-006  0.8478662E+03  0.7818608E-02  0.9493205E-01
         -1   -1    0    0    0  501 -0.00000000000E+00  0.00000000000E+00  0.16185177486E+03  0.16185177486E+03  0.00000000000E+00 0.  1.
          1   -1    0    0  501    0  0.00000000000E+00 -0.00000000000E+00 -0.11103941602E+04  0.11103941602E+04  0.00000000000E+00 0. -1.
         23    2    1    2    0    0  0.14123958308E+03 -0.35062623263E+03 -0.20831226592E+03  0.44108529804E+03  0.90966285945E+02 0.  0.
         13    1    3    3    0    0  0.69068110574E+02 -0.19558184590E+03 -0.16399296838E+03  0.26441701159E+03  0.00000000000E+00 0. -1.
        -13    1    3    3    0    0  0.72171472511E+02 -0.15504438674E+03 -0.44319297539E+02  0.17666828645E+03  0.00000000000E+00 0.  1.
         22    1    1    2    0    0 -0.14123958308E+03  0.35062623263E+03 -0.74023011939E+03  0.83116063700E+03  0.00000000000E+00 0. -1.
<mgrwt>
<rscale>  0 0.84786618E+03</rscale>
<asrwt>0</asrwt>
<pdfrwt beam="1">  1        1 0.17082986E+00 0.84786618E+03</pdfrwt>
<pdfrwt beam="2">  1       -1 0.24900274E-01 0.84786618E+03</pdfrwt>
<totfact> 0.17712008E+02</totfact>
</mgrwt>
</event>
<event>
 6    1  0.1014650E-006  0.1955950E+04  0.7818608E-02  0.8627497E-01
         -2   -1    0    0    0  501 -0.00000000000E+00  0.00000000000E+00  0.17974368067E+04  0.17974368067E+04  0.00000000000E+00 0.  1.
          2   -1    0    0  501    0  0.00000000000E+00 -0.00000000000E+00 -0.53211047259E+03  0.53211047259E+03  0.00000000000E+00 0. -1.
         23    2    1    2    0    0  0.75371465751E+03 -0.71560141848E+02 -0.97965648307E+02  0.77013339318E+03  0.10149648367E+03 0.  0.
         11    1    3    3    0    0  0.37861881680E+03 -0.40536295787E+02  0.16924230607E+01  0.38078637582E+03  0.00000000000E+00 0.  1.
        -11    1    3    3    0    0  0.37509584071E+03 -0.31023846061E+02 -0.99658071368E+02  0.38934701737E+03  0.00000000000E+00 0. -1.
         22    1    1    2    0    0 -0.75371465751E+03  0.71560141848E+02  0.13632919825E+04  0.15594138861E+04  0.00000000000E+00 0.  1.
<mgrwt>
<rscale>  0 0.19559498E+04</rscale>
<asrwt>0</asrwt>
<pdfrwt beam="1">  1        2 0.81863150E-01 0.19559498E+04</pdfrwt>
<pdfrwt beam="2">  1       -2 0.27652874E+00 0.19559498E+04</pdfrwt>
<totfact> 0.23612278E+00</totfact>
</mgrwt>
</event>
<event>
 6    1  0.1014650E-006  0.6135268E+03  0.7818608E-02  0.9877733E-01
          1   -1    0    0  501    0  0.00000000000E+00  0.00000000000E+00  0.49496855834E+03  0.49496855834E+03  0.00000000000E+00 0. -1.
         -1   -1    0    0    0  501 -0.00000000000E+00 -0.00000000000E+00 -0.19012074334E+03  0.19012074334E+03  0.00000000000E+00 0.  1.
         23    2    1    2    0    0 -0.24102024055E+03 -0.16618744484E+03  0.23031463994E+03  0.38298962051E+03  0.89034784610E+02 0.  0.
         13    1    3    3    0    0 -0.92112000719E+02 -0.67228398866E+02  0.14615747456E+03  0.18538145986E+03  0.00000000000E+00 0.  1.
        -13    1    3    3    0    0 -0.14890823983E+03 -0.98959045979E+02  0.84157165378E+02  0.19760816065E+03  0.00000000000E+00 0. -1.
         22    1    1    2    0    0  0.24102024055E+03  0.16618744484E+03  0.74533175057E+02  0.30209968117E+03  0.00000000000E+00 0. -1.
<mgrwt>
<rscale>  0 0.61352682E+03</rscale>
<asrwt>0</asrwt>
<pdfrwt beam="1">  1        1 0.76149008E-01 0.61352682E+03</pdfrwt>
<pdfrwt beam="2">  1       -1 0.29249345E-01 0.61352682E+03</pdfrwt>
<totfact> 0.48457766E+02</totfact>
</mgrwt>
</event>
<event>
 6    1  0.1014650E-006  0.1928164E+04  0.7818608E-02  0.8640963E-01
          2   -1    0    0  501    0  0.00000000000E+00  0.00000000000E+00  0.69691164193E+03  0.69691164193E+03  0.00000000000E+00 0. -1.
         -2   -1    0    0    0  501 -0.00000000000E+00 -0.00000000000E+00 -0.13336751773E+04  0.13336751773E+04  0.00000000000E+00 0.  1.
         23    2    1    2    0    0 -0.27931867669E+03 -0.78480072049E+03 -0.82587065871E+03  0.11763663570E+04  0.88568431019E+02 0.  0.
         11    1    3    3    0    0 -0.57180029438E+01 -0.51487222196E+02 -0.79244368114E+02  0.94674703511E+02  0.00000000000E+00 0.  1.
        -11    1    3    3    0    0 -0.27360067375E+03 -0.73331349829E+03 -0.74662629059E+03  0.10816916535E+04  0.00000000000E+00 0. -1.
         22    1    1    2    0    0  0.27931867669E+03  0.78480072049E+03  0.18910712330E+03  0.85422046224E+03  0.00000000000E+00 0. -1.
<mgrwt>
<rscale>  0 0.19281636E+04</rscale>
<asrwt>0</asrwt>
<pdfrwt beam="1">  1        2 0.10721718E+00 0.19281636E+04</pdfrwt>
<pdfrwt beam="2">  1       -2 0.20518079E+00 0.19281636E+04</pdfrwt>
<totfact> 0.47337353E+00</totfact>
</mgrwt>
</event>
<event>
 6    1  0.1014650E-006  0.2251463E+04  0.7818608E-02  0.8497308E-01
          1   -1    0    0  501    0  0.00000000000E+00  0.00000000000E+00  0.16108071972E+04  0.16108071972E+04  0.00000000000E+00 0. -1.
         -1   -1    0    0    0  501 -0.00000000000E+00 -0.00000000000E+00 -0.78673088338E+03  0.78673088338E+03  0.00000000000E+00 0.  1.
         23    2    1    2    0    0  0.10495849324E+04 -0.38420543613E+03  0.28686429338E+03  0.11574416721E+04  0.90209501686E+02 0.  0.
         13    1    3    3    0    0  0.50863311023E+03 -0.21913422402E+03  0.10805766049E+03  0.56427290113E+03  0.00000000000E+00 0. -1.
        -13    1    3    3    0    0  0.54095182213E+03 -0.16507121211E+03  0.17880663288E+03  0.59316877101E+03  0.00000000000E+00 0.  1.
         22    1    1    2    0    0 -0.10495849324E+04  0.38420543613E+03  0.53721202047E+03  0.12400964085E+04  0.00000000000E+00 0.  1.
<mgrwt>
<rscale>  0 0.22514633E+04</rscale>
<asrwt>0</asrwt>
<pdfrwt beam="1">  1        1 0.24781649E+00 0.22514633E+04</pdfrwt>
<pdfrwt beam="2">  1       -1 0.12103552E+00 0.22514633E+04</pdfrwt>
<totfact> 0.30179071E+00</totfact>
</mgrwt>
</event>
<event>
 6    1  0.1014650E-006  0.4193192E+04  0.7818608E-02  0.7966669E-01
         -2   -1    0    0    0  501 -0.00000000000E+00  0.00000000000E+00  0.18126693014E+04  0.18126693014E+04  0.00000000000E+00 0.  1.
          2   -1    0    0  501    0  0.00000000000E+00 -0.00000000000E+00 -0.24249954244E+04  0.24249954244E+04  0.00000000000E+00 0. -1.
         23    2    1    2    0    0  0.84447434908E+03 -0.17576562766E+04 -0.10818992386E+04  0.22319251057E+04  0.92147720209E+02 0.  0.
         11    1    3    3    0    0  0.37141109659E+03 -0.77368340986E+03 -0.42400252612E+03  0.95724101642E+03  0.00000000000E+00 0. -1.
        -11    1    3    3    0    0  0.47306325249E+03 -0.98397286671E+03 -0.65789671247E+03  0.12746840893E+04  0.00000000000E+00 0.  1.
         22    1    1    2    0    0 -0.84447434908E+03  0.17576562766E+04  0.46957311561E+03  0.20057396201E+04  0.00000000000E+00 0.  1.
<mgrwt>
<rscale>  0 0.41931920E+04</rscale>
<asrwt>0</asrwt>
<pdfrwt beam="1">  1        2 0.37307622E+00 0.41931920E+04</pdfrwt>
<pdfrwt beam="2">  1       -2 0.27887220E+00 0.41931920E+04</pdfrwt>
<totfact> 0.12781810E-01</totfact>
</mgrwt>
</event>
<event>
 6    1  0.1014650E-006  0.1651945E+04  0.7818608E-02  0.8789257E-01
         -1   -1    0    0    0  501 -0.00000000000E+00  0.00000000000E+00  0.42885324323E+03  0.42885324323E+03  0.00000000000E+00 0.  1.
          1   -1    0    0  501    0  0.00000000000E+00 -0.00000000000E+00 -0.15908253068E+04  0.15908253068E+04  0.00000000000E+00 0. -1.
         23    2    1    2    0    0 -0.61201584477E+03 -0.15150502910E+03  0.64810058435E+02  0.64036294331E+03  0.91362943249E+02 0.  0.
         11    1    3    3    0    0 -0.45381453051E+03 -0.76849636049E+02  0.24972062386E+02  0.46095238210E+03  0.00000000000E+00 0. -1.
        -11    1    3    3    0    0 -0.15820131426E+03 -0.74655393049E+02  0.39837996049E+02  0.17941056121E+03  0.00000000000E+00 0.  1.
         22    1    1    2    0    0  0.61201584477E+03  0.15150502910E+03 -0.12267821220E+04  0.13793156067E+04  0.00000000000E+00 0. -1.
<mgrwt>
<rscale>  0 0.16519450E+04</rscale>
<asrwt>0</asrwt>
<pdfrwt beam="1">  1        1 0.24474236E+00 0.16519450E+04</pdfrwt>
<pdfrwt beam="2">  1       -1 0.65977421E-01 0.16519450E+04</pdfrwt>
<totfact> 0.12594197E+01</totfact>
</mgrwt>
</event>
<event>
 6    1  0.1014650E-006  0.8029566E+03  0.7818608E-02  0.9555747E-01
          1   -1    0    0  501    0  0.00000000000E+00  0.00000000000E+00  0.14490639153E+03  0.14490639153E+03  0.00000000000E+00 0. -1.
         -1   -1    0    0    0  501 -0.00000000000E+00 -0.00000000000E+00 -0.11123374852E+04  0.11123374852E+04  0.00000000000E+00 0.  1.
         23    2    1    2    0    0  0.28337656645E+03  0.25584167752E+03 -0.32574652625E+03  0.51057371768E+03  0.93901434771E+02 0.  0.
         11    1    3    3    0    0  0.18892293856E+03  0.14284697154E+03 -0.14613426995E+03  0.27830263895E+03  0.00000000000E+00 0. -1.
        -11    1    3    3    0    0  0.94453627889E+02  0.11299470598E+03 -0.17961225630E+03  0.23227107873E+03  0.00000000000E+00 0.  1.
         22    1    1    2    0    0 -0.28337656645E+03 -0.25584167752E+03 -0.64168456746E+03  0.74667015910E+03  0.00000000000E+00 0.  1.
<mgrwt>
<rscale>  0 0.80295656E+03</rscale>
<asrwt>0</asrwt>
<pdfrwt beam="1">  1        1 0.22293290E-01 0.80295656E+03</pdfrwt>
<pdfrwt beam="2">  1       -1 0.17112885E+00 0.80295656E+03</pdfrwt>
<totfact> 0.55713536E+01</totfact>
</mgrwt>
</event>
<event>
 6    1  0.1014650E-006  0.1604745E+04  0.7818608E-02  0.8817638E-01
         -1   -1    0    0    0  501 -0.00000000000E+00  0.00000000000E+00  0.33209055858E+03  0.33209055858E+03  0.00000000000E+00 0.  1.
          1   -1    0    0  501    0  0.00000000000E+00 -0.00000000000E+00 -0.19386332515E+04  0.19386332515E+04  0.00000000000E+00 0. -1.
         23    2    1    2    0    0  0.13424780740E+03 -0.15315500790E+03 -0.19002879811E+04  0.19132811929E+04  0.89841981435E+02 0.  0.
         11    1    3    3    0    0  0.12169985045E+03 -0.77470317434E+02 -0.11267262042E+04  0.11359244882E+04  0.00000000000E+00 0. -1.
        -11    1    3    3    0    0  0.12547956950E+02 -0.75684690467E+02 -0.77356177698E+03  0.77735670473E+03  0.00000000000E+00 0.  1.
         22    1    1    2    0    0 -0.13424780740E+03  0.15315500790E+03  0.29374528821E+03  0.35744261719E+03  0.00000000000E+00 0.  1.
<mgrwt>
<rscale>  0 0.16047452E+04</rscale>
<asrwt>0</asrwt>
<pdfrwt beam="1">  1        1 0.29825127E+00 0.16047452E+04</pdfrwt>
<pdfrwt beam="2">  1       -1 0.51090856E-01 0.16047452E+04</pdfrwt>
<totfact> 0.12121215E+01</totfact>
</mgrwt>
</event>
<event>
 6    1  0.1014650E-006  0.1420282E+04  0.7818608E-02  0.8939267E-01
          2   -1    0    0  501    0  0.00000000000E+00  0.00000000000E+00  0.16258906461E+04  0.16258906461E+04  0.00000000000E+00 0. -1.
         -2   -1    0    0    0  501 -0.00000000000E+00 -0.00000000000E+00 -0.31016854405E+03  0.31016854405E+03  0.00000000000E+00 0.  1.
         23    2    1    2    0    0  0.98069271877E+02  0.67013675676E+03  0.37721211859E+03  0.77869069053E+03  0.73275877748E+02 0.  0.
         11    1    3    3    0    0  0.37980497533E+02  0.37846019142E+03  0.17474658519E+03  0.41858213497E+03  0.00000000000E+00 0. -1.
        -11    1    3    3    0    0  0.60088774344E+02  0.29167656534E+03  0.20246553340E+03  0.36010855556E+03  0.00000000000E+00 0.  1.
         22    1    1    2    0    0 -0.98069271877E+02 -0.67013675676E+03  0.93850998345E+03  0.11573684996E+04  0.00000000000E+00 0. -1.
<mgrwt>
<rscale>  0 0.14202819E+04</rscale>
<asrwt>0</asrwt>
<pdfrwt beam="1">  1        2 0.25013702E+00 0.14202819E+04</pdfrwt>
<pdfrwt beam="2">  1       -2 0.47718238E-01 0.14202819E+04</pdfrwt>
<totfact> 0.43615529E+01</totfact>
</mgrwt>
</event>
<event>
 6    1  0.1014650E-006  0.1885949E+04  0.7818608E-02  0.8661882E-01
         -2   -1    0    0    0  501 -0.00000000000E+00  0.00000000000E+00  0.56065803059E+03  0.56065803059E+03  0.00000000000E+00 0.  1.
          2   -1    0    0  501    0  0.00000000000E+00 -0.00000000000E+00 -0.15859945832E+04  0.15859945832E+04  0.00000000000E+00 0. -1.
         23    2    1    2    0    0 -0.18802521803E+03 -0.22649876527E+03  0.50314253961E+03  0.59008475192E+03  0.91610184992E+02 0.  0.
         11    1    3    3    0    0 -0.79048477369E+02 -0.32290172486E+02  0.12976569535E+03  0.15533979755E+03  0.00000000000E+00 0. -1.
        -11    1    3    3    0    0 -0.10897674066E+03 -0.19420859278E+03  0.37337684426E+03  0.43474495437E+03  0.00000000000E+00 0.  1.
         22    1    1    2    0    0  0.18802521803E+03  0.22649876527E+03 -0.15284790923E+04  0.15565678619E+04  0.00000000000E+00 0. -1.
<mgrwt>
<rscale>  0 0.18859487E+04</rscale>
<asrwt>0</asrwt>
<pdfrwt beam="1">  1        2 0.24399916E+00 0.18859487E+04</pdfrwt>
<pdfrwt beam="2">  1       -2 0.86255083E-01 0.18859487E+04</pdfrwt>
<totfact> 0.12406242E+01</totfact>
</mgrwt>
</event>
<event>
 6    1  0.1014650E-006  0.1651500E+04  0.7818608E-02  0.8789520E-01
         -2   -1    0    0    0  501 -0.00000000000E+00  0.00000000000E+00  0.17635392555E+03  0.17635392555E+03  0.00000000000E+00 0.  1.
          2   -1    0    0  501    0  0.00000000000E+00 -0.00000000000E+00 -0.38664450512E+04  0.38664450512E+04  0.00000000000E+00 0. -1.
         23    2    1    2    0    0 -0.18456023940E+03  0.42886620883E+03 -0.35104749770E+04  0.35425483716E+04  0.90695612979E+02 0.  0.
         13    1    3    3    0    0 -0.13635264513E+03  0.21337732757E+03 -0.20184310746E+04  0.20342531629E+04  0.00000000000E+00 0. -1.
        -13    1    3    3    0    0 -0.48207594272E+02  0.21548888126E+03 -0.14920439024E+04  0.15082952088E+04  0.00000000000E+00 0.  1.
         22    1    1    2    0    0  0.18456023940E+03 -0.42886620883E+03 -0.17961614862E+03  0.50025060509E+03  0.00000000000E+00 0.  1.
<mgrwt>
<rscale>  0 0.16514996E+04</rscale>
<asrwt>0</asrwt>
<pdfrwt beam="1">  1        2 0.59483775E+00 0.16514996E+04</pdfrwt>
<pdfrwt beam="2">  1       -2 0.27131371E-01 0.16514996E+04</pdfrwt>
<totfact> 0.52371374E+00</totfact>
</mgrwt>
</event>
<event>
 6    1  0.1014650E-006  0.2204134E+04  0.7818608E-02  0.8516709E-01
          2   -1    0    0  501    0  0.00000000000E+00  0.00000000000E+00  0.11422277380E+04  0.11422277380E+04  0.00000000000E+00 0. -1.
         -2   -1    0    0    0  501 -0.00000000000E+00 -0.00000000000E+00 -0.10633181915E+04  0.10633181915E+04  0.00000000000E+00 0.  1.
         23    2    1    2    0    0 -0.61108554339E+03  0.21272255498E+03  0.93040331271E+03  0.11360983802E+04  0.79954852426E+02 0.  0.
         11    1    3    3    0    0 -0.26199122185E+03  0.77511445324E+02  0.45854197571E+03  0.53376789709E+03  0.00000000000E+00 0. -1.
        -11    1    3    3    0    0 -0.34909432154E+03  0.13521110966E+03  0.47186133700E+03  0.60233048310E+03  0.00000000000E+00 0.  1.
         22    1    1    2    0    0  0.61108554339E+03 -0.21272255498E+03 -0.85149376620E+03  0.10694475493E+04  0.00000000000E+00 0.  1.
<mgrwt>
<rscale>  0 0.22041339E+04</rscale>
<asrwt>0</asrwt>
<pdfrwt beam="1">  1        2 0.17572734E+00 0.22041339E+04</pdfrwt>
<pdfrwt beam="2">  1       -2 0.16358741E+00 0.22041339E+04</pdfrwt>
<totfact> 0.44458367E+00</totfact>
</mgrwt>
</event>
<event>
 6    1  0.1014650E-006  0.1952027E+04  0.7818608E-02  0.8629384E-01
          2   -1    0    0  501    0  0.00000000000E+00  0.00000000000E+00  0.78243496971E+03  0.78243496971E+03  0.00000000000E+00 0. -1.
         -2   -1    0    0    0  501 -0.00000000000E+00 -0.00000000000E+00 -0.12174839641E+04  0.12174839641E+04  0.00000000000E+00 0.  1.
         23    2    1    2    0    0 -0.90589356536E+03  0.18493722191E+02  0.14800010013E+03  0.92245366009E+03  0.89618948126E+02 0.  0.
         11    1    3    3    0    0 -0.56056376470E+03  0.28734620595E+02  0.13194372533E+03  0.57659913230E+03  0.00000000000E+00 0. -1.
        -11    1    3    3    0    0 -0.34532980066E+03 -0.10240898404E+02  0.16056374796E+02  0.34585452779E+03  0.00000000000E+00 0.  1.
         22    1    1    2    0    0  0.90589356536E+03 -0.18493722191E+02 -0.58304909456E+03  0.10774652738E+04  0.00000000000E+00 0.  1.
<mgrwt>
<rscale>  0 0.19520267E+04</rscale>
<asrwt>0</asrwt>
<pdfrwt beam="1">  1        2 0.12037461E+00 0.19520267E+04</pdfrwt>
<pdfrwt beam="2">  1       -2 0.18730523E+00 0.19520267E+04</pdfrwt>
<totfact> 0.53446556E+00</totfact>
</mgrwt>
</event>
<event>
 6    1  0.1014650E-006  0.2650080E+04  0.7818608E-02  0.8351386E-01
         -2   -1    0    0    0  501 -0.00000000000E+00  0.00000000000E+00  0.73029993642E+03  0.73029993642E+03  0.00000000000E+00 0.  1.
          2   -1    0    0  501    0  0.00000000000E+00 -0.00000000000E+00 -0.24041231580E+04  0.24041231580E+04  0.00000000000E+00 0. -1.
         23    2    1    2    0    0 -0.25967841703E+03 -0.46385513097E+03  0.59557827968E+03  0.80359113207E+03  0.91928001819E+02 0.  0.
         11    1    3    3    0    0 -0.12768548796E+03 -0.15600789222E+03  0.26514742075E+03  0.33308437520E+03  0.00000000000E+00 0.  1.
        -11    1    3    3    0    0 -0.13199292907E+03 -0.30784723875E+03  0.33043085893E+03  0.47050675688E+03  0.00000000000E+00 0. -1.
         22    1    1    2    0    0  0.25967841703E+03  0.46385513097E+03 -0.22694015012E+04  0.23308319623E+04  0.00000000000E+00 0. -1.
<mgrwt>
<rscale>  0 0.26500800E+04</rscale>
<asrwt>0</asrwt>
<pdfrwt beam="1">  1        2 0.36986511E+00 0.26500800E+04</pdfrwt>
<pdfrwt beam="2">  1       -2 0.11235383E+00 0.26500800E+04</pdfrwt>
<totfact> 0.21732929E+00</totfact>
</mgrwt>
</event>
<event>
 6    1  0.1014650E-006  0.2573221E+04  0.7818608E-02  0.8377355E-01
          2   -1    0    0  501    0  0.00000000000E+00  0.00000000000E+00  0.31434399711E+04  0.31434399711E+04  0.00000000000E+00 0. -1.
         -2   -1    0    0    0  501 -0.00000000000E+00 -0.00000000000E+00 -0.52661005720E+03  0.52661005720E+03  0.00000000000E+00 0.  1.
         23    2    1    2    0    0  0.16125136466E+03  0.11455513011E+04  0.51219927701E+03  0.12684339258E+04  0.91031525917E+02 0.  0.
         11    1    3    3    0    0  0.12619634750E+03  0.76576201127E+03  0.30065673038E+03  0.83229288447E+03  0.00000000000E+00 0.  1.
        -11    1    3    3    0    0  0.35055017162E+02  0.37978928983E+03  0.21154254664E+03  0.43614104133E+03  0.00000000000E+00 0. -1.
         22    1    1    2    0    0 -0.16125136466E+03 -0.11455513011E+04  0.21046306369E+04  0.24016161025E+04  0.00000000000E+00 0. -1.
<mgrwt>
<rscale>  0 0.25732214E+04</rscale>
<asrwt>0</asrwt>
<pdfrwt beam="1">  1        2 0.48360614E+00 0.25732214E+04</pdfrwt>
<pdfrwt beam="2">  1       -2 0.81016934E-01 0.25732214E+04</pdfrwt>
<totfact> 0.16810107E+00</totfact>
</mgrwt>
</event>
<event>
 6    1  0.1014650E-006  0.3734573E+04  0.7818608E-02  0.8060343E-01
         -1   -1    0    0    0  501 -0.00000000000E+00  0.00000000000E+00  0.12996620266E+04  0.12996620266E+04  0.00000000000E+00 0.  1.
          1   -1    0    0  501    0  0.00000000000E+00 -0.00000000000E+00 -0.26828190001E+04  0.26828190001E+04  0.00000000000E+00 0. -1.
         23    2    1    2    0    0 -0.15913127546E+04  0.99370654512E+02  0.34228734765E+03  0.16331600790E+04  0.88884224773E+02 0.  0.
         11    1    3    3    0    0 -0.70311217475E+03  0.27401765318E+01  0.13429440748E+03  0.71582765155E+03  0.00000000000E+00 0. -1.
        -11    1    3    3    0    0 -0.88820057985E+03  0.96630477981E+02  0.20799294017E+03  0.91733242747E+03  0.00000000000E+00 0.  1.
         22    1    1    2    0    0  0.15913127546E+04 -0.99370654512E+02 -0.17254443211E+04  0.23493209477E+04  0.00000000000E+00 0. -1.
<mgrwt>
<rscale>  0 0.37345725E+04</rscale>
<asrwt>0</asrwt>
<pdfrwt beam="1">  1        1 0.41274138E+00 0.37345725E+04</pdfrwt>
<pdfrwt beam="2">  1       -1 0.19994801E+00 0.37345725E+04</pdfrwt>
<totfact> 0.12158306E-01</totfact>
</mgrwt>
</event>
<event>
 6    1  0.1014650E-006  0.1945203E+04  0.7818608E-02  0.8632678E-01
         -1   -1    0    0    0  501 -0.00000000000E+00  0.00000000000E+00  0.10237178879E+04  0.10237178879E+04  0.00000000000E+00 0.  1.
          1   -1    0    0  501    0  0.00000000000E+00 -0.00000000000E+00 -0.92403703758E+03  0.92403703758E+03  0.00000000000E+00 0. -1.
         23    2    1    2    0    0 -0.63598650770E+03 -0.17620687235E+03 -0.66246244167E+03  0.93959318381E+03  0.91930215993E+02 0.  0.
         13    1    3    3    0    0 -0.16836521958E+03 -0.85841394002E+02 -0.16475560887E+03  0.25071897164E+03  0.00000000000E+00 0. -1.
        -13    1    3    3    0    0 -0.46762128811E+03 -0.90365478347E+02 -0.49770683280E+03  0.68887421217E+03  0.00000000000E+00 0.  1.
         22    1    1    2    0    0  0.63598650770E+03  0.17620687235E+03  0.76214329198E+03  0.10081617417E+04  0.00000000000E+00 0.  1.
<mgrwt>
<rscale>  0 0.19452026E+04</rscale>
<asrwt>0</asrwt>
<pdfrwt beam="1">  1        1 0.14215954E+00 0.19452026E+04</pdfrwt>
<pdfrwt beam="2">  1       -1 0.15749506E+00 0.19452026E+04</pdfrwt>
<totfact> 0.49502888E+00</totfact>
</mgrwt>
</event>
<event>
 6    1  0.1014650E-006  0.4442641E+04  0.7818608E-02  0.7920756E-01
          2   -1    0    0  501    0  0.00000000000E+00  0.00000000000E+00  0.36847669918E+04  0.36847669918E+04  0.00000000000E+00 0. -1.
         -2   -1    0    0    0  501 -0.00000000000E+00 -0.00000000000E+00 -0.13390984770E+04  0.13390984770E+04  0.00000000000E+00 0.  1.
         23    2    1    2    0    0 -0.42137720345E+03  0.50375079491E+03  0.35717853370E+04  0.36329355379E+04  0.96158818168E+02 0.  0.
         13    1    3    3    0    0 -0.27515441900E+03  0.36597298806E+03  0.26767825661E+04  0.27156603411E+04  0.00000000000E+00 0.  1.
        -13    1    3    3    0    0 -0.14622278444E+03  0.13777780685E+03  0.89500277092E+03  0.91727519682E+03  0.00000000000E+00 0. -1.
         22    1    1    2    0    0  0.42137720345E+03 -0.50375079491E+03 -0.12261168221E+04  0.13909299308E+04  0.00000000000E+00 0.  1.
<mgrwt>
<rscale>  0 0.44426415E+04</rscale>
<asrwt>0</asrwt>
<pdfrwt beam="1">  1        2 0.56688722E+00 0.44426415E+04</pdfrwt>
<pdfrwt beam="2">  1       -2 0.20601515E+00 0.44426415E+04</pdfrwt>
<totfact> 0.55256977E-02</totfact>
</mgrwt>
</event>
<event>
 6    1  0.1689726E-006  0.4791106E+04  0.7818608E-02  0.7861565E-01
         -1   -1    0    0    0  501 -0.00000000000E+00  0.00000000000E+00  0.17744087238E+04  0.17744087238E+04  0.00000000000E+00 0.  1.
          1   -1    0    0  501    0  0.00000000000E+00 -0.00000000000E+00 -0.32341329976E+04  0.32341329976E+04  0.00000000000E+00 0. -1.
         23    2    1    2    0    0 -0.92683226167E+03 -0.48792913644E+03 -0.29813715387E+04  0.31612455128E+04  0.88340573603E+02 0.  0.
         11    1    3    3    0    0 -0.45798038960E+03 -0.24755602474E+03 -0.13500975178E+04  0.14469945854E+04  0.00000000000E+00 0. -1.
        -11    1    3    3    0    0 -0.46885187207E+03 -0.24037311170E+03 -0.16312740209E+04  0.17142509274E+04  0.00000000000E+00 0.  1.
         22    1    1    2    0    0  0.92683226167E+03  0.48792913644E+03  0.15216472649E+04  0.18472962086E+04  0.00000000000E+00 0.  1.
<mgrwt>
<rscale>  0 0.47911058E+04</rscale>
<asrwt>0</asrwt>
<pdfrwt beam="1">  1        1 0.49755892E+00 0.47911058E+04</pdfrwt>
<pdfrwt beam="2">  1       -1 0.27298596E+00 0.47911058E+04</pdfrwt>
<totfact> 0.14524659E-02</totfact>
</mgrwt>
</event>
<event>
 6    1  0.1014650E-006  0.4515969E+04  0.7818608E-02  0.7907847E-01
         -1   -1    0    0    0  501 -0.00000000000E+00  0.00000000000E+00  0.26696930401E+04  0.26696930401E+04  0.00000000000E+00 0.  1.
          1   -1    0    0  501    0  0.00000000000E+00 -0.00000000000E+00 -0.19097679350E+04  0.19097679350E+04  0.00000000000E+00 0. -1.
         23    2    1    2    0    0 -0.20411393078E+04  0.95747577189E+03  0.48666467585E+03  0.23084081818E+04  0.94320194817E+02 0.  0.
         11    1    3    3    0    0 -0.81699302813E+03  0.33296756904E+03  0.18330430693E+03  0.90108017346E+03  0.00000000000E+00 0.  1.
        -11    1    3    3    0    0 -0.12241462797E+04  0.62450820285E+03  0.30336036892E+03  0.14073280083E+04  0.00000000000E+00 0. -1.
         22    1    1    2    0    0  0.20411393078E+04 -0.95747577189E+03  0.27326042929E+03  0.22710527933E+04  0.00000000000E+00 0. -1.
<mgrwt>
<rscale>  0 0.45159691E+04</rscale>
<asrwt>0</asrwt>
<pdfrwt beam="1">  1        1 0.29381045E+00 0.45159691E+04</pdfrwt>
<pdfrwt beam="2">  1       -1 0.41072201E+00 0.45159691E+04</pdfrwt>
<totfact> 0.15552804E-02</totfact>
</mgrwt>
</event>
<event>
 6    1  0.1014650E-006  0.2697643E+04  0.7818608E-02  0.8335770E-01
          2   -1    0    0  501    0  0.00000000000E+00  0.00000000000E+00  0.23497522779E+04  0.23497522779E+04  0.00000000000E+00 0. -1.
         -2   -1    0    0    0  501 -0.00000000000E+00 -0.00000000000E+00 -0.77426023432E+03  0.77426023432E+03  0.00000000000E+00 0.  1.
         23    2    1    2    0    0 -0.58887677527E+03 -0.44487497126E+03  0.20937949768E+04  0.22221657807E+04  0.96714816437E+02 0.  0.
         11    1    3    3    0    0 -0.26524390692E+03 -0.25583663871E+03  0.10963094769E+04  0.11565903272E+04  0.00000000000E+00 0. -1.
        -11    1    3    3    0    0 -0.32363286835E+03 -0.18903833254E+03  0.99748549995E+03  0.10655754536E+04  0.00000000000E+00 0.  1.
         22    1    1    2    0    0  0.58887677527E+03  0.44487497126E+03 -0.51830293322E+03  0.90184673148E+03  0.00000000000E+00 0.  1.
<mgrwt>
<rscale>  0 0.26976432E+04</rscale>
<asrwt>0</asrwt>
<pdfrwt beam="1">  1        2 0.36150035E+00 0.26976432E+04</pdfrwt>
<pdfrwt beam="2">  1       -2 0.11911696E+00 0.26976432E+04</pdfrwt>
<totfact> 0.20153968E+00</totfact>
</mgrwt>
</event>
<event>
 6    1  0.1014650E-006  0.7953869E+03  0.7818608E-02  0.9566719E-01
         -2   -1    0    0    0  501 -0.00000000000E+00  0.00000000000E+00  0.64567624322E+02  0.64567624322E+02  0.00000000000E+00 0.  1.
          2   -1    0    0  501    0  0.00000000000E+00 -0.00000000000E+00 -0.24495258218E+04  0.24495258218E+04  0.00000000000E+00 0. -1.
         23    2    1    2    0    0  0.84160189202E+02  0.34931249613E+03 -0.70877395628E+03  0.79983099018E+03  0.90922683400E+02 0.  0.
         11    1    3    3    0    0  0.73518249662E+02  0.12541865517E+03 -0.24909266453E+03  0.28841277298E+03  0.00000000000E+00 0.  1.
        -11    1    3    3    0    0  0.10641939540E+02  0.22389384096E+03 -0.45968129175E+03  0.51141821720E+03  0.00000000000E+00 0. -1.
         22    1    1    2    0    0 -0.84160189202E+02 -0.34931249613E+03 -0.16761842411E+04  0.17142624559E+04  0.00000000000E+00 0.  1.
<mgrwt>
<rscale>  0 0.79538686E+03</rscale>
<asrwt>0</asrwt>
<pdfrwt beam="1">  1        2 0.37685009E+00 0.79538686E+03</pdfrwt>
<pdfrwt beam="2">  1       -2 0.99334815E-02 0.79538686E+03</pdfrwt>
<totfact> 0.26662587E+02</totfact>
</mgrwt>
</event>
<event>
 6    1  0.1014650E-006  0.1599400E+04  0.7818608E-02  0.8820917E-01
         -2   -1    0    0    0  501 -0.00000000000E+00  0.00000000000E+00  0.67715619802E+03  0.67715619802E+03  0.00000000000E+00 0.  1.
          2   -1    0    0  501    0  0.00000000000E+00 -0.00000000000E+00 -0.94442001150E+03  0.94442001150E+03  0.00000000000E+00 0. -1.
         23    2    1    2    0    0 -0.32278283493E+03 -0.71682507439E+03 -0.26443081372E+03  0.83542420660E+03  0.99914983460E+02 0.  0.
         11    1    3    3    0    0 -0.93819029083E+02 -0.29011234209E+03 -0.65295280417E+02  0.31181830430E+03  0.00000000000E+00 0.  1.
        -11    1    3    3    0    0 -0.22896380585E+03 -0.42671273230E+03 -0.19913553330E+03  0.52360590230E+03  0.00000000000E+00 0. -1.
         22    1    1    2    0    0  0.32278283493E+03  0.71682507439E+03 -0.28329997562E+01  0.78615200292E+03  0.00000000000E+00 0. -1.
<mgrwt>
<rscale>  0 0.15993997E+04</rscale>
<asrwt>0</asrwt>
<pdfrwt beam="1">  1        2 0.14529539E+00 0.15993997E+04</pdfrwt>
<pdfrwt beam="2">  1       -2 0.10417788E+00 0.15993997E+04</pdfrwt>
<totfact> 0.19672843E+01</totfact>
</mgrwt>
</event>
<event>
 6    1  0.1014650E-006  0.5330078E+04  0.7818608E-02  0.7779513E-01
          2   -1    0    0  501    0  0.00000000000E+00  0.00000000000E+00  0.40413315586E+04  0.40413315586E+04  0.00000000000E+00 0. -1.
         -2   -1    0    0    0  501 -0.00000000000E+00 -0.00000000000E+00 -0.17574488483E+04  0.17574488483E+04  0.00000000000E+00 0.  1.
         23    2    1    2    0    0  0.11711599877E+03  0.11435266212E+04  0.37571233174E+04  0.39301426204E+04  0.93145604463E+02 0.  0.
         13    1    3    3    0    0  0.11780523782E+03  0.91498535636E+03  0.31036533004E+04  0.32378604178E+04  0.00000000000E+00 0.  1.
        -13    1    3    3    0    0 -0.68923905243E+00  0.22854126487E+03  0.65347001705E+03  0.69228220256E+03  0.00000000000E+00 0. -1.
         22    1    1    2    0    0 -0.11711599877E+03 -0.11435266212E+04 -0.14732406071E+04  0.18686377865E+04  0.00000000000E+00 0.  1.
<mgrwt>
<rscale>  0 0.53300782E+04</rscale>
<asrwt>0</asrwt>
<pdfrwt beam="1">  1        2 0.62174331E+00 0.53300782E+04</pdfrwt>
<pdfrwt beam="2">  1       -2 0.27037675E+00 0.53300782E+04</pdfrwt>
<totfact> 0.10767529E-02</totfact>
</mgrwt>
</event>
<event>
 6    1  0.1014650E-006  0.1967524E+04  0.7818608E-02  0.8621957E-01
          2   -1    0    0  501    0  0.00000000000E+00  0.00000000000E+00  0.12943146856E+04  0.12943146856E+04  0.00000000000E+00 0. -1.
         -2   -1    0    0    0  501 -0.00000000000E+00 -0.00000000000E+00 -0.74772193516E+03  0.74772193516E+03  0.00000000000E+00 0.  1.
         23    2    1    2    0    0 -0.74466695297E+03  0.63596873033E+03  0.20265439542E+03  0.10041162535E+04  0.90529275283E+02 0.  0.
         11    1    3    3    0    0 -0.72889130797E+03  0.61995721383E+03  0.18293514648E+03  0.97421494221E+03  0.00000000000E+00 0. -1.
        -11    1    3    3    0    0 -0.15775645003E+02  0.16011516504E+02  0.19719248940E+02  0.29901311255E+02  0.00000000000E+00 0.  1.
         22    1    1    2    0    0  0.74466695297E+03 -0.63596873033E+03  0.34393835504E+03  0.10379203673E+04  0.00000000000E+00 0.  1.
<mgrwt>
<rscale>  0 0.19675238E+04</rscale>
<asrwt>0</asrwt>
<pdfrwt beam="1">  1        2 0.19912534E+00 0.19675238E+04</pdfrwt>
<pdfrwt beam="2">  1       -2 0.11503414E+00 0.19675238E+04</pdfrwt>
<totfact> 0.91447192E+00</totfact>
</mgrwt>
</event>
<event>
 6    1  0.1014650E-006  0.1328331E+04  0.7818608E-02  0.9007395E-01
         -2   -1    0    0    0  501 -0.00000000000E+00  0.00000000000E+00  0.31012014140E+03  0.31012014140E+03  0.00000000000E+00 0.  1.
          2   -1    0    0  501    0  0.00000000000E+00 -0.00000000000E+00 -0.14224034390E+04  0.14224034390E+04  0.00000000000E+00 0. -1.
         23    2    1    2    0    0 -0.56481066995E+03  0.22996349289E+03 -0.23365605243E+03  0.66300025811E+03  0.11436734879E+03 0.  0.
         11    1    3    3    0    0 -0.22573486443E+03  0.15272786290E+03 -0.95325583066E+02  0.28873689739E+03  0.00000000000E+00 0. -1.
        -11    1    3    3    0    0 -0.33907580552E+03  0.77235629992E+02 -0.13833046936E+03  0.37426336073E+03  0.00000000000E+00 0.  1.
         22    1    1    2    0    0  0.56481066995E+03 -0.22996349289E+03 -0.87862724520E+03  0.10695233223E+04  0.00000000000E+00 0. -1.
<mgrwt>
<rscale>  0 0.13283312E+04</rscale>
<asrwt>0</asrwt>
<pdfrwt beam="1">  1        2 0.21883130E+00 0.13283312E+04</pdfrwt>
<pdfrwt beam="2">  1       -2 0.47710791E-01 0.13283312E+04</pdfrwt>
<totfact> 0.57196660E+01</totfact>
</mgrwt>
</event>
<event>
 6    1  0.1014650E-006  0.1497843E+04  0.7818608E-02  0.8885888E-01
          2   -1    0    0  501    0  0.00000000000E+00  0.00000000000E+00  0.13463081997E+04  0.13463081997E+04  0.00000000000E+00 0. -1.
         -2   -1    0    0    0  501 -0.00000000000E+00 -0.00000000000E+00 -0.41660870875E+03  0.41660870875E+03  0.00000000000E+00 0.  1.
         23    2    1    2    0    0  0.47603284657E+03 -0.57391179316E+03  0.44028218069E+03  0.87100249500E+03  0.93887860397E+02 0.  0.
         13    1    3    3    0    0  0.59246299428E+02 -0.87621194631E+02  0.28347873221E+02  0.10950433626E+03  0.00000000000E+00 0.  1.
        -13    1    3    3    0    0  0.41678654714E+03 -0.48629059853E+03  0.41193430746E+03  0.76149815874E+03  0.00000000000E+00 0. -1.
         22    1    1    2    0    0 -0.47603284657E+03  0.57391179316E+03  0.48941731029E+03  0.89191441347E+03  0.00000000000E+00 0. -1.
<mgrwt>
<rscale>  0 0.14978434E+04</rscale>
<asrwt>0</asrwt>
<pdfrwt beam="1">  1        2 0.20712434E+00 0.14978434E+04</pdfrwt>
<pdfrwt beam="2">  1       -2 0.64093648E-01 0.14978434E+04</pdfrwt>
<totfact> 0.33783335E+01</totfact>
</mgrwt>
</event>
<event>
 6    1  0.1014650E-006  0.2920925E+04  0.7818608E-02  0.8266679E-01
         -1   -1    0    0    0  501 -0.00000000000E+00  0.00000000000E+00  0.15787056544E+04  0.15787056544E+04  0.00000000000E+00 0.  1.
          1   -1    0    0  501    0  0.00000000000E+00 -0.00000000000E+00 -0.13510753770E+04  0.13510753770E+04  0.00000000000E+00 0. -1.
         23    2    1    2    0    0 -0.14172986995E+04 -0.30927213828E+03 -0.40982347340E+02  0.14544717074E+04  0.97074897821E+02 0.  0.
         11    1    3    3    0    0 -0.88266842580E+03 -0.16382525545E+03  0.12544267638E+02  0.89783050899E+03  0.00000000000E+00 0. -1.
        -11    1    3    3    0    0 -0.53463027372E+03 -0.14544688284E+03 -0.53526614978E+02  0.55664119845E+03  0.00000000000E+00 0.  1.
         22    1    1    2    0    0  0.14172986995E+04  0.30927213828E+03  0.26861262475E+03  0.14753093240E+04  0.00000000000E+00 0.  1.
<mgrwt>
<rscale>  0 0.29209247E+04</rscale>
<asrwt>0</asrwt>
<pdfrwt beam="1">  1        1 0.20785775E+00 0.29209247E+04</pdfrwt>
<pdfrwt beam="2">  1       -1 0.24287779E+00 0.29209247E+04</pdfrwt>
<totfact> 0.55326429E-01</totfact>
</mgrwt>
</event>
<event>
 6    1  0.1862476E-006  0.2603634E+04  0.7818608E-02  0.8366968E-01
          2   -1    0    0  501    0  0.00000000000E+00  0.00000000000E+00  0.15520636181E+04  0.15520636181E+04  0.00000000000E+00 0. -1.
         -2   -1    0    0    0  501 -0.00000000000E+00 -0.00000000000E+00 -0.10919187452E+04  0.10919187452E+04  0.00000000000E+00 0.  1.
         23    2    1    2    0    0  0.23174036406E+03 -0.32208679647E+03 -0.10269499072E+04  0.11048610602E+04  0.92996503343E+02 0.  0.
         13    1    3    3    0    0  0.75151665461E+02 -0.15832608631E+03 -0.54112813383E+03  0.56880100180E+03  0.00000000000E+00 0. -1.
        -13    1    3    3    0    0  0.15658869860E+03 -0.16376071017E+03 -0.48582177339E+03  0.53606005841E+03  0.00000000000E+00 0.  1.
         22    1    1    2    0    0 -0.23174036406E+03  0.32208679647E+03  0.14870947800E+04  0.15391213031E+04  0.00000000000E+00 0. -1.
<mgrwt>
<rscale>  0 0.26036339E+04</rscale>
<asrwt>0</asrwt>
<pdfrwt beam="1">  1        2 0.23877902E+00 0.26036339E+04</pdfrwt>
<pdfrwt beam="2">  1       -2 0.16798750E+00 0.26036339E+04</pdfrwt>
<totfact> 0.23117787E+00</totfact>
</mgrwt>
</event>
<event>
 6    1  0.1014650E-006  0.1582141E+04  0.7818608E-02  0.8831595E-01
          2   -1    0    0  501    0  0.00000000000E+00  0.00000000000E+00  0.13454235991E+04  0.13454235991E+04  0.00000000000E+00 0. -1.
         -2   -1    0    0    0  501 -0.00000000000E+00 -0.00000000000E+00 -0.46512685349E+03  0.46512685349E+03  0.00000000000E+00 0.  1.
         23    2    1    2    0    0  0.29628059117E+03  0.26168510928E+03  0.12222369521E+04  0.12878800115E+04  0.92252218556E+02 0.  0.
         13    1    3    3    0    0  0.11964679963E+03  0.14749947576E+03  0.68792934763E+03  0.71366535529E+03  0.00000000000E+00 0.  1.
        -13    1    3    3    0    0  0.17663379154E+03  0.11418563352E+03  0.53430760447E+03  0.57421465621E+03  0.00000000000E+00 0. -1.
         22    1    1    2    0    0 -0.29628059117E+03 -0.26168510928E+03 -0.34194020652E+03  0.52267044106E+03  0.00000000000E+00 0.  1.
<mgrwt>
<rscale>  0 0.15821411E+04</rscale>
<asrwt>0</asrwt>
<pdfrwt beam="1">  1        2 0.20698824E+00 0.15821411E+04</pdfrwt>
<pdfrwt beam="2">  1       -2 0.71557978E-01 0.15821411E+04</pdfrwt>
<totfact> 0.26460560E+01</totfact>
</mgrwt>
</event>
<event>
 6    1  0.1014650E-006  0.1677650E+04  0.7818608E-02  0.8774215E-01
         -1   -1    0    0    0  501 -0.00000000000E+00  0.00000000000E+00  0.18681032475E+04  0.18681032475E+04  0.00000000000E+00 0.  1.
          1   -1    0    0  501    0  0.00000000000E+00 -0.00000000000E+00 -0.37665354423E+03  0.37665354423E+03  0.00000000000E+00 0. -1.
         23    2    1    2    0    0 -0.60315991098E+03 -0.24821775684E+03  0.47529706354E+02  0.66035820220E+03  0.91651236784E+02 0.  0.
         13    1    3    3    0    0 -0.27449587327E+03 -0.70472486547E+02 -0.22585664966E+01  0.28340687522E+03  0.00000000000E+00 0. -1.
        -13    1    3    3    0    0 -0.32866403771E+03 -0.17774527029E+03  0.49788272850E+02  0.37695132698E+03  0.00000000000E+00 0.  1.
         22    1    1    2    0    0  0.60315991098E+03  0.24821775684E+03  0.14439199969E+04  0.15843985896E+04  0.00000000000E+00 0.  1.
<mgrwt>
<rscale>  0 0.16776504E+04</rscale>
<asrwt>0</asrwt>
<pdfrwt beam="1">  1        1 0.57946700E-01 0.16776504E+04</pdfrwt>
<pdfrwt beam="2">  1       -1 0.28740049E+00 0.16776504E+04</pdfrwt>
<totfact> 0.24727246E+00</totfact>
</mgrwt>
</event>
<event>
 6    1  0.1014650E-006  0.3989967E+04  0.7818608E-02  0.8006574E-01
         -2   -1    0    0    0  501 -0.00000000000E+00  0.00000000000E+00  0.15913641714E+04  0.15913641714E+04  0.00000000000E+00 0.  1.
          2   -1    0    0  501    0  0.00000000000E+00 -0.00000000000E+00 -0.25009726775E+04  0.25009726775E+04  0.00000000000E+00 0. -1.
         23    2    1    2    0    0  0.10036049915E+04 -0.15463425598E+04 -0.12344389222E+04  0.22204626303E+04  0.90645180774E+02 0.  0.
         13    1    3    3    0    0  0.55140633555E+03 -0.89537746121E+03 -0.74863074542E+03  0.12908128206E+04  0.00000000000E+00 0. -1.
        -13    1    3    3    0    0  0.45219865592E+03 -0.65096509857E+03 -0.48580817678E+03  0.92964980966E+03  0.00000000000E+00 0.  1.
         22    1    1    2    0    0 -0.10036049915E+04  0.15463425598E+04  0.32483041607E+03  0.18718742186E+04  0.00000000000E+00 0.  1.
<mgrwt>
<rscale>  0 0.39899666E+04</rscale>
<asrwt>0</asrwt>
<pdfrwt beam="1">  1        2 0.38476502E+00 0.39899666E+04</pdfrwt>
<pdfrwt beam="2">  1       -2 0.24482526E+00 0.39899666E+04</pdfrwt>
<totfact> 0.18982877E-01</totfact>
</mgrwt>
</event>
<event>
 6    1  0.1014650E-006  0.4250440E+04  0.7818608E-02  0.7955846E-01
          3   -1    0    0  501    0  0.00000000000E+00  0.00000000000E+00  0.20162409577E+04  0.20162409577E+04  0.00000000000E+00 0. -1.
         -3   -1    0    0    0  501 -0.00000000000E+00 -0.00000000000E+00 -0.22400891134E+04  0.22400891134E+04  0.00000000000E+00 0.  1.
         23    2    1    2    0    0  0.17449139108E+04 -0.10881247682E+04 -0.64529036294E+03  0.21571984408E+04  0.91462523240E+02 0.  0.
         11    1    3    3    0    0  0.35275612192E+03 -0.25610824724E+03 -0.11443255192E+03  0.45069182907E+03  0.00000000000E+00 0.  1.
        -11    1    3    3    0    0  0.13921577889E+04 -0.83201652091E+03 -0.53085781103E+03  0.17065066117E+04  0.00000000000E+00 0. -1.
         22    1    1    2    0    0 -0.17449139108E+04  0.10881247682E+04  0.42144220723E+03  0.20991316303E+04  0.00000000000E+00 0. -1.
<mgrwt>
<rscale>  0 0.42504397E+04</rscale>
<asrwt>0</asrwt>
<pdfrwt beam="1">  1        3 0.31019092E+00 0.42504397E+04</pdfrwt>
<pdfrwt beam="2">  1       -3 0.34462909E+00 0.42504397E+04</pdfrwt>
<totfact> 0.14466181E-03</totfact>
</mgrwt>
</event>
<event>
 6    1  0.1014650E-006  0.7820174E+03  0.7818608E-02  0.9586417E-01
          1   -1    0    0  501    0  0.00000000000E+00  0.00000000000E+00  0.83024948316E+03  0.83024948316E+03  0.00000000000E+00 0. -1.
         -1   -1    0    0    0  501 -0.00000000000E+00 -0.00000000000E+00 -0.18414682905E+03  0.18414682905E+03  0.00000000000E+00 0.  1.
         23    2    1    2    0    0  0.22244592970E+03  0.69673425868E+02  0.72527907152E+03  0.76821450340E+03  0.98930347913E+02 0.  0.
         13    1    3    3    0    0  0.35052355846E+02  0.47286130577E+02  0.25000900069E+03  0.25684459547E+03  0.00000000000E+00 0.  1.
        -13    1    3    3    0    0  0.18739357385E+03  0.22387295291E+02  0.47527007083E+03  0.51136990793E+03  0.00000000000E+00 0. -1.
         22    1    1    2    0    0 -0.22244592970E+03 -0.69673425868E+02 -0.79176417412E+02  0.24618180880E+03  0.00000000000E+00 0.  1.
<mgrwt>
<rscale>  0 0.78201742E+03</rscale>
<asrwt>0</asrwt>
<pdfrwt beam="1">  1        1 0.12773069E+00 0.78201742E+03</pdfrwt>
<pdfrwt beam="2">  1       -1 0.28330282E-01 0.78201742E+03</pdfrwt>
<totfact> 0.23718874E+02</totfact>
</mgrwt>
</event>
<event>
 6    1  0.1014650E-006  0.2714425E+04  0.7818608E-02  0.8330340E-01
          2   -1    0    0  501    0  0.00000000000E+00  0.00000000000E+00  0.18891494049E+04  0.18891494049E+04  0.00000000000E+00 0. -1.
         -2   -1    0    0    0  501 -0.00000000000E+00 -0.00000000000E+00 -0.97505585067E+03  0.97505585067E+03  0.00000000000E+00 0.  1.
         23    2    1    2    0    0 -0.79999269225E+03  0.70816616929E+02  0.16099185890E+04  0.18015784255E+04  0.94040731256E+02 0.  0.
         11    1    3    3    0    0 -0.34182155755E+03 -0.15020580639E+02  0.70638523115E+03  0.78488705546E+03  0.00000000000E+00 0.  1.
        -11    1    3    3    0    0 -0.45817113470E+03  0.85837197568E+02  0.90353335783E+03  0.10166913700E+04  0.00000000000E+00 0. -1.
         22    1    1    2    0    0  0.79999269225E+03 -0.70816616929E+02 -0.69582503479E+03  0.10626268300E+04  0.00000000000E+00 0.  1.
<mgrwt>
<rscale>  0 0.27144253E+04</rscale>
<asrwt>0</asrwt>
<pdfrwt beam="1">  1        2 0.29063837E+00 0.27144253E+04</pdfrwt>
<pdfrwt beam="2">  1       -2 0.15000859E+00 0.27144253E+04</pdfrwt>
<totfact> 0.20213883E+00</totfact>
</mgrwt>
</event>
<event>
 6    1  0.1014650E-006  0.2112044E+04  0.7818608E-02  0.8555956E-01
         -1   -1    0    0    0  501 -0.00000000000E+00  0.00000000000E+00  0.41456733344E+03  0.41456733344E+03  0.00000000000E+00 0.  1.
          1   -1    0    0  501    0  0.00000000000E+00 -0.00000000000E+00 -0.26899921194E+04  0.26899921194E+04  0.00000000000E+00 0. -1.
         23    2    1    2    0    0  0.17422215919E+03  0.87451602911E+03 -0.31337936488E+03  0.94939034572E+03  0.89463714922E+02 0.  0.
         13    1    3    3    0    0  0.43996177289E+02  0.36225834110E+03 -0.91922017291E+02  0.37631958038E+03  0.00000000000E+00 0.  1.
        -13    1    3    3    0    0  0.13022598190E+03  0.51225768801E+03 -0.22145734759E+03  0.57307076534E+03  0.00000000000E+00 0. -1.
         22    1    1    2    0    0 -0.17422215919E+03 -0.87451602911E+03 -0.19620454211E+04  0.21551691071E+04  0.00000000000E+00 0. -1.
<mgrwt>
<rscale>  0 0.21120444E+04</rscale>
<asrwt>0</asrwt>
<pdfrwt beam="1">  1        1 0.41384493E+00 0.21120444E+04</pdfrwt>
<pdfrwt beam="2">  1       -1 0.63779592E-01 0.21120444E+04</pdfrwt>
<totfact> 0.22859354E+00</totfact>
</mgrwt>
</event>
<event>
 6    1  0.1014650E-006  0.7367608E+03  0.7818608E-02  0.9656352E-01
          2   -1    0    0  501    0  0.00000000000E+00  0.00000000000E+00  0.25019302988E+03  0.25019302988E+03  0.00000000000E+00 0. -1.
         -2   -1    0    0    0  501 -0.00000000000E+00 -0.00000000000E+00 -0.54239774099E+03  0.54239774099E+03  0.00000000000E+00 0.  1.
         23    2    1    2    0    0  0.30041185598E+03 -0.20876719029E+03 -0.13820395694E+03  0.39566854267E+03  0.60185039586E+02 0.  0.
         13    1    3    3    0    0  0.16088269514E+03 -0.77272567779E+02 -0.55947073662E+02  0.18704108206E+03  0.00000000000E+00 0. -1.
        -13    1    3    3    0    0  0.13952916084E+03 -0.13149462251E+03 -0.82256883276E+02  0.20862746061E+03  0.00000000000E+00 0.  1.
         22    1    1    2    0    0 -0.30041185598E+03  0.20876719029E+03 -0.15400075418E+03  0.39692222820E+03  0.00000000000E+00 0.  1.
<mgrwt>
<rscale>  0 0.73676084E+03</rscale>
<asrwt>0</asrwt>
<pdfrwt beam="1">  1        2 0.38491236E-01 0.73676084E+03</pdfrwt>
<pdfrwt beam="2">  1       -2 0.83445805E-01 0.73676084E+03</pdfrwt>
<totfact> 0.17051262E+02</totfact>
</mgrwt>
</event>
<event>
 6    1  0.1014650E-006  0.2045334E+04  0.7818608E-02  0.8585714E-01
         -2   -1    0    0    0  501 -0.00000000000E+00  0.00000000000E+00  0.71313361460E+03  0.71313361460E+03  0.00000000000E+00 0.  1.
          2   -1    0    0  501    0  0.00000000000E+00 -0.00000000000E+00 -0.14665525957E+04  0.14665525957E+04  0.00000000000E+00 0. -1.
         23    2    1    2    0    0  0.62931790619E+03 -0.77788691333E+03 -0.59243073894E+03  0.11662434191E+04  0.89445263150E+02 0.  0.
         13    1    3    3    0    0  0.55962603252E+03 -0.65853201748E+03 -0.53618439902E+03  0.10170247903E+04  0.00000000000E+00 0. -1.
        -13    1    3    3    0    0  0.69691873679E+02 -0.11935489585E+03 -0.56246339915E+02  0.14921862878E+03  0.00000000000E+00 0.  1.
         22    1    1    2    0    0 -0.62931790619E+03  0.77788691333E+03 -0.16098824215E+03  0.10134427912E+04  0.00000000000E+00 0. -1.
<mgrwt>
<rscale>  0 0.20453342E+04</rscale>
<asrwt>0</asrwt>
<pdfrwt beam="1">  1        2 0.22562347E+00 0.20453342E+04</pdfrwt>
<pdfrwt beam="2">  1       -2 0.10971287E+00 0.20453342E+04</pdfrwt>
<totfact> 0.81167170E+00</totfact>
</mgrwt>
</event>
<event>
 6    1  0.1014650E-006  0.2343465E+03  0.7818608E-02  0.1123617E+00
          2   -1    0    0  501    0  0.00000000000E+00  0.00000000000E+00  0.62172493142E+03  0.62172493142E+03  0.00000000000E+00 0. -1.
         -2   -1    0    0    0  501 -0.00000000000E+00 -0.00000000000E+00 -0.22083034814E+02  0.22083034814E+02  0.00000000000E+00 0.  1.
         23    2    1    2    0    0 -0.74512559248E+02  0.28233208023E+02  0.50724292412E+03  0.52179646827E+03  0.92881293596E+02 0.  0.
         11    1    3    3    0    0 -0.10920226549E+02  0.26266090037E+02  0.36339549949E+03  0.36450713009E+03  0.00000000000E+00 0. -1.
        -11    1    3    3    0    0 -0.63592332699E+02  0.19671179868E+01  0.14384742463E+03  0.15728933818E+03  0.00000000000E+00 0.  1.
         22    1    1    2    0    0  0.74512559248E+02 -0.28233208023E+02  0.92398972484E+02  0.12201149797E+03  0.00000000000E+00 0. -1.
<mgrwt>
<rscale>  0 0.23434652E+03</rscale>
<asrwt>0</asrwt>
<pdfrwt beam="1">  1        2 0.95649976E-01 0.23434652E+03</pdfrwt>
<pdfrwt beam="2">  1       -2 0.33973904E-02 0.23434652E+03</pdfrwt>
<totfact> 0.16755409E+04</totfact>
</mgrwt>
</event>
<event>
 6    1  0.1014650E-006  0.8387130E+03  0.7818608E-02  0.9505612E-01
         -1   -1    0    0    0  501 -0.00000000000E+00  0.00000000000E+00  0.21172323656E+03  0.21172323656E+03  0.00000000000E+00 0.  1.
          1   -1    0    0  501    0  0.00000000000E+00 -0.00000000000E+00 -0.83061208319E+03  0.83061208319E+03  0.00000000000E+00 0. -1.
         23    2    1    2    0    0 -0.17703238259E+03  0.15933797804E+03 -0.73415404995E+03  0.77773161073E+03  0.95682984593E+02 0.  0.
         11    1    3    3    0    0 -0.17442369185E+03  0.11370750931E+03 -0.55295520544E+03  0.59085741188E+03  0.00000000000E+00 0. -1.
        -11    1    3    3    0    0 -0.26086907393E+01  0.45630468732E+02 -0.18119884451E+03  0.18687419885E+03  0.00000000000E+00 0.  1.
         22    1    1    2    0    0  0.17703238259E+03 -0.15933797804E+03  0.11526520331E+03  0.26460370902E+03  0.00000000000E+00 0.  1.
<mgrwt>
<rscale>  0 0.83871301E+03</rscale>
<asrwt>0</asrwt>
<pdfrwt beam="1">  1        1 0.12778647E+00 0.83871301E+03</pdfrwt>
<pdfrwt beam="2">  1       -1 0.32572806E-01 0.83871301E+03</pdfrwt>
<totfact> 0.18512136E+02</totfact>
</mgrwt>
</event>
<event>
 6    1  0.1014650E-006  0.1216307E+04  0.7818608E-02  0.9098702E-01
          2   -1    0    0  501    0  0.00000000000E+00  0.00000000000E+00  0.27914920687E+03  0.27914920687E+03  0.00000000000E+00 0. -1.
         -2   -1    0    0    0  501 -0.00000000000E+00 -0.00000000000E+00 -0.13249202275E+04  0.13249202275E+04  0.00000000000E+00 0.  1.
         23    2    1    2    0    0 -0.56709342920E+02 -0.56119808707E+03 -0.81358185125E+03  0.99409316196E+03  0.90258204473E+02 0.  0.
         13    1    3    3    0    0 -0.37172500447E+01 -0.54246955295E+02 -0.13390519053E+03  0.14452387400E+03  0.00000000000E+00 0. -1.
        -13    1    3    3    0    0 -0.52992092875E+02 -0.50695113177E+03 -0.67967666072E+03  0.84956928796E+03  0.00000000000E+00 0.  1.
         22    1    1    2    0    0  0.56709342920E+02  0.56119808707E+03 -0.23218916937E+03  0.60997627239E+03  0.00000000000E+00 0. -1.
<mgrwt>
<rscale>  0 0.12163066E+04</rscale>
<asrwt>0</asrwt>
<pdfrwt beam="1">  1        2 0.42946032E-01 0.12163066E+04</pdfrwt>
<pdfrwt beam="2">  1       -2 0.20383388E+00 0.12163066E+04</pdfrwt>
<totfact> 0.14715884E+01</totfact>
</mgrwt>
</event>
<event>
 6    1  0.1014650E-006  0.2133534E+04  0.7818608E-02  0.8546614E-01
          2   -1    0    0  501    0  0.00000000000E+00  0.00000000000E+00  0.94396551655E+03  0.94396551655E+03  0.00000000000E+00 0. -1.
         -2   -1    0    0    0  501 -0.00000000000E+00 -0.00000000000E+00 -0.12055438026E+04  0.12055438026E+04  0.00000000000E+00 0.  1.
         23    2    1    2    0    0 -0.90992368717E+03 -0.36456361789E+03 -0.55035003751E+03  0.11276204443E+04  0.88175703425E+02 0.  0.
         11    1    3    3    0    0 -0.65212950202E+03 -0.26364151417E+03 -0.34850834821E+03  0.78500815548E+03  0.00000000000E+00 0.  1.
        -11    1    3    3    0    0 -0.25779418515E+03 -0.10092210372E+03 -0.20184168931E+03  0.34261228883E+03  0.00000000000E+00 0. -1.
         22    1    1    2    0    0  0.90992368717E+03  0.36456361789E+03  0.28877175151E+03  0.10218888748E+04  0.00000000000E+00 0. -1.
<mgrwt>
<rscale>  0 0.21335339E+04</rscale>
<asrwt>0</asrwt>
<pdfrwt beam="1">  1        2 0.14522547E+00 0.21335339E+04</pdfrwt>
<pdfrwt beam="2">  1       -2 0.18546828E+00 0.21335339E+04</pdfrwt>
<totfact> 0.41871492E+00</totfact>
</mgrwt>
</event>
<event>
 6    1  0.1014650E-006  0.2264553E+04  0.7818608E-02  0.8492030E-01
          2   -1    0    0  501    0  0.00000000000E+00  0.00000000000E+00  0.15296812954E+04  0.15296812954E+04  0.00000000000E+00 0. -1.
         -2   -1    0    0    0  501 -0.00000000000E+00 -0.00000000000E+00 -0.83811570862E+03  0.83811570862E+03  0.00000000000E+00 0.  1.
         23    2    1    2    0    0  0.10342850137E+04 -0.98612952558E+02 -0.11745759248E+03  0.10509870297E+04  0.10633647847E+03 0.  0.
         13    1    3    3    0    0  0.39253023231E+03 -0.81957945141E+02 -0.18384393223E+02  0.40141633495E+03  0.00000000000E+00 0.  1.
        -13    1    3    3    0    0  0.64175478136E+03 -0.16655007416E+02 -0.99073199252E+02  0.64957069475E+03  0.00000000000E+00 0. -1.
         22    1    1    2    0    0 -0.10342850137E+04  0.98612952558E+02  0.80902317924E+03  0.13168099743E+04  0.00000000000E+00 0. -1.
<mgrwt>
<rscale>  0 0.22645529E+04</rscale>
<asrwt>0</asrwt>
<pdfrwt beam="1">  1        2 0.23533558E+00 0.22645529E+04</pdfrwt>
<pdfrwt beam="2">  1       -2 0.12894088E+00 0.22645529E+04</pdfrwt>
<totfact> 0.49247139E+00</totfact>
</mgrwt>
</event>
<event>
 6    1  0.1014650E-006  0.2102003E+04  0.7818608E-02  0.8560361E-01
          2   -1    0    0  501    0  0.00000000000E+00  0.00000000000E+00  0.65535052095E+03  0.65535052095E+03  0.00000000000E+00 0. -1.
         -2   -1    0    0    0  501 -0.00000000000E+00 -0.00000000000E+00 -0.16855167641E+04  0.16855167641E+04  0.00000000000E+00 0.  1.
         23    2    1    2    0    0  0.27948058517E+03  0.13100255838E+03  0.60056305015E+03  0.68118385263E+03  0.89801982650E+02 0.  0.
         13    1    3    3    0    0  0.12772633940E+03  0.14722888676E+02  0.20774631116E+03  0.24431395995E+03  0.00000000000E+00 0. -1.
        -13    1    3    3    0    0  0.15175424577E+03  0.11627966971E+03  0.39281673899E+03  0.43686989268E+03  0.00000000000E+00 0.  1.
         22    1    1    2    0    0 -0.27948058517E+03 -0.13100255838E+03 -0.16307292933E+04  0.16596834324E+04  0.00000000000E+00 0.  1.
<mgrwt>
<rscale>  0 0.21020031E+04</rscale>
<asrwt>0</asrwt>
<pdfrwt beam="1">  1        2 0.10082316E+00 0.21020031E+04</pdfrwt>
<pdfrwt beam="2">  1       -2 0.25931027E+00 0.21020031E+04</pdfrwt>
<totfact> 0.23102149E+00</totfact>
</mgrwt>
</event>
<event>
 6    1  0.1014650E-006  0.9919639E+03  0.7818608E-02  0.9317403E-01
         -1   -1    0    0    0  501 -0.00000000000E+00  0.00000000000E+00  0.96403248668E+02  0.96403248668E+02  0.00000000000E+00 0.  1.
          1   -1    0    0  501    0  0.00000000000E+00 -0.00000000000E+00 -0.25517614879E+04  0.25517614879E+04  0.00000000000E+00 0. -1.
         23    2    1    2    0    0 -0.26654963250E+03 -0.37493316938E+03 -0.17026077730E+04  0.17659760648E+04  0.90413742712E+02 0.  0.
         11    1    3    3    0    0 -0.24574819320E+03 -0.29036269678E+03 -0.13303857541E+04  0.13837011690E+04  0.00000000000E+00 0.  1.
        -11    1    3    3    0    0 -0.20801439301E+02 -0.84570472593E+02 -0.37222201884E+03  0.38227489588E+03  0.00000000000E+00 0. -1.
         22    1    1    2    0    0  0.26654963250E+03  0.37493316938E+03 -0.75275046621E+03  0.88218867169E+03  0.00000000000E+00 0.  1.
<mgrwt>
<rscale>  0 0.99196391E+03</rscale>
<asrwt>0</asrwt>
<pdfrwt beam="1">  1        1 0.39257861E+00 0.99196391E+03</pdfrwt>
<pdfrwt beam="2">  1       -1 0.14831272E-01 0.99196391E+03</pdfrwt>
<totfact> 0.42512357E+01</totfact>
</mgrwt>
</event>
<event>
 6    1  0.1168803E-006  0.1996009E+04  0.7818608E-02  0.8608489E-01
         -1   -1    0    0    0  501 -0.00000000000E+00  0.00000000000E+00  0.68720599624E+03  0.68720599624E+03  0.00000000000E+00 0.  1.
          1   -1    0    0  501    0  0.00000000000E+00 -0.00000000000E+00 -0.14493665852E+04  0.14493665852E+04  0.00000000000E+00 0. -1.
         23    2    1    2    0    0 -0.14661611711E+01 -0.97881683270E+03 -0.18512127336E+03  0.10003248473E+04  0.91078936567E+02 0.  0.
         13    1    3    3    0    0 -0.13898595525E+02 -0.33793296767E+03 -0.22236226561E+02  0.33894883296E+03  0.00000000000E+00 0. -1.
        -13    1    3    3    0    0  0.12432434354E+02 -0.64088386504E+03 -0.16288504680E+03  0.66137601435E+03  0.00000000000E+00 0.  1.
         22    1    1    2    0    0  0.14661611711E+01  0.97881683270E+03 -0.57703931564E+03  0.11362477342E+04  0.00000000000E+00 0.  1.
<mgrwt>
<rscale>  0 0.19960094E+04</rscale>
<asrwt>0</asrwt>
<pdfrwt beam="1">  1        1 0.22297947E+00 0.19960094E+04</pdfrwt>
<pdfrwt beam="2">  1       -1 0.10572400E+00 0.19960094E+04</pdfrwt>
<totfact> 0.55157458E+00</totfact>
</mgrwt>
</event>
<event>
 6    1  0.1014650E-006  0.1863087E+04  0.7818608E-02  0.8673452E-01
          2   -1    0    0  501    0  0.00000000000E+00  0.00000000000E+00  0.22215615718E+04  0.22215615718E+04  0.00000000000E+00 0. -1.
         -2   -1    0    0    0  501 -0.00000000000E+00 -0.00000000000E+00 -0.39061412308E+03  0.39061412308E+03  0.00000000000E+00 0.  1.
         23    2    1    2    0    0 -0.12870642800E+03 -0.92038983972E+03  0.90582495734E+03  0.13008655006E+04  0.89718423679E+02 0.  0.
         11    1    3    3    0    0 -0.52861674276E+02 -0.66826054552E+03  0.64583514453E+03  0.93084346010E+03  0.00000000000E+00 0.  1.
        -11    1    3    3    0    0 -0.75844753725E+02 -0.25212929419E+03  0.25998981282E+03  0.37002204046E+03  0.00000000000E+00 0. -1.
         22    1    1    2    0    0  0.12870642800E+03  0.92038983972E+03  0.92512249136E+03  0.13113101943E+04  0.00000000000E+00 0. -1.
<mgrwt>
<rscale>  0 0.18630870E+04</rscale>
<asrwt>0</asrwt>
<pdfrwt beam="1">  1        2 0.34177870E+00 0.18630870E+04</pdfrwt>
<pdfrwt beam="2">  1       -2 0.60094482E-01 0.18630870E+04</pdfrwt>
<totfact> 0.12178054E+01</totfact>
</mgrwt>
</event>
<event>
 6    1  0.1014650E-006  0.7382567E+03  0.7818608E-02  0.9653956E-01
         -2   -1    0    0    0  501 -0.00000000000E+00  0.00000000000E+00  0.10793150449E+04  0.10793150449E+04  0.00000000000E+00 0.  1.
          2   -1    0    0  501    0  0.00000000000E+00 -0.00000000000E+00 -0.12624279373E+03  0.12624279373E+03  0.00000000000E+00 0. -1.
         23    2    1    2    0    0 -0.30480553948E+03  0.19354562154E+03  0.55070611384E+03  0.66494260300E+03  0.92223190996E+02 0.  0.
         13    1    3    3    0    0 -0.96191104335E+02  0.46084876322E+02  0.96575380176E+02  0.14388658184E+03  0.00000000000E+00 0. -1.
        -13    1    3    3    0    0 -0.20861443514E+03  0.14746074522E+03  0.45413073366E+03  0.52105602116E+03  0.00000000000E+00 0.  1.
         22    1    1    2    0    0  0.30480553948E+03 -0.19354562154E+03  0.40236613733E+03  0.54061523562E+03  0.00000000000E+00 0.  1.
<mgrwt>
<rscale>  0 0.73825672E+03</rscale>
<asrwt>0</asrwt>
<pdfrwt beam="1">  1        2 0.19421969E-01 0.73825672E+03</pdfrwt>
<pdfrwt beam="2">  1       -2 0.16604846E+00 0.73825672E+03</pdfrwt>
<totfact> 0.67793551E+01</totfact>
</mgrwt>
</event>
<event>
 6    1  0.1014650E-006  0.1633507E+04  0.7818608E-02  0.8800224E-01
          2   -1    0    0  501    0  0.00000000000E+00  0.00000000000E+00  0.35505806136E+03  0.35505806136E+03  0.00000000000E+00 0. -1.
         -2   -1    0    0    0  501 -0.00000000000E+00 -0.00000000000E+00 -0.18788092268E+04  0.18788092268E+04  0.00000000000E+00 0.  1.
         23    2    1    2    0    0 -0.48628443867E+02  0.72803578483E+03 -0.27018712788E+03  0.78341093728E+03  0.91273123301E+02 0.  0.
         11    1    3    3    0    0 -0.51922850778E+01  0.58019519796E+03 -0.23021484728E+03  0.62422135775E+03  0.00000000000E+00 0. -1.
        -11    1    3    3    0    0 -0.43436158789E+02  0.14784058687E+03 -0.39972280602E+02  0.15918957953E+03  0.00000000000E+00 0.  1.
         22    1    1    2    0    0  0.48628443867E+02 -0.72803578483E+03 -0.12535640375E+04  0.14504563509E+04  0.00000000000E+00 0.  1.
<mgrwt>
<rscale>  0 0.16335071E+04</rscale>
<asrwt>0</asrwt>
<pdfrwt beam="1">  1        2 0.54624316E-01 0.16335071E+04</pdfrwt>
<pdfrwt beam="2">  1       -2 0.28904758E+00 0.16335071E+04</pdfrwt>
<totfact> 0.32320134E+00</totfact>
</mgrwt>
</event>
<event>
 6    1  0.1014650E-006  0.1676788E+04  0.7818608E-02  0.8774715E-01
         -1   -1    0    0    0  501 -0.00000000000E+00  0.00000000000E+00  0.60169911799E+03  0.60169911799E+03  0.00000000000E+00 0.  1.
          1   -1    0    0  501    0  0.00000000000E+00 -0.00000000000E+00 -0.11681995907E+04  0.11681995907E+04  0.00000000000E+00 0. -1.
         23    2    1    2    0    0  0.67591903760E+03  0.34264741121E+03  0.89286863206E+02  0.76773563626E+03  0.84688071446E+02 0.  0.
         11    1    3    3    0    0  0.89872272342E+02  0.78423572083E+02  0.50710053499E+01  0.11938591663E+03  0.00000000000E+00 0. -1.
        -11    1    3    3    0    0  0.58604676526E+03  0.26422383913E+03  0.84215857856E+02  0.64834971963E+03  0.00000000000E+00 0.  1.
         22    1    1    2    0    0 -0.67591903760E+03 -0.34264741121E+03 -0.65578733596E+03  0.10021630725E+04  0.00000000000E+00 0.  1.
<mgrwt>
<rscale>  0 0.16767882E+04</rscale>
<asrwt>0</asrwt>
<pdfrwt beam="1">  1        1 0.17972301E+00 0.16767882E+04</pdfrwt>
<pdfrwt beam="2">  1       -1 0.92569096E-01 0.16767882E+04</pdfrwt>
<totfact> 0.12202599E+01</totfact>
</mgrwt>
</event>
<event>
 6    1  0.1014650E-006  0.2460287E+04  0.7818608E-02  0.8417272E-01
         -2   -1    0    0    0  501 -0.00000000000E+00  0.00000000000E+00  0.19211838255E+04  0.19211838255E+04  0.00000000000E+00 0.  1.
          2   -1    0    0  501    0  0.00000000000E+00 -0.00000000000E+00 -0.78766710880E+03  0.78766710880E+03  0.00000000000E+00 0. -1.
         23    2    1    2    0    0  0.11778053029E+04 -0.34809519392E+03  0.60173162384E+03  0.13704971020E+04  0.88236975933E+02 0.  0.
         11    1    3    3    0    0  0.52900405023E+03 -0.20187805081E+03  0.27091709289E+03  0.62769108946E+03  0.00000000000E+00 0. -1.
        -11    1    3    3    0    0  0.64880125263E+03 -0.14621714311E+03  0.33081453095E+03  0.74280601252E+03  0.00000000000E+00 0.  1.
         22    1    1    2    0    0 -0.11778053029E+04  0.34809519392E+03  0.53178509285E+03  0.13383538323E+04  0.00000000000E+00 0. -1.
<mgrwt>
<rscale>  0 0.24602872E+04</rscale>
<asrwt>0</asrwt>
<pdfrwt beam="1">  1        2 0.12117956E+00 0.24602872E+04</pdfrwt>
<pdfrwt beam="2">  1       -2 0.29556674E+00 0.24602872E+04</pdfrwt>
<totfact> 0.10647293E+00</totfact>
</mgrwt>
</event>
<event>
 6    1  0.1014650E-006  0.1154374E+04  0.7818608E-02  0.9153758E-01
         -1   -1    0    0    0  501 -0.00000000000E+00  0.00000000000E+00  0.68216703865E+03  0.68216703865E+03  0.00000000000E+00 0.  1.
          1   -1    0    0  501    0  0.00000000000E+00 -0.00000000000E+00 -0.48836278936E+03  0.48836278936E+03  0.00000000000E+00 0. -1.
         23    2    1    2    0    0  0.74311957352E+02 -0.25455388879E+03 -0.41904189190E+03  0.50277213089E+03  0.82847807029E+02 0.  0.
         11    1    3    3    0    0  0.55713684835E+02 -0.22876913810E+03 -0.31055415547E+03  0.38972197360E+03  0.00000000000E+00 0. -1.
        -11    1    3    3    0    0  0.18598272517E+02 -0.25784750693E+02 -0.10848773642E+03  0.11305015729E+03  0.00000000000E+00 0.  1.
         22    1    1    2    0    0 -0.74311957352E+02  0.25455388879E+03  0.61284614119E+03  0.66775769713E+03  0.00000000000E+00 0.  1.
<mgrwt>
<rscale>  0 0.11543743E+04</rscale>
<asrwt>0</asrwt>
<pdfrwt beam="1">  1        1 0.75132737E-01 0.11543743E+04</pdfrwt>
<pdfrwt beam="2">  1       -1 0.10494877E+00 0.11543743E+04</pdfrwt>
<totfact> 0.38768375E+01</totfact>
</mgrwt>
</event>
<event>
 6    1  0.1136525E-006  0.5199193E+04  0.7818608E-02  0.7798493E-01
         -2   -1    0    0    0  501 -0.00000000000E+00  0.00000000000E+00  0.46738760309E+04  0.46738760309E+04  0.00000000000E+00 0.  1.
          2   -1    0    0  501    0  0.00000000000E+00 -0.00000000000E+00 -0.14458883433E+04  0.14458883433E+04  0.00000000000E+00 0. -1.
         23    2    1    2    0    0 -0.13593156618E+04  0.12806778857E+04  0.37416242020E+04  0.41828344879E+04  0.92074799949E+02 0.  0.
         11    1    3    3    0    0 -0.55620722990E+03  0.52714524880E+03  0.16372900425E+04  0.18077519960E+04  0.00000000000E+00 0.  1.
        -11    1    3    3    0    0 -0.80310843190E+03  0.75353263690E+03  0.21043341596E+04  0.23750824919E+04  0.00000000000E+00 0. -1.
         22    1    1    2    0    0  0.13593156618E+04 -0.12806778857E+04 -0.51363651451E+03  0.19369298863E+04  0.00000000000E+00 0. -1.
<mgrwt>
<rscale>  0 0.51991933E+04</rscale>
<asrwt>0</asrwt>
<pdfrwt beam="1">  1        2 0.22244436E+00 0.51991933E+04</pdfrwt>
<pdfrwt beam="2">  1       -2 0.71905785E+00 0.51991933E+04</pdfrwt>
<totfact> 0.19049541E-03</totfact>
</mgrwt>
</event>
<event>
 6    1  0.1014650E-006  0.2469774E+04  0.7818608E-02  0.8413833E-01
         -2   -1    0    0    0  501 -0.00000000000E+00  0.00000000000E+00  0.23834608788E+04  0.23834608788E+04  0.00000000000E+00 0.  1.
          2   -1    0    0  501    0  0.00000000000E+00 -0.00000000000E+00 -0.63980330212E+03  0.63980330212E+03  0.00000000000E+00 0. -1.
         23    2    1    2    0    0 -0.72843050005E+03 -0.82271586282E+03  0.18783260745E+03  0.11185165023E+04  0.91245236394E+02 0.  0.
         11    1    3    3    0    0 -0.61636143970E+03 -0.67744314270E+03  0.12389636684E+03  0.92421910046E+03  0.00000000000E+00 0.  1.
        -11    1    3    3    0    0 -0.11206906034E+03 -0.14527272012E+03  0.63936240617E+02  0.19429740184E+03  0.00000000000E+00 0. -1.
         22    1    1    2    0    0  0.72843050005E+03  0.82271586282E+03  0.15558249692E+04  0.19047476786E+04  0.00000000000E+00 0.  1.
<mgrwt>
<rscale>  0 0.24697742E+04</rscale>
<asrwt>0</asrwt>
<pdfrwt beam="1">  1        2 0.98431279E-01 0.24697742E+04</pdfrwt>
<pdfrwt beam="2">  1       -2 0.36668628E+00 0.24697742E+04</pdfrwt>
<totfact> 0.50005564E-01</totfact>
</mgrwt>
</event>
<event>
 6    1  0.1014650E-006  0.1328738E+04  0.7818608E-02  0.9007081E-01
         -2   -1    0    0    0  501 -0.00000000000E+00  0.00000000000E+00  0.74165398025E+03  0.74165398025E+03  0.00000000000E+00 0.  1.
          2   -1    0    0  501    0  0.00000000000E+00 -0.00000000000E+00 -0.59513800186E+03  0.59513800186E+03  0.00000000000E+00 0. -1.
         23    2    1    2    0    0  0.25212948978E+03  0.45015728032E+02 -0.53979308533E+03  0.60425131681E+03  0.90262857875E+02 0.  0.
         11    1    3    3    0    0  0.65201437564E+02 -0.22415527344E+02 -0.97999349381E+02  0.11982301868E+03  0.00000000000E+00 0.  1.
        -11    1    3    3    0    0  0.18692805221E+03  0.67431255376E+02 -0.44179373595E+03  0.48442829813E+03  0.00000000000E+00 0. -1.
         22    1    1    2    0    0 -0.25212948978E+03 -0.45015728032E+02  0.68630906371E+03  0.73254066530E+03  0.00000000000E+00 0.  1.
<mgrwt>
<rscale>  0 0.13287385E+04</rscale>
<asrwt>0</asrwt>
<pdfrwt beam="1">  1        2 0.91559693E-01 0.13287385E+04</pdfrwt>
<pdfrwt beam="2">  1       -2 0.11410061E+00 0.13287385E+04</pdfrwt>
<totfact> 0.29448167E+01</totfact>
</mgrwt>
</event>
<event>
 6    1  0.1014650E-006  0.2474164E+04  0.7818608E-02  0.8412248E-01
          2   -1    0    0  501    0  0.00000000000E+00  0.00000000000E+00  0.17334339274E+04  0.17334339274E+04  0.00000000000E+00 0. -1.
         -2   -1    0    0    0  501 -0.00000000000E+00 -0.00000000000E+00 -0.88285531949E+03  0.88285531949E+03  0.00000000000E+00 0.  1.
         23    2    1    2    0    0  0.10751453779E+04 -0.51261149340E+03  0.77250869399E+03  0.14226381093E+04  0.91768082159E+02 0.  0.
         11    1    3    3    0    0  0.53171140827E+03 -0.30183376921E+03  0.37856913198E+03  0.71912115363E+03  0.00000000000E+00 0.  1.
        -11    1    3    3    0    0  0.54343396962E+03 -0.21077772419E+03  0.39393956202E+03  0.70351695564E+03  0.00000000000E+00 0. -1.
         22    1    1    2    0    0 -0.10751453779E+04  0.51261149340E+03  0.78069913868E+02  0.11936511376E+04  0.00000000000E+00 0.  1.
<mgrwt>
<rscale>  0 0.24741636E+04</rscale>
<asrwt>0</asrwt>
<pdfrwt beam="1">  1        2 0.26668214E+00 0.24741636E+04</pdfrwt>
<pdfrwt beam="2">  1       -2 0.13582390E+00 0.24741636E+04</pdfrwt>
<totfact> 0.32622546E+00</totfact>
</mgrwt>
</event>
<event>
 6    1  0.1014650E-006  0.4177095E+04  0.7818608E-02  0.7969744E-01
          2   -1    0    0  501    0  0.00000000000E+00  0.00000000000E+00  0.19908877098E+04  0.19908877098E+04  0.00000000000E+00 0. -1.
         -2   -1    0    0    0  501 -0.00000000000E+00 -0.00000000000E+00 -0.21909979143E+04  0.21909979143E+04  0.00000000000E+00 0.  1.
         23    2    1    2    0    0 -0.63452217045E+02 -0.20855247695E+04 -0.32780588934E+02  0.20886969207E+04  0.90224784503E+02 0.  0.
         11    1    3    3    0    0  0.35615989362E+01 -0.11445312103E+04 -0.41300655144E+02  0.11452816774E+04  0.00000000000E+00 0. -1.
        -11    1    3    3    0    0 -0.67013815982E+02 -0.94099355915E+03  0.85200662103E+01  0.94341524337E+03  0.00000000000E+00 0.  1.
         22    1    1    2    0    0  0.63452217045E+02  0.20855247695E+04 -0.16732961560E+03  0.20931887034E+04  0.00000000000E+00 0. -1.
<mgrwt>
<rscale>  0 0.41770951E+04</rscale>
<asrwt>0</asrwt>
<pdfrwt beam="1">  1        2 0.30629042E+00 0.41770951E+04</pdfrwt>
<pdfrwt beam="2">  1       -2 0.33707660E+00 0.41770951E+04</pdfrwt>
<totfact> 0.98580570E-02</totfact>
</mgrwt>
</event>
<event>
 6    1  0.1014650E-006  0.3350154E+04  0.7818608E-02  0.8150250E-01
          2   -1    0    0  501    0  0.00000000000E+00  0.00000000000E+00  0.22966320087E+04  0.22966320087E+04  0.00000000000E+00 0. -1.
         -2   -1    0    0    0  501 -0.00000000000E+00 -0.00000000000E+00 -0.12217381323E+04  0.12217381323E+04  0.00000000000E+00 0.  1.
         23    2    1    2    0    0  0.31226015855E+03  0.11765635867E+04  0.17443991911E+04  0.21291093135E+04  0.91485795620E+02 0.  0.
         11    1    3    3    0    0  0.23357628072E+03  0.77954129098E+03  0.12241369232E+04  0.14699502407E+04  0.00000000000E+00 0. -1.
        -11    1    3    3    0    0  0.78683877830E+02  0.39702229573E+03  0.52026226794E+03  0.65915907290E+03  0.00000000000E+00 0.  1.
         22    1    1    2    0    0 -0.31226015855E+03 -0.11765635867E+04 -0.66950531471E+03  0.13892608274E+04  0.00000000000E+00 0.  1.
<mgrwt>
<rscale>  0 0.33501540E+04</rscale>
<asrwt>0</asrwt>
<pdfrwt beam="1">  1        2 0.35332800E+00 0.33501540E+04</pdfrwt>
<pdfrwt beam="2">  1       -2 0.18795971E+00 0.33501540E+04</pdfrwt>
<totfact> 0.60595731E-01</totfact>
</mgrwt>
</event>
<event>
 6    1  0.1014650E-006  0.2687505E+04  0.7818608E-02  0.8339071E-01
          2   -1    0    0  501    0  0.00000000000E+00  0.00000000000E+00  0.35013778886E+04  0.35013778886E+04  0.00000000000E+00 0. -1.
         -2   -1    0    0    0  501 -0.00000000000E+00 -0.00000000000E+00 -0.51570276217E+03  0.51570276217E+03  0.00000000000E+00 0.  1.
         23    2    1    2    0    0 -0.57337721863E+03  0.10366633891E+04  0.55096014342E+03  0.13094489429E+04  0.87561619414E+02 0.  0.
         13    1    3    3    0    0 -0.34934980294E+03  0.67494254930E+03  0.39302291565E+03  0.85560489824E+03  0.00000000000E+00 0. -1.
        -13    1    3    3    0    0 -0.22402741569E+03  0.36172083980E+03  0.15793722777E+03  0.45384404463E+03  0.00000000000E+00 0.  1.
         22    1    1    2    0    0  0.57337721863E+03 -0.10366633891E+04  0.24347149830E+04  0.27076317079E+04  0.00000000000E+00 0. -1.
<mgrwt>
<rscale>  0 0.26875046E+04</rscale>
<asrwt>0</asrwt>
<pdfrwt beam="1">  1        2 0.53867351E+00 0.26875046E+04</pdfrwt>
<pdfrwt beam="2">  1       -2 0.79338889E-01 0.26875046E+04</pdfrwt>
<totfact> 0.10035153E+00</totfact>
</mgrwt>
</event>
<event>
 6    1  0.1014650E-006  0.1942162E+04  0.7818608E-02  0.8634150E-01
          1   -1    0    0  501    0  0.00000000000E+00  0.00000000000E+00  0.19983502374E+04  0.19983502374E+04  0.00000000000E+00 0. -1.
         -1   -1    0    0    0  501 -0.00000000000E+00 -0.00000000000E+00 -0.47188817383E+03  0.47188817383E+03  0.00000000000E+00 0.  1.
         23    2    1    2    0    0  0.32552867438E+03 -0.27871565335E+03  0.18708777865E+04  0.19204443376E+04  0.65356166547E+02 0.  0.
         13    1    3    3    0    0  0.20137679544E+03 -0.13727980584E+03  0.11362128226E+04  0.11620576307E+04  0.00000000000E+00 0. -1.
        -13    1    3    3    0    0  0.12415187893E+03 -0.14143584751E+03  0.73466496390E+03  0.75838670689E+03  0.00000000000E+00 0.  1.
         22    1    1    2    0    0 -0.32552867438E+03  0.27871565335E+03 -0.34441572289E+03  0.54979407367E+03  0.00000000000E+00 0.  1.
<mgrwt>
<rscale>  0 0.19421615E+04</rscale>
<asrwt>0</asrwt>
<pdfrwt beam="1">  1        1 0.30743849E+00 0.19421615E+04</pdfrwt>
<pdfrwt beam="2">  1       -1 0.72598181E-01 0.19421615E+04</pdfrwt>
<totfact> 0.53295430E+00</totfact>
</mgrwt>
</event>
<event>
 6    1  0.1014650E-006  0.1511960E+04  0.7818608E-02  0.8876538E-01
          2   -1    0    0  501    0  0.00000000000E+00  0.00000000000E+00  0.10313943601E+04  0.10313943601E+04  0.00000000000E+00 0. -1.
         -2   -1    0    0    0  501 -0.00000000000E+00 -0.00000000000E+00 -0.55411006604E+03  0.55411006604E+03  0.00000000000E+00 0.  1.
         23    2    1    2    0    0  0.21941027999E+03  0.71730005589E+03  0.16274017567E+03  0.77211752955E+03  0.83790652886E+02 0.  0.
         11    1    3    3    0    0  0.12781294637E+03  0.54209924155E+03  0.11432581764E+03  0.56857552667E+03  0.00000000000E+00 0.  1.
        -11    1    3    3    0    0  0.91597333623E+02  0.17520081434E+03  0.48414358030E+02  0.20354200288E+03  0.00000000000E+00 0. -1.
         22    1    1    2    0    0 -0.21941027999E+03 -0.71730005589E+03  0.31454411840E+03  0.81338689660E+03  0.00000000000E+00 0.  1.
<mgrwt>
<rscale>  0 0.15119603E+04</rscale>
<asrwt>0</asrwt>
<pdfrwt beam="1">  1        2 0.15867606E+00 0.15119603E+04</pdfrwt>
<pdfrwt beam="2">  1       -2 0.85247703E-01 0.15119603E+04</pdfrwt>
<totfact> 0.27796117E+01</totfact>
</mgrwt>
</event>
<event>
 6    1  0.1014650E-006  0.3265192E+04  0.7818608E-02  0.8171809E-01
          2   -1    0    0  501    0  0.00000000000E+00  0.00000000000E+00  0.33629360670E+04  0.33629360670E+04  0.00000000000E+00 0. -1.
         -2   -1    0    0    0  501 -0.00000000000E+00 -0.00000000000E+00 -0.79257228650E+03  0.79257228650E+03  0.00000000000E+00 0.  1.
         23    2    1    2    0    0  0.72187407221E+03 -0.37948280302E+03 -0.51151691809E+03  0.96754693369E+03  0.96892401606E+02 0.  0.
         13    1    3    3    0    0  0.54099870281E+03 -0.31247494137E+03 -0.35098989826E+03  0.71659897718E+03  0.00000000000E+00 0. -1.
        -13    1    3    3    0    0  0.18087536940E+03 -0.67007861653E+02 -0.16052701983E+03  0.25094795651E+03  0.00000000000E+00 0.  1.
         22    1    1    2    0    0 -0.72187407221E+03  0.37948280302E+03  0.30818806985E+04  0.31879614198E+04  0.00000000000E+00 0. -1.
<mgrwt>
<rscale>  0 0.32651921E+04</rscale>
<asrwt>0</asrwt>
<pdfrwt beam="1">  1        2 0.51737477E+00 0.32651921E+04</pdfrwt>
<pdfrwt beam="2">  1       -2 0.12193420E+00 0.32651921E+04</pdfrwt>
<totfact> 0.43130694E-01</totfact>
</mgrwt>
</event>
<event>
 6    1  0.1014650E-006  0.1829066E+04  0.7818608E-02  0.8690993E-01
          1   -1    0    0  501    0  0.00000000000E+00  0.00000000000E+00  0.10394710525E+04  0.10394710525E+04  0.00000000000E+00 0. -1.
         -1   -1    0    0    0  501 -0.00000000000E+00 -0.00000000000E+00 -0.80461213801E+03  0.80461213801E+03  0.00000000000E+00 0.  1.
         23    2    1    2    0    0 -0.81197827759E+03 -0.27419114420E+03  0.43309604205E+03  0.96443129023E+03  0.89811052194E+02 0.  0.
         11    1    3    3    0    0 -0.90665031926E+02 -0.22598085892E+02  0.18520906789E+02  0.95256734609E+02  0.00000000000E+00 0.  1.
        -11    1    3    3    0    0 -0.72131324567E+03 -0.25159305831E+03  0.41457513526E+03  0.86917455562E+03  0.00000000000E+00 0. -1.
         22    1    1    2    0    0  0.81197827759E+03  0.27419114420E+03 -0.19823712760E+03  0.87965190024E+03  0.00000000000E+00 0.  1.
<mgrwt>
<rscale>  0 0.18290665E+04</rscale>
<asrwt>0</asrwt>
<pdfrwt beam="1">  1        1 0.15991862E+00 0.18290665E+04</pdfrwt>
<pdfrwt beam="2">  1       -1 0.12378648E+00 0.18290665E+04</pdfrwt>
<totfact> 0.76108245E+00</totfact>
</mgrwt>
</event>
<event>
 6    1  0.1014650E-006  0.2917929E+04  0.7818608E-02  0.8267563E-01
         -1   -1    0    0    0  501 -0.00000000000E+00  0.00000000000E+00  0.88320786524E+03  0.88320786524E+03  0.00000000000E+00 0.  1.
          1   -1    0    0  501    0  0.00000000000E+00 -0.00000000000E+00 -0.24100530854E+04  0.24100530854E+04  0.00000000000E+00 0. -1.
         23    2    1    2    0    0 -0.23842802817E+03  0.12528865955E+03 -0.23809582578E+04  0.23976861331E+04  0.85973220820E+02 0.  0.
         13    1    3    3    0    0 -0.14566587496E+03  0.29067661187E+02 -0.11791353612E+04  0.11884543222E+04  0.00000000000E+00 0.  1.
        -13    1    3    3    0    0 -0.92762153211E+02  0.96220998358E+02 -0.12018228966E+04  0.12092318109E+04  0.00000000000E+00 0. -1.
         22    1    1    2    0    0  0.23842802817E+03 -0.12528865955E+03  0.85411303761E+03  0.89557481756E+03  0.00000000000E+00 0.  1.
<mgrwt>
<rscale>  0 0.29179293E+04</rscale>
<asrwt>0</asrwt>
<pdfrwt beam="1">  1        1 0.37077739E+00 0.29179293E+04</pdfrwt>
<pdfrwt beam="2">  1       -1 0.13587813E+00 0.29179293E+04</pdfrwt>
<totfact> 0.60685613E-01</totfact>
</mgrwt>
</event>
<event>
 6    1  0.1014650E-006  0.3369524E+04  0.7818608E-02  0.8145427E-01
          1   -1    0    0  501    0  0.00000000000E+00  0.00000000000E+00  0.18240788231E+04  0.18240788231E+04  0.00000000000E+00 0. -1.
         -1   -1    0    0    0  501 -0.00000000000E+00 -0.00000000000E+00 -0.15560859086E+04  0.15560859086E+04  0.00000000000E+00 0.  1.
         23    2    1    2    0    0 -0.12911293335E+04 -0.10754759734E+04  0.23382701802E+03  0.16994414250E+04  0.98805654214E+02 0.  0.
         13    1    3    3    0    0 -0.41609495253E+03 -0.39959146714E+03  0.56717962650E+02  0.57967687329E+03  0.00000000000E+00 0. -1.
        -13    1    3    3    0    0 -0.87503438099E+03 -0.67588450627E+03  0.17710905537E+03  0.11197645517E+04  0.00000000000E+00 0.  1.
         22    1    1    2    0    0  0.12911293335E+04  0.10754759734E+04  0.34165896422E+02  0.16807233067E+04  0.00000000000E+00 0. -1.
<mgrwt>
<rscale>  0 0.33695242E+04</rscale>
<asrwt>0</asrwt>
<pdfrwt beam="1">  1        1 0.28062751E+00 0.33695242E+04</pdfrwt>
<pdfrwt beam="2">  1       -1 0.23939783E+00 0.33695242E+04</pdfrwt>
<totfact> 0.26477080E-01</totfact>
</mgrwt>
</event>
<event>
 6    1  0.1014650E-006  0.1498643E+04  0.7818608E-02  0.8885356E-01
          1   -1    0    0  501    0  0.00000000000E+00  0.00000000000E+00  0.68098343378E+03  0.68098343378E+03  0.00000000000E+00 0. -1.
         -1   -1    0    0    0  501 -0.00000000000E+00 -0.00000000000E+00 -0.82451725654E+03  0.82451725654E+03  0.00000000000E+00 0.  1.
         23    2    1    2    0    0 -0.63685643550E+03 -0.15551471392E+03  0.28663102244E+03  0.72140073512E+03  0.92145167662E+02 0.  0.
         13    1    3    3    0    0 -0.14190170059E+03 -0.34333400436E+02  0.10732789343E+03  0.18120196391E+03  0.00000000000E+00 0.  1.
        -13    1    3    3    0    0 -0.49495473491E+03 -0.12118131348E+03  0.17930312901E+03  0.54019877122E+03  0.00000000000E+00 0. -1.
         22    1    1    2    0    0  0.63685643550E+03  0.15551471392E+03 -0.43016484521E+03  0.78409995520E+03  0.00000000000E+00 0.  1.
<mgrwt>
<rscale>  0 0.14986428E+04</rscale>
<asrwt>0</asrwt>
<pdfrwt beam="1">  1        1 0.10476668E+00 0.14986428E+04</pdfrwt>
<pdfrwt beam="2">  1       -1 0.12684881E+00 0.14986428E+04</pdfrwt>
<totfact> 0.14829348E+01</totfact>
</mgrwt>
</event>
<event>
 6    1  0.1014650E-006  0.4305993E+04  0.7818608E-02  0.7945511E-01
          1   -1    0    0  501    0  0.00000000000E+00  0.00000000000E+00  0.35882187902E+04  0.35882187902E+04  0.00000000000E+00 0. -1.
         -1   -1    0    0    0  501 -0.00000000000E+00 -0.00000000000E+00 -0.12918371361E+04  0.12918371361E+04  0.00000000000E+00 0.  1.
         23    2    1    2    0    0 -0.63188779809E+03 -0.71167898472E+03  0.33361741179E+04  0.34704682084E+04  0.91228690996E+02 0.  0.
         13    1    3    3    0    0 -0.26230193269E+03 -0.33564214997E+03  0.13588317335E+04  0.14240370911E+04  0.00000000000E+00 0.  1.
        -13    1    3    3    0    0 -0.36958586540E+03 -0.37603683474E+03  0.19773423844E+04  0.20464311174E+04  0.00000000000E+00 0. -1.
         22    1    1    2    0    0  0.63188779809E+03  0.71167898472E+03 -0.10397924638E+04  0.14095877179E+04  0.00000000000E+00 0.  1.
<mgrwt>
<rscale>  0 0.43059932E+04</rscale>
<asrwt>0</asrwt>
<pdfrwt beam="1">  1        1 0.55203366E+00 0.43059932E+04</pdfrwt>
<pdfrwt beam="2">  1       -1 0.19874418E+00 0.43059932E+04</pdfrwt>
<totfact> 0.24876119E-02</totfact>
</mgrwt>
</event>
<event>
 6    1  0.1014650E-006  0.7273150E+03  0.7818608E-02  0.9671627E-01
         -2   -1    0    0    0  501 -0.00000000000E+00  0.00000000000E+00  0.57586739442E+03  0.57586739442E+03  0.00000000000E+00 0.  1.
          2   -1    0    0  501    0  0.00000000000E+00 -0.00000000000E+00 -0.22964797065E+03  0.22964797065E+03  0.00000000000E+00 0. -1.
         23    2    1    2    0    0 -0.13645019573E+03  0.32064272601E+03  0.84046318673E+02  0.36943607102E+03  0.89380161255E+02 0.  0.
         13    1    3    3    0    0 -0.75429200177E+02  0.24735271801E+03  0.31387176139E+02  0.26049584675E+03  0.00000000000E+00 0. -1.
        -13    1    3    3    0    0 -0.61020995556E+02  0.73290008002E+02  0.52659142535E+02  0.10894022427E+03  0.00000000000E+00 0.  1.
         22    1    1    2    0    0  0.13645019573E+03 -0.32064272601E+03  0.26217310510E+03  0.43607929405E+03  0.00000000000E+00 0.  1.
<mgrwt>
<rscale>  0 0.72731500E+03</rscale>
<asrwt>0</asrwt>
<pdfrwt beam="1">  1        2 0.35330457E-01 0.72731500E+03</pdfrwt>
<pdfrwt beam="2">  1       -2 0.88594984E-01 0.72731500E+03</pdfrwt>
<totfact> 0.16373035E+02</totfact>
</mgrwt>
</event>
<event>
 6    1  0.1014650E-006  0.2265539E+04  0.7818608E-02  0.8491634E-01
          2   -1    0    0  501    0  0.00000000000E+00  0.00000000000E+00  0.25854525102E+04  0.25854525102E+04  0.00000000000E+00 0. -1.
         -2   -1    0    0    0  501 -0.00000000000E+00 -0.00000000000E+00 -0.49630270434E+03  0.49630270434E+03  0.00000000000E+00 0.  1.
         23    2    1    2    0    0  0.20951355979E+03  0.62304252033E+03 -0.20538837392E+03  0.69491978403E+03  0.93011871356E+02 0.  0.
         11    1    3    3    0    0  0.12590110461E+03  0.23250209862E+03 -0.76471574714E+02  0.27523847068E+03  0.00000000000E+00 0.  1.
        -11    1    3    3    0    0  0.83612455178E+02  0.39054042171E+03 -0.12891679921E+03  0.41968131334E+03  0.00000000000E+00 0. -1.
         22    1    1    2    0    0 -0.20951355979E+03 -0.62304252033E+03  0.22945381798E+04  0.23868354305E+04  0.00000000000E+00 0. -1.
<mgrwt>
<rscale>  0 0.22655393E+04</rscale>
<asrwt>0</asrwt>
<pdfrwt beam="1">  1        2 0.39776192E+00 0.22655393E+04</pdfrwt>
<pdfrwt beam="2">  1       -2 0.76354264E-01 0.22655393E+04</pdfrwt>
<totfact> 0.43304407E+00</totfact>
</mgrwt>
</event>
<event>
 6    1  0.1014650E-006  0.4907818E+04  0.7818608E-02  0.7842887E-01
          2   -1    0    0  501    0  0.00000000000E+00  0.00000000000E+00  0.36227717673E+04  0.36227717673E+04  0.00000000000E+00 0. -1.
         -2   -1    0    0    0  501 -0.00000000000E+00 -0.00000000000E+00 -0.16621716758E+04  0.16621716758E+04  0.00000000000E+00 0.  1.
         23    2    1    2    0    0 -0.74028249381E+03  0.40872968761E+02 -0.15372725010E+04  0.17093593729E+04  0.94941839684E+02 0.  0.
         11    1    3    3    0    0 -0.35064745195E+03 -0.22702741805E+02 -0.67387706305E+03  0.75998641182E+03  0.00000000000E+00 0.  1.
        -11    1    3    3    0    0 -0.38963504186E+03  0.63575710566E+02 -0.86339543800E+03  0.94937296105E+03  0.00000000000E+00 0. -1.
         22    1    1    2    0    0  0.74028249381E+03 -0.40872968761E+02  0.34978725925E+04  0.35755840703E+04  0.00000000000E+00 0. -1.
<mgrwt>
<rscale>  0 0.49078177E+04</rscale>
<asrwt>0</asrwt>
<pdfrwt beam="1">  1        2 0.55734950E+00 0.49078177E+04</pdfrwt>
<pdfrwt beam="2">  1       -2 0.25571872E+00 0.49078177E+04</pdfrwt>
<totfact> 0.28821695E-02</totfact>
</mgrwt>
</event>
<event>
 6    1  0.1014650E-006  0.1520776E+04  0.7818608E-02  0.8870753E-01
          1   -1    0    0  501    0  0.00000000000E+00  0.00000000000E+00  0.29578606215E+04  0.29578606215E+04  0.00000000000E+00 0. -1.
         -1   -1    0    0    0  501 -0.00000000000E+00 -0.00000000000E+00 -0.19547570744E+03  0.19547570744E+03  0.00000000000E+00 0.  1.
         23    2    1    2    0    0  0.26211898154E+03 -0.69846825477E+03  0.16601801645E+04  0.18223894580E+04  0.91328497683E+02 0.  0.
         13    1    3    3    0    0  0.53098707722E+02 -0.91337864489E+02  0.17615570907E+03  0.20540913341E+03  0.00000000000E+00 0.  1.
        -13    1    3    3    0    0  0.20902027382E+03 -0.60713039028E+03  0.14840244554E+04  0.16169803246E+04  0.00000000000E+00 0. -1.
         22    1    1    2    0    0 -0.26211898154E+03  0.69846825477E+03  0.11022047496E+04  0.13309468710E+04  0.00000000000E+00 0.  1.
<mgrwt>
<rscale>  0 0.15207760E+04</rscale>
<asrwt>0</asrwt>
<pdfrwt beam="1">  1        1 0.45505545E+00 0.15207760E+04</pdfrwt>
<pdfrwt beam="2">  1       -1 0.30073188E-01 0.15207760E+04</pdfrwt>
<totfact> 0.63297612E+00</totfact>
</mgrwt>
</event>
<event>
 6    1  0.1014650E-006  0.2729720E+04  0.7818608E-02  0.8325426E-01
         -2   -1    0    0    0  501 -0.00000000000E+00  0.00000000000E+00  0.59280348438E+03  0.59280348438E+03  0.00000000000E+00 0.  1.
          2   -1    0    0  501    0  0.00000000000E+00 -0.00000000000E+00 -0.31424289151E+04  0.31424289151E+04  0.00000000000E+00 0. -1.
         23    2    1    2    0    0  0.13004837418E+04  0.39047186044E+03 -0.14431973670E+04  0.19836875680E+04  0.92040700937E+02 0.  0.
         13    1    3    3    0    0  0.75159867431E+03  0.20835814718E+03 -0.76651805441E+03  0.10935554913E+04  0.00000000000E+00 0. -1.
        -13    1    3    3    0    0  0.54888506754E+03  0.18211371326E+03 -0.67667931256E+03  0.89013207670E+03  0.00000000000E+00 0.  1.
         22    1    1    2    0    0 -0.13004837418E+04 -0.39047186044E+03 -0.11064280638E+04  0.17515448315E+04  0.00000000000E+00 0. -1.
<mgrwt>
<rscale>  0 0.27297200E+04</rscale>
<asrwt>0</asrwt>
<pdfrwt beam="1">  1        2 0.48345062E+00 0.27297200E+04</pdfrwt>
<pdfrwt beam="2">  1       -2 0.91200533E-01 0.27297200E+04</pdfrwt>
<totfact> 0.12673446E+00</totfact>
</mgrwt>
</event>
<event>
 6    1  0.1014650E-006  0.1656278E+04  0.7818608E-02  0.8786701E-01
         -2   -1    0    0    0  501 -0.00000000000E+00  0.00000000000E+00  0.22285722791E+03  0.22285722791E+03  0.00000000000E+00 0.  1.
          2   -1    0    0  501    0  0.00000000000E+00 -0.00000000000E+00 -0.30773689635E+04  0.30773689635E+04  0.00000000000E+00 0. -1.
         23    2    1    2    0    0  0.63286231871E+03  0.42420206561E+03 -0.79738680936E+03  0.11065477580E+04  0.90333328252E+02 0.  0.
         13    1    3    3    0    0  0.61022676452E+03  0.38878535875E+03 -0.76865936422E+03  0.10556362904E+04  0.00000000000E+00 0.  1.
        -13    1    3    3    0    0  0.22635554185E+02  0.35416706860E+02 -0.28727445137E+02  0.50911467688E+02  0.00000000000E+00 0. -1.
         22    1    1    2    0    0 -0.63286231871E+03 -0.42420206561E+03 -0.20571249263E+04  0.21936784334E+04  0.00000000000E+00 0. -1.
<mgrwt>
<rscale>  0 0.16562777E+04</rscale>
<asrwt>0</asrwt>
<pdfrwt beam="1">  1        2 0.47344137E+00 0.16562777E+04</pdfrwt>
<pdfrwt beam="2">  1       -2 0.34285728E-01 0.16562777E+04</pdfrwt>
<totfact> 0.11908689E+01</totfact>
</mgrwt>
</event>
<event>
 6    1  0.1014650E-006  0.6795185E+04  0.7818608E-02  0.7598935E-01
         -1   -1    0    0    0  501 -0.00000000000E+00  0.00000000000E+00  0.28560836464E+04  0.28560836464E+04  0.00000000000E+00 0.  1.
          1   -1    0    0  501    0  0.00000000000E+00 -0.00000000000E+00 -0.40417709414E+04  0.40417709414E+04  0.00000000000E+00 0. -1.
         23    2    1    2    0    0 -0.13783723344E+04 -0.75454879107E+03 -0.36501331721E+04  0.39750566728E+04  0.91373998340E+02 0.  0.
         13    1    3    3    0    0 -0.56659637480E+03 -0.26770347764E+03 -0.15168740091E+04  0.16412200838E+04  0.00000000000E+00 0.  1.
        -13    1    3    3    0    0 -0.81177595960E+03 -0.48684531342E+03 -0.21332591630E+04  0.23338365890E+04  0.00000000000E+00 0. -1.
         22    1    1    2    0    0  0.13783723344E+04  0.75454879107E+03  0.24644458772E+04  0.29227979150E+04  0.00000000000E+00 0.  1.
<mgrwt>
<rscale>  0 0.67951853E+04</rscale>
<asrwt>0</asrwt>
<pdfrwt beam="1">  1        1 0.62181091E+00 0.67951853E+04</pdfrwt>
<pdfrwt beam="2">  1       -1 0.43939749E+00 0.67951853E+04</pdfrwt>
<totfact> 0.21225933E-04</totfact>
</mgrwt>
</event>
<event>
 6    1  0.1014650E-006  0.2902478E+04  0.7818608E-02  0.8272141E-01
         -2   -1    0    0    0  501 -0.00000000000E+00  0.00000000000E+00  0.17036917855E+04  0.17036917855E+04  0.00000000000E+00 0.  1.
          2   -1    0    0  501    0  0.00000000000E+00 -0.00000000000E+00 -0.12361945815E+04  0.12361945815E+04  0.00000000000E+00 0. -1.
         23    2    1    2    0    0  0.11132128746E+04  0.23930287787E+03  0.11431138305E+04  0.16158899178E+04  0.88781897912E+02 0.  0.
         11    1    3    3    0    0  0.34670804570E+03  0.49044022074E+02  0.30597769652E+03  0.46500982336E+03  0.00000000000E+00 0.  1.
        -11    1    3    3    0    0  0.76650482889E+03  0.19025885580E+03  0.83713613395E+03  0.11508800944E+04  0.00000000000E+00 0. -1.
         22    1    1    2    0    0 -0.11132128746E+04 -0.23930287787E+03 -0.67561662654E+03  0.13239964492E+04  0.00000000000E+00 0. -1.
<mgrwt>
<rscale>  0 0.29024779E+04</rscale>
<asrwt>0</asrwt>
<pdfrwt beam="1">  1        2 0.19018378E+00 0.29024779E+04</pdfrwt>
<pdfrwt beam="2">  1       -2 0.26210643E+00 0.29024779E+04</pdfrwt>
<totfact> 0.84232498E-01</totfact>
</mgrwt>
</event>
<event>
 6    1  0.1014650E-006  0.3611491E+04  0.7818608E-02  0.8087865E-01
         -1   -1    0    0    0  501 -0.00000000000E+00  0.00000000000E+00  0.18816821492E+04  0.18816821492E+04  0.00000000000E+00 0.  1.
          1   -1    0    0  501    0  0.00000000000E+00 -0.00000000000E+00 -0.17328731696E+04  0.17328731696E+04  0.00000000000E+00 0. -1.
         23    2    1    2    0    0  0.38343119668E+03 -0.12270603220E+04  0.13420801133E+04  0.18605335074E+04  0.87803104693E+02 0.  0.
         11    1    3    3    0    0  0.18852114242E+03 -0.49516741662E+03  0.51113894311E+03  0.73620242514E+03  0.00000000000E+00 0. -1.
        -11    1    3    3    0    0  0.19491005427E+03 -0.73189290541E+03  0.83094117014E+03  0.11243310822E+04  0.00000000000E+00 0.  1.
         22    1    1    2    0    0 -0.38343119668E+03  0.12270603220E+04 -0.11932711337E+04  0.17540218114E+04  0.00000000000E+00 0. -1.
<mgrwt>
<rscale>  0 0.36114908E+04</rscale>
<asrwt>0</asrwt>
<pdfrwt beam="1">  1        1 0.26659587E+00 0.36114908E+04</pdfrwt>
<pdfrwt beam="2">  1       -1 0.28948956E+00 0.36114908E+04</pdfrwt>
<totfact> 0.14132720E-01</totfact>
</mgrwt>
</event>
<event>
 6    1  0.1421568E-006  0.3226610E+04  0.7818608E-02  0.8181825E-01
          2   -1    0    0  501    0  0.00000000000E+00  0.00000000000E+00  0.14116367268E+04  0.14116367268E+04  0.00000000000E+00 0. -1.
         -2   -1    0    0    0  501 -0.00000000000E+00 -0.00000000000E+00 -0.18437840719E+04  0.18437840719E+04  0.00000000000E+00 0.  1.
         23    2    1    2    0    0  0.38552809133E+03  0.13779890744E+03  0.13568253894E+04  0.14201976807E+04  0.91465113056E+02 0.  0.
         13    1    3    3    0    0  0.25280539244E+03  0.13534117129E+03  0.92341776387E+03  0.96691683496E+03  0.00000000000E+00 0.  1.
        -13    1    3    3    0    0  0.13272269889E+03  0.24577361456E+01  0.43340762553E+03  0.45328084576E+03  0.00000000000E+00 0. -1.
         22    1    1    2    0    0 -0.38552809133E+03 -0.13779890744E+03 -0.17889727345E+04  0.18352231180E+04  0.00000000000E+00 0.  1.
<mgrwt>
<rscale>  0 0.32266102E+04</rscale>
<asrwt>0</asrwt>
<pdfrwt beam="1">  1        2 0.21717488E+00 0.32266102E+04</pdfrwt>
<pdfrwt beam="2">  1       -2 0.28365909E+00 0.32266102E+04</pdfrwt>
<totfact> 0.47894251E-01</totfact>
</mgrwt>
</event>
<event>
 6    1  0.1014650E-006  0.2600437E+04  0.7818608E-02  0.8368053E-01
          2   -1    0    0  501    0  0.00000000000E+00  0.00000000000E+00  0.11030495023E+04  0.11030495023E+04  0.00000000000E+00 0. -1.
         -2   -1    0    0    0  501 -0.00000000000E+00 -0.00000000000E+00 -0.15326310386E+04  0.15326310386E+04  0.00000000000E+00 0.  1.
         23    2    1    2    0    0 -0.11375093441E+04  0.41251543227E+03 -0.69291680220E+03  0.13973583082E+04  0.91542650943E+02 0.  0.
         11    1    3    3    0    0 -0.77838613444E+03  0.24661818265E+03 -0.43564826454E+03  0.92547010362E+03  0.00000000000E+00 0.  1.
        -11    1    3    3    0    0 -0.35912320968E+03  0.16589724962E+03 -0.25726853766E+03  0.47188820459E+03  0.00000000000E+00 0. -1.
         22    1    1    2    0    0  0.11375093441E+04 -0.41251543227E+03  0.26333526589E+03  0.12383222327E+04  0.00000000000E+00 0.  1.
<mgrwt>
<rscale>  0 0.26004368E+04</rscale>
<asrwt>0</asrwt>
<pdfrwt beam="1">  1        2 0.16969992E+00 0.26004368E+04</pdfrwt>
<pdfrwt beam="2">  1       -2 0.23578939E+00 0.26004368E+04</pdfrwt>
<totfact> 0.15093582E+00</totfact>
</mgrwt>
</event>
<event>
 6    1  0.1014650E-006  0.9491019E+03  0.7818608E-02  0.9366201E-01
         -2   -1    0    0    0  501 -0.00000000000E+00  0.00000000000E+00  0.96463980733E+03  0.96463980733E+03  0.00000000000E+00 0.  1.
          2   -1    0    0  501    0  0.00000000000E+00 -0.00000000000E+00 -0.23345358518E+03  0.23345358518E+03  0.00000000000E+00 0. -1.
         23    2    1    2    0    0  0.34505991390E+03  0.30371804332E+03  0.49827797881E+03  0.68277092663E+03  0.81143083858E+02 0.  0.
         13    1    3    3    0    0  0.14060995236E+03  0.16922367221E+03  0.26795291301E+03  0.34670819651E+03  0.00000000000E+00 0. -1.
        -13    1    3    3    0    0  0.20444996154E+03  0.13449437111E+03  0.23032506580E+03  0.33606273011E+03  0.00000000000E+00 0.  1.
         22    1    1    2    0    0 -0.34505991390E+03 -0.30371804332E+03  0.23290824334E+03  0.51532246588E+03  0.00000000000E+00 0. -1.
<mgrwt>
<rscale>  0 0.94910194E+03</rscale>
<asrwt>0</asrwt>
<pdfrwt beam="1">  1        2 0.35915937E-01 0.94910194E+03</pdfrwt>
<pdfrwt beam="2">  1       -2 0.14840612E+00 0.94910194E+03</pdfrwt>
<totfact> 0.44802900E+01</totfact>
</mgrwt>
</event>
<event>
 6    1  0.1014650E-006  0.1805951E+04  0.7818608E-02  0.8703141E-01
         -1   -1    0    0    0  501 -0.00000000000E+00  0.00000000000E+00  0.32628705285E+03  0.32628705285E+03  0.00000000000E+00 0.  1.
          1   -1    0    0  501    0  0.00000000000E+00 -0.00000000000E+00 -0.24989188194E+04  0.24989188194E+04  0.00000000000E+00 0. -1.
         23    2    1    2    0    0 -0.81360255674E+03 -0.37797705463E+03 -0.96253080998E+03  0.13188327115E+04  0.89657050527E+02 0.  0.
         13    1    3    3    0    0 -0.25989806361E+03 -0.12777778765E+03 -0.37298523491E+03  0.47222044847E+03  0.00000000000E+00 0. -1.
        -13    1    3    3    0    0 -0.55370449313E+03 -0.25019926698E+03 -0.58954557506E+03  0.84661226307E+03  0.00000000000E+00 0.  1.
         22    1    1    2    0    0  0.81360255674E+03  0.37797705463E+03 -0.12101009565E+04  0.15063731607E+04  0.00000000000E+00 0. -1.
<mgrwt>
<rscale>  0 0.18059511E+04</rscale>
<asrwt>0</asrwt>
<pdfrwt beam="1">  1        1 0.38444905E+00 0.18059511E+04</pdfrwt>
<pdfrwt beam="2">  1       -1 0.50198008E-01 0.18059511E+04</pdfrwt>
<totfact> 0.51042642E+00</totfact>
</mgrwt>
</event>
<event>
 6    1  0.1014650E-006  0.3004509E+04  0.7818608E-02  0.8242445E-01
          2   -1    0    0  501    0  0.00000000000E+00  0.00000000000E+00  0.27107976371E+04  0.27107976371E+04  0.00000000000E+00 0. -1.
         -2   -1    0    0    0  501 -0.00000000000E+00 -0.00000000000E+00 -0.83251070408E+03  0.83251070408E+03  0.00000000000E+00 0.  1.
         23    2    1    2    0    0 -0.62291989518E+03  0.73916712308E+03 -0.41248765750E+03  0.10569363947E+04  0.11212155558E+03 0.  0.
         11    1    3    3    0    0 -0.45865898132E+03  0.58129757836E+03 -0.26959696495E+03  0.78800854010E+03  0.00000000000E+00 0. -1.
        -11    1    3    3    0    0 -0.16426091385E+03  0.15786954472E+03 -0.14289069255E+03  0.26892785461E+03  0.00000000000E+00 0.  1.
         22    1    1    2    0    0  0.62291989518E+03 -0.73916712308E+03  0.22907745905E+04  0.24863719465E+04  0.00000000000E+00 0. -1.
<mgrwt>
<rscale>  0 0.30045086E+04</rscale>
<asrwt>0</asrwt>
<pdfrwt beam="1">  1        2 0.41704579E+00 0.30045086E+04</pdfrwt>
<pdfrwt beam="2">  1       -2 0.12807857E+00 0.30045086E+04</pdfrwt>
<totfact> 0.10092905E+00</totfact>
</mgrwt>
</event>
<event>
 6    1  0.1014650E-006  0.4502343E+04  0.7818608E-02  0.7910227E-01
          1   -1    0    0  501    0  0.00000000000E+00  0.00000000000E+00  0.16663490454E+04  0.16663490454E+04  0.00000000000E+00 0. -1.
         -1   -1    0    0    0  501 -0.00000000000E+00 -0.00000000000E+00 -0.30412433256E+04  0.30412433256E+04  0.00000000000E+00 0.  1.
         23    2    1    2    0    0  0.13544294269E+04 -0.17152860293E+04 -0.12773909092E+03  0.21912296584E+04  0.92113548177E+02 0.  0.
         13    1    3    3    0    0  0.88905691233E+03 -0.11847686290E+04 -0.63566866801E+02  0.14826124390E+04  0.00000000000E+00 0. -1.
        -13    1    3    3    0    0  0.46537251457E+03 -0.53051740036E+03 -0.64172224122E+02  0.70861721948E+03  0.00000000000E+00 0.  1.
         22    1    1    2    0    0 -0.13544294269E+04  0.17152860293E+04 -0.12471551892E+04  0.25163627125E+04  0.00000000000E+00 0.  1.
<mgrwt>
<rscale>  0 0.45023429E+04</rscale>
<asrwt>0</asrwt>
<pdfrwt beam="1">  1        1 0.25636139E+00 0.45023429E+04</pdfrwt>
<pdfrwt beam="2">  1       -1 0.46788358E+00 0.45023429E+04</pdfrwt>
<totfact> 0.92260084E-03</totfact>
</mgrwt>
</event>
<event>
 6    1  0.1014650E-006  0.2678912E+04  0.7818608E-02  0.8341880E-01
          1   -1    0    0  501    0  0.00000000000E+00  0.00000000000E+00  0.89767420885E+03  0.89767420885E+03  0.00000000000E+00 0. -1.
         -1   -1    0    0    0  501 -0.00000000000E+00 -0.00000000000E+00 -0.19986565065E+04  0.19986565065E+04  0.00000000000E+00 0.  1.
         23    2    1    2    0    0 -0.56059984060E+03  0.39822747881E+03 -0.17919228007E+04  0.19215199209E+04  0.91619738379E+02 0.  0.
         13    1    3    3    0    0 -0.12905409329E+03  0.11950778576E+03 -0.55337491087E+03  0.58065554491E+03  0.00000000000E+00 0.  1.
        -13    1    3    3    0    0 -0.43154574731E+03  0.27871969305E+03 -0.12385478899E+04  0.13408643760E+04  0.00000000000E+00 0. -1.
         22    1    1    2    0    0  0.56059984060E+03 -0.39822747881E+03  0.69094050308E+03  0.97481079445E+03  0.00000000000E+00 0. -1.
<mgrwt>
<rscale>  0 0.26789120E+04</rscale>
<asrwt>0</asrwt>
<pdfrwt beam="1">  1        1 0.13810372E+00 0.26789120E+04</pdfrwt>
<pdfrwt beam="2">  1       -1 0.30748562E+00 0.26789120E+04</pdfrwt>
<totfact> 0.47206680E-01</totfact>
</mgrwt>
</event>
<event>
 6    1  0.1014650E-006  0.3296050E+04  0.7818608E-02  0.8163901E-01
         -1   -1    0    0    0  501 -0.00000000000E+00  0.00000000000E+00  0.99148560482E+03  0.99148560482E+03  0.00000000000E+00 0.  1.
          1   -1    0    0  501    0  0.00000000000E+00 -0.00000000000E+00 -0.27393103317E+04  0.27393103317E+04  0.00000000000E+00 0. -1.
         23    2    1    2    0    0 -0.13886162004E+04 -0.13031683652E+03 -0.18656258730E+04  0.23311122079E+04  0.91031852169E+02 0.  0.
         11    1    3    3    0    0 -0.74232493954E+03 -0.51415137088E+02 -0.10641979458E+04  0.12985403729E+04  0.00000000000E+00 0. -1.
        -11    1    3    3    0    0 -0.64629126087E+03 -0.78901699432E+02 -0.80142792716E+03  0.10325718350E+04  0.00000000000E+00 0.  1.
         22    1    1    2    0    0  0.13886162004E+04  0.13031683652E+03  0.11780114614E+03  0.13996837285E+04  0.00000000000E+00 0.  1.
<mgrwt>
<rscale>  0 0.32960502E+04</rscale>
<asrwt>0</asrwt>
<pdfrwt beam="1">  1        1 0.42143235E+00 0.32960502E+04</pdfrwt>
<pdfrwt beam="2">  1       -1 0.15253625E+00 0.32960502E+04</pdfrwt>
<totfact> 0.25455259E-01</totfact>
</mgrwt>
</event>
<event>
 6    1  0.1014650E-006  0.3258164E+04  0.7818608E-02  0.8173623E-01
         -2   -1    0    0    0  501 -0.00000000000E+00  0.00000000000E+00  0.85478919880E+03  0.85478919880E+03  0.00000000000E+00 0.  1.
          2   -1    0    0  501    0  0.00000000000E+00 -0.00000000000E+00 -0.31047518739E+04  0.31047518739E+04  0.00000000000E+00 0. -1.
         23    2    1    2    0    0 -0.81633424309E+03  0.69726617189E+03 -0.26128385102E+04  0.28262888578E+04  0.91661968483E+02 0.  0.
         13    1    3    3    0    0 -0.54349018178E+03  0.40626109434E+03 -0.16350253534E+04  0.17702365833E+04  0.00000000000E+00 0. -1.
        -13    1    3    3    0    0 -0.27284406131E+03  0.29100507755E+03 -0.97781315680E+03  0.10560522745E+04  0.00000000000E+00 0.  1.
         22    1    1    2    0    0  0.81633424309E+03 -0.69726617189E+03  0.36287583508E+03  0.11332522149E+04  0.00000000000E+00 0.  1.
<mgrwt>
<rscale>  0 0.32581641E+04</rscale>
<asrwt>0</asrwt>
<pdfrwt beam="1">  1        2 0.47765413E+00 0.32581641E+04</pdfrwt>
<pdfrwt beam="2">  1       -2 0.13150603E+00 0.32581641E+04</pdfrwt>
<totfact> 0.52777090E-01</totfact>
</mgrwt>
</event>
<event>
 6    1  0.1014650E-006  0.1143973E+04  0.7818608E-02  0.9163362E-01
         -2   -1    0    0    0  501 -0.00000000000E+00  0.00000000000E+00  0.88319406738E+03  0.88319406738E+03  0.00000000000E+00 0.  1.
          2   -1    0    0  501    0  0.00000000000E+00 -0.00000000000E+00 -0.37043768891E+03  0.37043768891E+03  0.00000000000E+00 0. -1.
         23    2    1    2    0    0  0.20622207783E+03  0.51937955939E+03  0.14286291184E+03  0.58347964762E+03  0.88068243509E+02 0.  0.
         13    1    3    3    0    0  0.13713473215E+03  0.43571933007E+03  0.10641213935E+03  0.46902112186E+03  0.00000000000E+00 0.  1.
        -13    1    3    3    0    0  0.69087345676E+02  0.83660229322E+02  0.36450772494E+02  0.11445852576E+03  0.00000000000E+00 0. -1.
         22    1    1    2    0    0 -0.20622207783E+03 -0.51937955939E+03  0.36989346663E+03  0.67015210867E+03  0.00000000000E+00 0.  1.
<mgrwt>
<rscale>  0 0.11439727E+04</rscale>
<asrwt>0</asrwt>
<pdfrwt beam="1">  1        2 0.56990414E-01 0.11439727E+04</pdfrwt>
<pdfrwt beam="2">  1       -2 0.13587601E+00 0.11439727E+04</pdfrwt>
<totfact> 0.33288268E+01</totfact>
</mgrwt>
</event>
<event>
 6    1  0.1014650E-006  0.2411375E+04  0.7818608E-02  0.8435257E-01
         -1   -1    0    0    0  501 -0.00000000000E+00  0.00000000000E+00  0.11515583479E+04  0.11515583479E+04  0.00000000000E+00 0.  1.
          1   -1    0    0  501    0  0.00000000000E+00 -0.00000000000E+00 -0.12623606681E+04  0.12623606681E+04  0.00000000000E+00 0. -1.
         23    2    1    2    0    0  0.26252039585E+03 -0.11142873706E+04  0.31768671196E+03  0.11915622132E+04  0.91336512427E+02 0.  0.
         11    1    3    3    0    0  0.28203470917E+02 -0.26743832629E+03  0.93902248632E+02  0.28484438987E+03  0.00000000000E+00 0. -1.
        -11    1    3    3    0    0  0.23431692494E+03 -0.84684904432E+03  0.22378446332E+03  0.90671782336E+03  0.00000000000E+00 0.  1.
         22    1    1    2    0    0 -0.26252039585E+03  0.11142873706E+04 -0.42848903217E+03  0.12223568027E+04  0.00000000000E+00 0. -1.
<mgrwt>
<rscale>  0 0.24113747E+04</rscale>
<asrwt>0</asrwt>
<pdfrwt beam="1">  1        1 0.19420933E+00 0.24113747E+04</pdfrwt>
<pdfrwt beam="2">  1       -1 0.17716282E+00 0.24113747E+04</pdfrwt>
<totfact> 0.18802447E+00</totfact>
</mgrwt>
</event>
<event>
 6    1  0.1014650E-006  0.1587666E+04  0.7818608E-02  0.8828161E-01
         -3   -1    0    0    0  501 -0.00000000000E+00  0.00000000000E+00  0.41914302555E+03  0.41914302555E+03  0.00000000000E+00 0.  1.
          3   -1    0    0  501    0  0.00000000000E+00 -0.00000000000E+00 -0.15034737589E+04  0.15034737589E+04  0.00000000000E+00 0. -1.
         23    2    1    2    0    0 -0.18748981639E+03  0.20487305363E+03 -0.14411102076E+04  0.14704918099E+04  0.91772182003E+02 0.  0.
         13    1    3    3    0    0 -0.12593273700E+03  0.89205456888E+02 -0.61570357315E+03  0.63474999628E+03  0.00000000000E+00 0.  1.
        -13    1    3    3    0    0 -0.61557079387E+02  0.11566759674E+03 -0.82540663441E+03  0.83574181366E+03  0.00000000000E+00 0. -1.
         22    1    1    2    0    0  0.18748981639E+03 -0.20487305363E+03  0.35677947422E+03  0.45212497451E+03  0.00000000000E+00 0.  1.
<mgrwt>
<rscale>  0 0.15876656E+04</rscale>
<asrwt>0</asrwt>
<pdfrwt beam="1">  1        3 0.23130365E+00 0.15876656E+04</pdfrwt>
<pdfrwt beam="2">  1       -3 0.64483543E-01 0.15876656E+04</pdfrwt>
<totfact> 0.55641500E-01</totfact>
</mgrwt>
</event>
<event>
 6    1  0.1014650E-006  0.3285148E+04  0.7818608E-02  0.8166685E-01
          2   -1    0    0  501    0  0.00000000000E+00  0.00000000000E+00  0.45301761258E+04  0.45301761258E+04  0.00000000000E+00 0. -1.
         -2   -1    0    0    0  501 -0.00000000000E+00 -0.00000000000E+00 -0.59557257081E+03  0.59557257081E+03  0.00000000000E+00 0.  1.
         23    2    1    2    0    0 -0.12250824959E+04 -0.29936407754E+03  0.36079128248E+04  0.38229928461E+04  0.88280106092E+02 0.  0.
         13    1    3    3    0    0 -0.69754992281E+03 -0.21506906283E+03  0.20977907884E+04  0.22211611352E+04  0.00000000000E+00 0.  1.
        -13    1    3    3    0    0 -0.52753257312E+03 -0.84295014712E+02  0.15101220365E+04  0.16018317110E+04  0.00000000000E+00 0. -1.
         22    1    1    2    0    0  0.12250824959E+04  0.29936407754E+03  0.32669073012E+03  0.13027558505E+04  0.00000000000E+00 0.  1.
<mgrwt>
<rscale>  0 0.32851476E+04</rscale>
<asrwt>0</asrwt>
<pdfrwt beam="1">  1        2 0.69695015E+00 0.32851476E+04</pdfrwt>
<pdfrwt beam="2">  1       -2 0.91626552E-01 0.32851476E+04</pdfrwt>
<totfact> 0.97098175E-02</totfact>
</mgrwt>
</event>
<event>
 6    1  0.1014650E-006  0.1305333E+04  0.7818608E-02  0.9025347E-01
         -1   -1    0    0    0  501 -0.00000000000E+00  0.00000000000E+00  0.65173730169E+03  0.65173730169E+03  0.00000000000E+00 0.  1.
          1   -1    0    0  501    0  0.00000000000E+00 -0.00000000000E+00 -0.65359653619E+03  0.65359653619E+03  0.00000000000E+00 0. -1.
         23    2    1    2    0    0  0.56137834106E+03  0.16766262899E+03  0.28021358085E+03  0.65508659865E+03  0.85804439725E+02 0.  0.
         11    1    3    3    0    0  0.87156445287E+02  0.48748579195E+02  0.74859188679E+02  0.12480612188E+03  0.00000000000E+00 0. -1.
        -11    1    3    3    0    0  0.47422189577E+03  0.11891404979E+03  0.20535439217E+03  0.53028047678E+03  0.00000000000E+00 0.  1.
         22    1    1    2    0    0 -0.56137834106E+03 -0.16766262899E+03 -0.28207281535E+03  0.65024723923E+03  0.00000000000E+00 0. -1.
<mgrwt>
<rscale>  0 0.13053325E+04</rscale>
<asrwt>0</asrwt>
<pdfrwt beam="1">  1        1 0.10055331E+00 0.13053325E+04</pdfrwt>
<pdfrwt beam="2">  1       -1 0.10026728E+00 0.13053325E+04</pdfrwt>
<totfact> 0.28118915E+01</totfact>
</mgrwt>
</event>
<event>
 6    1  0.1014650E-006  0.3820922E+04  0.7818608E-02  0.8041680E-01
         -2   -1    0    0    0  501 -0.00000000000E+00  0.00000000000E+00  0.17174136727E+04  0.17174136727E+04  0.00000000000E+00 0.  1.
          2   -1    0    0  501    0  0.00000000000E+00 -0.00000000000E+00 -0.21252079090E+04  0.21252079090E+04  0.00000000000E+00 0. -1.
         23    2    1    2    0    0  0.15002188285E+04  0.55424707474E+03  0.84490375633E+03  0.18110954032E+04  0.91421271250E+02 0.  0.
         11    1    3    3    0    0  0.57263298070E+03  0.22987916957E+03  0.37257900970E+03  0.72081071139E+03  0.00000000000E+00 0.  1.
        -11    1    3    3    0    0  0.92758584778E+03  0.32436790517E+03  0.47232474663E+03  0.10902846918E+04  0.00000000000E+00 0. -1.
         22    1    1    2    0    0 -0.15002188285E+04 -0.55424707474E+03 -0.12526979926E+04  0.20315261785E+04  0.00000000000E+00 0. -1.
<mgrwt>
<rscale>  0 0.38209219E+04</rscale>
<asrwt>0</asrwt>
<pdfrwt beam="1">  1        2 0.32695506E+00 0.38209219E+04</pdfrwt>
<pdfrwt beam="2">  1       -2 0.26421749E+00 0.38209219E+04</pdfrwt>
<totfact> 0.23939345E-01</totfact>
</mgrwt>
</event>
<event>
 6    1  0.1014650E-006  0.1772561E+04  0.7818608E-02  0.8721029E-01
         -2   -1    0    0    0  501 -0.00000000000E+00  0.00000000000E+00  0.50193709771E+03  0.50193709771E+03  0.00000000000E+00 0.  1.
          2   -1    0    0  501    0  0.00000000000E+00 -0.00000000000E+00 -0.15649237848E+04  0.15649237848E+04  0.00000000000E+00 0. -1.
         23    2    1    2    0    0 -0.11742415145E+02 -0.68993121796E+03 -0.11776325428E+04  0.13673706095E+04  0.82103641502E+02 0.  0.
         11    1    3    3    0    0 -0.40214977285E+02 -0.21152754030E+03 -0.34573490046E+03  0.40730058446E+03  0.00000000000E+00 0.  1.
        -11    1    3    3    0    0  0.28472562140E+02 -0.47840367766E+03 -0.83189764237E+03  0.96007002504E+03  0.00000000000E+00 0. -1.
         22    1    1    2    0    0  0.11742415145E+02  0.68993121796E+03  0.11464585571E+03  0.69949027303E+03  0.00000000000E+00 0.  1.
<mgrwt>
<rscale>  0 0.17725612E+04</rscale>
<asrwt>0</asrwt>
<pdfrwt beam="1">  1        2 0.24075750E+00 0.17725612E+04</pdfrwt>
<pdfrwt beam="2">  1       -2 0.77221094E-01 0.17725612E+04</pdfrwt>
<totfact> 0.16518838E+01</totfact>
</mgrwt>
</event>
<event>
 6    1  0.1014650E-006  0.2149766E+04  0.7818608E-02  0.8539632E-01
          2   -1    0    0  501    0  0.00000000000E+00  0.00000000000E+00  0.13327164882E+04  0.13327164882E+04  0.00000000000E+00 0. -1.
         -2   -1    0    0    0  501 -0.00000000000E+00 -0.00000000000E+00 -0.86693135378E+03  0.86693135378E+03  0.00000000000E+00 0.  1.
         23    2    1    2    0    0 -0.10289107482E+04 -0.29540390871E+03  0.15726075908E+03  0.10855975347E+04  0.88714507489E+02 0.  0.
         13    1    3    3    0    0 -0.90071338655E+03 -0.25109580003E+03  0.10792760700E+03  0.94126620775E+03  0.00000000000E+00 0. -1.
        -13    1    3    3    0    0 -0.12819736167E+03 -0.44308108675E+02  0.49333152084E+02  0.14433132691E+03  0.00000000000E+00 0.  1.
         22    1    1    2    0    0  0.10289107482E+04  0.29540390871E+03  0.30852437534E+03  0.11140503073E+04  0.00000000000E+00 0. -1.
<mgrwt>
<rscale>  0 0.21497662E+04</rscale>
<asrwt>0</asrwt>
<pdfrwt beam="1">  1        2 0.20503331E+00 0.21497662E+04</pdfrwt>
<pdfrwt beam="2">  1       -2 0.13337405E+00 0.21497662E+04</pdfrwt>
<totfact> 0.59101892E+00</totfact>
</mgrwt>
</event>
<event>
 6    1  0.1014650E-006  0.3085754E+04  0.7818608E-02  0.8219658E-01
          2   -1    0    0  501    0  0.00000000000E+00  0.00000000000E+00  0.10244670011E+04  0.10244670011E+04  0.00000000000E+00 0. -1.
         -2   -1    0    0    0  501 -0.00000000000E+00 -0.00000000000E+00 -0.23236175547E+04  0.23236175547E+04  0.00000000000E+00 0.  1.
         23    2    1    2    0    0  0.78057792601E+03 -0.12821920272E+04 -0.26955546873E+03  0.15278141550E+04  0.90761491591E+02 0.  0.
         11    1    3    3    0    0  0.20444597010E+03 -0.26405072719E+03 -0.54508900864E+02  0.33836690366E+03  0.00000000000E+00 0. -1.
        -11    1    3    3    0    0  0.57613195591E+03 -0.10181413000E+04 -0.21504656787E+03  0.11894472513E+04  0.00000000000E+00 0.  1.
         22    1    1    2    0    0 -0.78057792601E+03  0.12821920272E+04 -0.10295950849E+04  0.18202704008E+04  0.00000000000E+00 0.  1.
<mgrwt>
<rscale>  0 0.30857540E+04</rscale>
<asrwt>0</asrwt>
<pdfrwt beam="1">  1        2 0.15761031E+00 0.30857540E+04</pdfrwt>
<pdfrwt beam="2">  1       -2 0.35747962E+00 0.30857540E+04</pdfrwt>
<totfact> 0.28803813E-01</totfact>
</mgrwt>
</event>
<event>
 6    1  0.1014650E-006  0.2940819E+04  0.7818608E-02  0.8260835E-01
         -2   -1    0    0    0  501 -0.00000000000E+00  0.00000000000E+00  0.13566215678E+04  0.13566215678E+04  0.00000000000E+00 0.  1.
          2   -1    0    0  501    0  0.00000000000E+00 -0.00000000000E+00 -0.15937415983E+04  0.15937415983E+04  0.00000000000E+00 0. -1.
         23    2    1    2    0    0 -0.12768101393E+04 -0.53082671470E+03 -0.61586340900E+03  0.15166729347E+04  0.94804638515E+02 0.  0.
         13    1    3    3    0    0 -0.39387151655E+03 -0.21018240023E+03 -0.21058603878E+03  0.49361715189E+03  0.00000000000E+00 0.  1.
        -13    1    3    3    0    0 -0.88293862272E+03 -0.32064431447E+03 -0.40527737023E+03  0.10230557828E+04  0.00000000000E+00 0. -1.
         22    1    1    2    0    0  0.12768101393E+04  0.53082671470E+03  0.37874337848E+03  0.14336902314E+04  0.00000000000E+00 0.  1.
<mgrwt>
<rscale>  0 0.29408191E+04</rscale>
<asrwt>0</asrwt>
<pdfrwt beam="1">  1        2 0.24519102E+00 0.29408191E+04</pdfrwt>
<pdfrwt beam="2">  1       -2 0.20871101E+00 0.29408191E+04</pdfrwt>
<totfact> 0.11288441E+00</totfact>
</mgrwt>
</event>
<event>
 6    1  0.1014650E-006  0.2527657E+04  0.7818608E-02  0.8393198E-01
          2   -1    0    0  501    0  0.00000000000E+00  0.00000000000E+00  0.17025250500E+04  0.17025250500E+04  0.00000000000E+00 0. -1.
         -2   -1    0    0    0  501 -0.00000000000E+00 -0.00000000000E+00 -0.93817283621E+03  0.93817283621E+03  0.00000000000E+00 0.  1.
         23    2    1    2    0    0 -0.79121015995E+03  0.89768442255E+03  0.80215444790E+03  0.14435012238E+04  0.91614328187E+02 0.  0.
         13    1    3    3    0    0 -0.33430422517E+03  0.32849384947E+03  0.27840730244E+03  0.54514048662E+03  0.00000000000E+00 0. -1.
        -13    1    3    3    0    0 -0.45690593478E+03  0.56919057308E+03  0.52374714546E+03  0.89836073718E+03  0.00000000000E+00 0.  1.
         22    1    1    2    0    0  0.79121015995E+03 -0.89768442255E+03 -0.37802234064E+02  0.11971966625E+04  0.00000000000E+00 0.  1.
<mgrwt>
<rscale>  0 0.25276572E+04</rscale>
<asrwt>0</asrwt>
<pdfrwt beam="1">  1        2 0.26192693E+00 0.25276572E+04</pdfrwt>
<pdfrwt beam="2">  1       -2 0.14433428E+00 0.25276572E+04</pdfrwt>
<totfact> 0.28853921E+00</totfact>
</mgrwt>
</event>
<event>
 6    1  0.1014650E-006  0.7495263E+03  0.7818608E-02  0.9636094E-01
          1   -1    0    0  501    0  0.00000000000E+00  0.00000000000E+00  0.31145942731E+03  0.31145942731E+03  0.00000000000E+00 0. -1.
         -1   -1    0    0    0  501 -0.00000000000E+00 -0.00000000000E+00 -0.45093325495E+03  0.45093325495E+03  0.00000000000E+00 0.  1.
         23    2    1    2    0    0  0.22969334570E+03  0.17000674270E+03 -0.30936171081E+03  0.42994235745E+03  0.86512640673E+02 0.  0.
         11    1    3    3    0    0  0.15805006492E+03  0.69106631873E+02 -0.20616596769E+03  0.26881211993E+03  0.00000000000E+00 0. -1.
        -11    1    3    3    0    0  0.71643280780E+02  0.10090011082E+03 -0.10319574312E+03  0.16113023752E+03  0.00000000000E+00 0.  1.
         22    1    1    2    0    0 -0.22969334570E+03 -0.17000674270E+03  0.16988788316E+03  0.33245032481E+03  0.00000000000E+00 0. -1.
<mgrwt>
<rscale>  0 0.74952629E+03</rscale>
<asrwt>0</asrwt>
<pdfrwt beam="1">  1        1 0.47916835E-01 0.74952629E+03</pdfrwt>
<pdfrwt beam="2">  1       -1 0.69374347E-01 0.74952629E+03</pdfrwt>
<totfact> 0.17785995E+02</totfact>
</mgrwt>
</event>
<event>
 6    1  0.1014650E-006  0.1320273E+04  0.7818608E-02  0.9013641E-01
         -2   -1    0    0    0  501 -0.00000000000E+00  0.00000000000E+00  0.22003325766E+03  0.22003325766E+03  0.00000000000E+00 0.  1.
          2   -1    0    0  501    0  0.00000000000E+00 -0.00000000000E+00 -0.19805189197E+04  0.19805189197E+04  0.00000000000E+00 0. -1.
         23    2    1    2    0    0 -0.65621157228E+03  0.11311200982E+02 -0.83688224739E+03  0.10675098841E+04  0.91999378796E+02 0.  0.
         13    1    3    3    0    0 -0.48504707406E+03 -0.99002965480E+01 -0.67263565161E+03  0.82934154589E+03  0.00000000000E+00 0. -1.
        -13    1    3    3    0    0 -0.17116449822E+03  0.21211497530E+02 -0.16424659578E+03  0.23816833816E+03  0.00000000000E+00 0.  1.
         22    1    1    2    0    0  0.65621157228E+03 -0.11311200982E+02 -0.92360341463E+03  0.11330422933E+04  0.00000000000E+00 0. -1.
<mgrwt>
<rscale>  0 0.13202727E+04</rscale>
<asrwt>0</asrwt>
<pdfrwt beam="1">  1        2 0.30469522E+00 0.13202727E+04</pdfrwt>
<pdfrwt beam="2">  1       -2 0.33851270E-01 0.13202727E+04</pdfrwt>
<totfact> 0.54786634E+01</totfact>
</mgrwt>
</event>
<event>
 6    1  0.1014650E-006  0.2777017E+04  0.7818608E-02  0.8310439E-01
         -1   -1    0    0    0  501 -0.00000000000E+00  0.00000000000E+00  0.11569137064E+04  0.11569137064E+04  0.00000000000E+00 0.  1.
          1   -1    0    0  501    0  0.00000000000E+00 -0.00000000000E+00 -0.16664647042E+04  0.16664647042E+04  0.00000000000E+00 0. -1.
         23    2    1    2    0    0 -0.20677100838E+03  0.71122407508E+03 -0.14472641325E+04  0.16284307725E+04  0.92840597311E+02 0.  0.
         11    1    3    3    0    0 -0.90219489612E+02  0.41743180942E+03 -0.75478682569E+03  0.86723239334E+03  0.00000000000E+00 0. -1.
        -11    1    3    3    0    0 -0.11655151877E+03  0.29379226566E+03 -0.69247730684E+03  0.76119837912E+03  0.00000000000E+00 0.  1.
         22    1    1    2    0    0  0.20677100838E+03 -0.71122407508E+03  0.93771313468E+03  0.11949476381E+04  0.00000000000E+00 0.  1.
<mgrwt>
<rscale>  0 0.27770170E+04</rscale>
<asrwt>0</asrwt>
<pdfrwt beam="1">  1        1 0.25637918E+00 0.27770170E+04</pdfrwt>
<pdfrwt beam="2">  1       -1 0.17798673E+00 0.27770170E+04</pdfrwt>
<totfact> 0.93784281E-01</totfact>
</mgrwt>
</event>
<event>
 6    1  0.1014650E-006  0.1612229E+04  0.7818608E-02  0.8813070E-01
          2   -1    0    0  501    0  0.00000000000E+00  0.00000000000E+00  0.44665601718E+03  0.44665601718E+03  0.00000000000E+00 0. -1.
         -2   -1    0    0    0  501 -0.00000000000E+00 -0.00000000000E+00 -0.14548576126E+04  0.14548576126E+04  0.00000000000E+00 0.  1.
         23    2    1    2    0    0  0.58803040679E+03  0.50980693879E+03 -0.27040971440E+03  0.82912389941E+03  0.92963179704E+02 0.  0.
         11    1    3    3    0    0  0.33407971244E+03  0.33687384617E+03 -0.19365656174E+03  0.51244131996E+03  0.00000000000E+00 0. -1.
        -11    1    3    3    0    0  0.25395069435E+03  0.17293309263E+03 -0.76753152661E+02  0.31668257945E+03  0.00000000000E+00 0.  1.
         22    1    1    2    0    0 -0.58803040679E+03 -0.50980693879E+03 -0.73779188106E+03  0.10723897304E+04  0.00000000000E+00 0.  1.
<mgrwt>
<rscale>  0 0.16122294E+04</rscale>
<asrwt>0</asrwt>
<pdfrwt beam="1">  1        2 0.68716311E-01 0.16122294E+04</pdfrwt>
<pdfrwt beam="2">  1       -2 0.22382425E+00 0.16122294E+04</pdfrwt>
<totfact> 0.62784953E+00</totfact>
</mgrwt>
</event>
<event>
 6    1  0.1014650E-006  0.4579058E+04  0.7818608E-02  0.7896940E-01
          2   -1    0    0  501    0  0.00000000000E+00  0.00000000000E+00  0.20273423978E+04  0.20273423978E+04  0.00000000000E+00 0. -1.
         -2   -1    0    0    0  501 -0.00000000000E+00 -0.00000000000E+00 -0.25856234680E+04  0.25856234680E+04  0.00000000000E+00 0.  1.
         23    2    1    2    0    0  0.12204322406E+04 -0.90952579742E+03 -0.20011456564E+04  0.25156937698E+04  0.86250655115E+02 0.  0.
         13    1    3    3    0    0  0.73736220716E+03 -0.59709662614E+03 -0.12174257695E+04  0.15434872561E+04  0.00000000000E+00 0. -1.
        -13    1    3    3    0    0  0.48307003348E+03 -0.31242917128E+03 -0.78371988688E+03  0.97220651377E+03  0.00000000000E+00 0.  1.
         22    1    1    2    0    0 -0.12204322406E+04  0.90952579742E+03  0.14428645862E+04  0.20972720959E+04  0.00000000000E+00 0. -1.
<mgrwt>
<rscale>  0 0.45790585E+04</rscale>
<asrwt>0</asrwt>
<pdfrwt beam="1">  1        2 0.31189883E+00 0.45790585E+04</pdfrwt>
<pdfrwt beam="2">  1       -2 0.39778822E+00 0.45790585E+04</pdfrwt>
<totfact> 0.37277886E-02</totfact>
</mgrwt>
</event>
<event>
 6    1  0.1014650E-006  0.2024059E+04  0.7818608E-02  0.8595454E-01
          1   -1    0    0  501    0  0.00000000000E+00  0.00000000000E+00  0.56820448926E+03  0.56820448926E+03  0.00000000000E+00 0. -1.
         -1   -1    0    0    0  501 -0.00000000000E+00 -0.00000000000E+00 -0.18025267826E+04  0.18025267826E+04  0.00000000000E+00 0.  1.
         23    2    1    2    0    0 -0.35136861874E+03  0.12515358618E+03 -0.17178484572E+04  0.17600587922E+04  0.87637342811E+02 0.  0.
         13    1    3    3    0    0 -0.25888407988E+03  0.56348586836E+02 -0.12919254801E+04  0.13188129421E+04  0.00000000000E+00 0.  1.
        -13    1    3    3    0    0 -0.92484538859E+02  0.68804999340E+02 -0.42592297709E+03  0.44124585016E+03  0.00000000000E+00 0. -1.
         22    1    1    2    0    0  0.35136861874E+03 -0.12515358618E+03  0.48352616380E+03  0.61067247969E+03  0.00000000000E+00 0. -1.
<mgrwt>
<rscale>  0 0.20240591E+04</rscale>
<asrwt>0</asrwt>
<pdfrwt beam="1">  1        1 0.87416077E-01 0.20240591E+04</pdfrwt>
<pdfrwt beam="2">  1       -1 0.27731181E+00 0.20240591E+04</pdfrwt>
<totfact> 0.15888348E+00</totfact>
</mgrwt>
</event>
<event>
 6    1  0.1014650E-006  0.3174871E+04  0.7818608E-02  0.8195485E-01
         -2   -1    0    0    0  501 -0.00000000000E+00  0.00000000000E+00  0.83930029523E+03  0.83930029523E+03  0.00000000000E+00 0.  1.
          2   -1    0    0  501    0  0.00000000000E+00 -0.00000000000E+00 -0.30024440290E+04  0.30024440290E+04  0.00000000000E+00 0. -1.
         23    2    1    2    0    0 -0.10291921595E+04 -0.68287685503E+03 -0.22865737803E+04  0.26004577833E+04  0.91671858174E+02 0.  0.
         11    1    3    3    0    0 -0.67334316149E+03 -0.46798870513E+03 -0.14326064373E+04  0.16506864165E+04  0.00000000000E+00 0.  1.
        -11    1    3    3    0    0 -0.35584899803E+03 -0.21488814990E+03 -0.85396734302E+03  0.94977136687E+03  0.00000000000E+00 0. -1.
         22    1    1    2    0    0  0.10291921595E+04  0.68287685503E+03  0.12343004652E+03  0.12412865410E+04  0.00000000000E+00 0.  1.
<mgrwt>
<rscale>  0 0.31748714E+04</rscale>
<asrwt>0</asrwt>
<pdfrwt beam="1">  1        2 0.46191447E+00 0.31748714E+04</pdfrwt>
<pdfrwt beam="2">  1       -2 0.12912312E+00 0.31748714E+04</pdfrwt>
<totfact> 0.64635873E-01</totfact>
</mgrwt>
</event>
<event>
 6    1  0.1014650E-006  0.2072518E+04  0.7818608E-02  0.8573447E-01
         -2   -1    0    0    0  501 -0.00000000000E+00  0.00000000000E+00  0.94881983376E+03  0.94881983376E+03  0.00000000000E+00 0.  1.
          2   -1    0    0  501    0  0.00000000000E+00 -0.00000000000E+00 -0.11317561549E+04  0.11317561549E+04  0.00000000000E+00 0. -1.
         23    2    1    2    0    0 -0.84810975465E+03  0.17071627623E+02 -0.68567326034E+03  0.10945100545E+04  0.90679892872E+02 0.  0.
         13    1    3    3    0    0 -0.60691562616E+03 -0.17802678326E+01 -0.43937104601E+03  0.74926408074E+03  0.00000000000E+00 0.  1.
        -13    1    3    3    0    0 -0.24119412849E+03  0.18851895456E+02 -0.24630221433E+03  0.34524597372E+03  0.00000000000E+00 0. -1.
         22    1    1    2    0    0  0.84810975465E+03 -0.17071627623E+02  0.50273693925E+03  0.98606593414E+03  0.00000000000E+00 0.  1.
<mgrwt>
<rscale>  0 0.20725180E+04</rscale>
<asrwt>0</asrwt>
<pdfrwt beam="1">  1        2 0.17411633E+00 0.20725180E+04</pdfrwt>
<pdfrwt beam="2">  1       -2 0.14597228E+00 0.20725180E+04</pdfrwt>
<totfact> 0.61942193E+00</totfact>
</mgrwt>
</event>
<event>
 6    1  0.1014650E-006  0.8552063E+03  0.7818608E-02  0.9483376E-01
         -1   -1    0    0    0  501 -0.00000000000E+00  0.00000000000E+00  0.84681783150E+03  0.84681783150E+03  0.00000000000E+00 0.  1.
          1   -1    0    0  501    0  0.00000000000E+00 -0.00000000000E+00 -0.21591946326E+03  0.21591946326E+03  0.00000000000E+00 0. -1.
         23    2    1    2    0    0  0.11620335320E+03  0.11198020110E+03  0.80487197002E+03  0.82544085812E+03  0.86550201580E+02 0.  0.
         11    1    3    3    0    0  0.24229870386E+02  0.37242162095E+00  0.27882849713E+03  0.27987953861E+03  0.00000000000E+00 0. -1.
        -11    1    3    3    0    0  0.91973482813E+02  0.11160777948E+03  0.52604347289E+03  0.54556131951E+03  0.00000000000E+00 0.  1.
         22    1    1    2    0    0 -0.11620335320E+03 -0.11198020110E+03 -0.17397360178E+03  0.23729643665E+03  0.00000000000E+00 0. -1.
<mgrwt>
<rscale>  0 0.85520629E+03</rscale>
<asrwt>0</asrwt>
<pdfrwt beam="1">  1        1 0.33218379E-01 0.85520629E+03</pdfrwt>
<pdfrwt beam="2">  1       -1 0.13027966E+00 0.85520629E+03</pdfrwt>
<totfact> 0.68634267E+01</totfact>
</mgrwt>
</event>
<event>
 6    1  0.1014650E-006  0.2130516E+04  0.7818608E-02  0.8547919E-01
         -2   -1    0    0    0  501 -0.00000000000E+00  0.00000000000E+00  0.58603287697E+03  0.58603287697E+03  0.00000000000E+00 0.  1.
          2   -1    0    0  501    0  0.00000000000E+00 -0.00000000000E+00 -0.19363660170E+04  0.19363660170E+04  0.00000000000E+00 0. -1.
         23    2    1    2    0    0 -0.29970492014E+03  0.74122115052E+03  0.15363941997E+03  0.81911814953E+03  0.90097937787E+02 0.  0.
         13    1    3    3    0    0 -0.18519295034E+03  0.35467198796E+03  0.53120036322E+02  0.40362158782E+03  0.00000000000E+00 0.  1.
        -13    1    3    3    0    0 -0.11451196980E+03  0.38654916256E+03  0.10051938365E+03  0.41549656171E+03  0.00000000000E+00 0. -1.
         22    1    1    2    0    0  0.29970492014E+03 -0.74122115052E+03 -0.15039725600E+04  0.17032807444E+04  0.00000000000E+00 0. -1.
<mgrwt>
<rscale>  0 0.21305156E+04</rscale>
<asrwt>0</asrwt>
<pdfrwt beam="1">  1        2 0.29790246E+00 0.21305156E+04</pdfrwt>
<pdfrwt beam="2">  1       -2 0.90158905E-01 0.21305156E+04</pdfrwt>
<totfact> 0.70125159E+00</totfact>
</mgrwt>
</event>
<event>
 6    1  0.1014650E-006  0.4102172E+04  0.7818608E-02  0.7984247E-01
          2   -1    0    0  501    0  0.00000000000E+00  0.00000000000E+00  0.26984044779E+04  0.26984044779E+04  0.00000000000E+00 0. -1.
         -2   -1    0    0    0  501 -0.00000000000E+00 -0.00000000000E+00 -0.15590520476E+04  0.15590520476E+04  0.00000000000E+00 0.  1.
         23    2    1    2    0    0  0.11694142406E+04 -0.70613372074E+03 -0.10164942293E+04  0.17052360575E+04  0.91733285936E+02 0.  0.
         11    1    3    3    0    0  0.93376555342E+03 -0.56889081150E+03 -0.76682631707E+03  0.13355064450E+04  0.00000000000E+00 0. -1.
        -11    1    3    3    0    0  0.23564868722E+03 -0.13724290924E+03 -0.24966791223E+03  0.36972961244E+03  0.00000000000E+00 0.  1.
         22    1    1    2    0    0 -0.11694142406E+04  0.70613372074E+03  0.21558466596E+04  0.25522204680E+04  0.00000000000E+00 0. -1.
<mgrwt>
<rscale>  0 0.41021716E+04</rscale>
<asrwt>0</asrwt>
<pdfrwt beam="1">  1        2 0.41513915E+00 0.41021716E+04</pdfrwt>
<pdfrwt beam="2">  1       -2 0.23985416E+00 0.41021716E+04</pdfrwt>
<totfact> 0.15454299E-01</totfact>
</mgrwt>
</event>
<event>
 6    1  0.1014650E-006  0.3797412E+04  0.7818608E-02  0.8046710E-01
         -1   -1    0    0    0  501 -0.00000000000E+00  0.00000000000E+00  0.15953635187E+04  0.15953635187E+04  0.00000000000E+00 0.  1.
          1   -1    0    0  501    0  0.00000000000E+00 -0.00000000000E+00 -0.22597259644E+04  0.22597259644E+04  0.00000000000E+00 0. -1.
         23    2    1    2    0    0  0.61343592384E+02  0.37928631582E+03  0.15541536742E+04  0.16035489171E+04  0.91402083409E+02 0.  0.
         13    1    3    3    0    0  0.53337449534E+02  0.18082935646E+03  0.91600346553E+03  0.93520398232E+03  0.00000000000E+00 0. -1.
        -13    1    3    3    0    0  0.80061428499E+01  0.19845695936E+03  0.63815020868E+03  0.66834493481E+03  0.00000000000E+00 0.  1.
         22    1    1    2    0    0 -0.61343592384E+02 -0.37928631582E+03 -0.22185161199E+04  0.22515405659E+04  0.00000000000E+00 0. -1.
<mgrwt>
<rscale>  0 0.37974119E+04</rscale>
<asrwt>0</asrwt>
<pdfrwt beam="1">  1        1 0.34765015E+00 0.37974119E+04</pdfrwt>
<pdfrwt beam="2">  1       -1 0.24544054E+00 0.37974119E+04</pdfrwt>
<totfact> 0.11787038E-01</totfact>
</mgrwt>
</event>
<event>
 6    1  0.1014650E-006  0.6134495E+04  0.7818608E-02  0.7673946E-01
          2   -1    0    0  501    0  0.00000000000E+00  0.00000000000E+00  0.47194165847E+04  0.47194165847E+04  0.00000000000E+00 0. -1.
         -2   -1    0    0    0  501 -0.00000000000E+00 -0.00000000000E+00 -0.19934680726E+04  0.19934680726E+04  0.00000000000E+00 0.  1.
         23    2    1    2    0    0 -0.30164224787E+04  0.19675764966E+03  0.79860586226E+03  0.31278926305E+04  0.91776043392E+02 0.  0.
         11    1    3    3    0    0 -0.16669755964E+04  0.63722028316E+02  0.44890633972E+03  0.17275372753E+04  0.00000000000E+00 0. -1.
        -11    1    3    3    0    0 -0.13494468823E+04  0.13303562135E+03  0.34969952254E+03  0.14003553552E+04  0.00000000000E+00 0.  1.
         22    1    1    2    0    0  0.30164224787E+04 -0.19675764966E+03  0.19273426498E+04  0.35849920268E+04  0.00000000000E+00 0. -1.
<mgrwt>
<rscale>  0 0.61344947E+04</rscale>
<asrwt>0</asrwt>
<pdfrwt beam="1">  1        2 0.72606409E+00 0.61344947E+04</pdfrwt>
<pdfrwt beam="2">  1       -2 0.30668740E+00 0.61344947E+04</pdfrwt>
<totfact> 0.13864635E-03</totfact>
</mgrwt>
</event>
<event>
 6    1  0.1014650E-006  0.5073305E+04  0.7818608E-02  0.7817298E-01
         -2   -1    0    0    0  501 -0.00000000000E+00  0.00000000000E+00  0.26311564489E+04  0.26311564489E+04  0.00000000000E+00 0.  1.
          2   -1    0    0  501    0  0.00000000000E+00 -0.00000000000E+00 -0.24455424661E+04  0.24455424661E+04  0.00000000000E+00 0. -1.
         23    2    1    2    0    0 -0.12262372194E+03  0.10496743849E+04 -0.22138469472E+04  0.24548168341E+04  0.90302225329E+02 0.  0.
         11    1    3    3    0    0 -0.10418037999E+03  0.58135537863E+03 -0.12958565817E+04  0.14241038966E+04  0.00000000000E+00 0. -1.
        -11    1    3    3    0    0 -0.18443341955E+02  0.46831900628E+03 -0.91799036544E+03  0.10307129375E+04  0.00000000000E+00 0.  1.
         22    1    1    2    0    0  0.12262372194E+03 -0.10496743849E+04  0.23994609300E+04  0.26218820809E+04  0.00000000000E+00 0.  1.
<mgrwt>
<rscale>  0 0.50733046E+04</rscale>
<asrwt>0</asrwt>
<pdfrwt beam="1">  1        2 0.37623730E+00 0.50733046E+04</pdfrwt>
<pdfrwt beam="2">  1       -2 0.40479330E+00 0.50733046E+04</pdfrwt>
<totfact> 0.18722515E-02</totfact>
</mgrwt>
</event>
<event>
 6    1  0.1014650E-006  0.2154962E+04  0.7818608E-02  0.8537411E-01
         -2   -1    0    0    0  501 -0.00000000000E+00  0.00000000000E+00  0.59835172862E+03  0.59835172862E+03  0.00000000000E+00 0.  1.
          2   -1    0    0  501    0  0.00000000000E+00 -0.00000000000E+00 -0.19402731437E+04  0.19402731437E+04  0.00000000000E+00 0. -1.
         23    2    1    2    0    0  0.43746263496E+03  0.12002760089E+03  0.47742537079E+03  0.66357743045E+03  0.81362396510E+02 0.  0.
         13    1    3    3    0    0  0.10615745513E+03  0.40807924646E+02  0.17114111407E+03  0.20548472673E+03  0.00000000000E+00 0. -1.
        -13    1    3    3    0    0  0.33130517984E+03  0.79219676242E+02  0.30628425672E+03  0.45809270372E+03  0.00000000000E+00 0.  1.
         22    1    1    2    0    0 -0.43746263496E+03 -0.12002760089E+03 -0.18193467859E+04  0.18750474419E+04  0.00000000000E+00 0. -1.
<mgrwt>
<rscale>  0 0.21549624E+04</rscale>
<asrwt>0</asrwt>
<pdfrwt beam="1">  1        2 0.29850356E+00 0.21549624E+04</pdfrwt>
<pdfrwt beam="2">  1       -2 0.92054112E-01 0.21549624E+04</pdfrwt>
<totfact> 0.66360593E+00</totfact>
</mgrwt>
</event>
<event>
 6    1  0.1014650E-006  0.6382611E+03  0.7818608E-02  0.9829059E-01
         -2   -1    0    0    0  501 -0.00000000000E+00  0.00000000000E+00  0.20985011014E+03  0.20985011014E+03  0.00000000000E+00 0.  1.
          2   -1    0    0  501    0  0.00000000000E+00 -0.00000000000E+00 -0.48531924383E+03  0.48531924383E+03  0.00000000000E+00 0. -1.
         23    2    1    2    0    0 -0.30620907452E+03 -0.73656057566E+01 -0.20842084938E+03  0.38161916357E+03  0.91518774475E+02 0.  0.
         13    1    3    3    0    0 -0.12207070835E+03  0.16473643249E+02 -0.36241969884E+02  0.12839828324E+03  0.00000000000E+00 0.  1.
        -13    1    3    3    0    0 -0.18413836617E+03 -0.23839249005E+02 -0.17217887950E+03  0.25322088033E+03  0.00000000000E+00 0. -1.
         22    1    1    2    0    0  0.30620907452E+03  0.73656057566E+01 -0.67048284307E+02  0.31355019039E+03  0.00000000000E+00 0.  1.
<mgrwt>
<rscale>  0 0.63826106E+03</rscale>
<asrwt>0</asrwt>
<pdfrwt beam="1">  1        2 0.74664497E-01 0.63826106E+03</pdfrwt>
<pdfrwt beam="2">  1       -2 0.32284633E-01 0.63826106E+03</pdfrwt>
<totfact> 0.57317952E+02</totfact>
</mgrwt>
</event>
<event>
 6    1  0.1014650E-006  0.1853760E+04  0.7818608E-02  0.8678222E-01
         -2   -1    0    0    0  501 -0.00000000000E+00  0.00000000000E+00  0.64966868251E+03  0.64966868251E+03  0.00000000000E+00 0.  1.
          2   -1    0    0  501    0  0.00000000000E+00 -0.00000000000E+00 -0.13223766141E+04  0.13223766141E+04  0.00000000000E+00 0. -1.
         23    2    1    2    0    0  0.55479815593E+03 -0.23082235531E+03  0.41062559732E+03  0.73321863867E+03  0.88973239740E+02 0.  0.
         11    1    3    3    0    0  0.19362474877E+03 -0.51835845016E+02  0.98080112667E+02  0.22315287734E+03  0.00000000000E+00 0. -1.
        -11    1    3    3    0    0  0.36117340716E+03 -0.17898651029E+03  0.31254548466E+03  0.51006576133E+03  0.00000000000E+00 0.  1.
         22    1    1    2    0    0 -0.55479815593E+03  0.23082235531E+03 -0.10833335289E+04  0.12388266580E+04  0.00000000000E+00 0. -1.
<mgrwt>
<rscale>  0 0.18537601E+04</rscale>
<asrwt>0</asrwt>
<pdfrwt beam="1">  1        2 0.20344256E+00 0.18537601E+04</pdfrwt>
<pdfrwt beam="2">  1       -2 0.99949028E-01 0.18537601E+04</pdfrwt>
<totfact> 0.12473688E+01</totfact>
</mgrwt>
</event>
<event>
 6    1  0.1014650E-006  0.1580365E+04  0.7818608E-02  0.8832702E-01
          2   -1    0    0  501    0  0.00000000000E+00  0.00000000000E+00  0.20151571491E+04  0.20151571491E+04  0.00000000000E+00 0. -1.
         -2   -1    0    0    0  501 -0.00000000000E+00 -0.00000000000E+00 -0.30984594794E+03  0.30984594794E+03  0.00000000000E+00 0.  1.
         23    2    1    2    0    0 -0.47357025415E+03 -0.62821375978E+03  0.90782905895E+03  0.12047803153E+04  0.91764341018E+02 0.  0.
         13    1    3    3    0    0 -0.26871148671E+03 -0.42303417210E+03  0.54645412473E+03  0.74146873453E+03  0.00000000000E+00 0.  1.
        -13    1    3    3    0    0 -0.20485876743E+03 -0.20517958768E+03  0.36137493422E+03  0.46331158078E+03  0.00000000000E+00 0. -1.
         22    1    1    2    0    0  0.47357025415E+03  0.62821375978E+03  0.79748214222E+03  0.11202227817E+04  0.00000000000E+00 0. -1.
<mgrwt>
<rscale>  0 0.15803649E+04</rscale>
<asrwt>0</asrwt>
<pdfrwt beam="1">  1        2 0.31002417E+00 0.15803649E+04</pdfrwt>
<pdfrwt beam="2">  1       -2 0.47668609E-01 0.15803649E+04</pdfrwt>
<totfact> 0.26250341E+01</totfact>
</mgrwt>
</event>
<event>
 6    1  0.1014650E-006  0.1893939E+04  0.7818608E-02  0.8657879E-01
          1   -1    0    0  501    0  0.00000000000E+00  0.00000000000E+00  0.15141226654E+04  0.15141226654E+04  0.00000000000E+00 0. -1.
         -1   -1    0    0    0  501 -0.00000000000E+00 -0.00000000000E+00 -0.59225774590E+03  0.59225774590E+03  0.00000000000E+00 0.  1.
         23    2    1    2    0    0 -0.36396996588E+03  0.24329795941E+03  0.13933205875E+04  0.14629999018E+04  0.85781233457E+02 0.  0.
         11    1    3    3    0    0 -0.18809280525E+03  0.13731409802E+03  0.87569232514E+03  0.90612974414E+03  0.00000000000E+00 0.  1.
        -11    1    3    3    0    0 -0.17587716063E+03  0.10598386138E+03  0.51762826238E+03  0.55687015768E+03  0.00000000000E+00 0. -1.
         22    1    1    2    0    0  0.36396996588E+03 -0.24329795941E+03 -0.47145566800E+03  0.64338050950E+03  0.00000000000E+00 0.  1.
<mgrwt>
<rscale>  0 0.18939386E+04</rscale>
<asrwt>0</asrwt>
<pdfrwt beam="1">  1        1 0.23294195E+00 0.18939386E+04</pdfrwt>
<pdfrwt beam="2">  1       -1 0.91116577E-01 0.18939386E+04</pdfrwt>
<totfact> 0.70369315E+00</totfact>
</mgrwt>
</event>
<event>
 6    1  0.1014650E-006  0.1132489E+04  0.7818608E-02  0.9174092E-01
         -1   -1    0    0    0  501 -0.00000000000E+00  0.00000000000E+00  0.43535829586E+03  0.43535829586E+03  0.00000000000E+00 0.  1.
          1   -1    0    0  501    0  0.00000000000E+00 -0.00000000000E+00 -0.73648082415E+03  0.73648082415E+03  0.00000000000E+00 0. -1.
         23    2    1    2    0    0  0.27230710476E+03 -0.37122545173E+03  0.18158883783E+03  0.50477858431E+03  0.99334877259E+02 0.  0.
         11    1    3    3    0    0  0.14714623416E+03 -0.15380031659E+03  0.39591590146E+02  0.21650414690E+03  0.00000000000E+00 0. -1.
        -11    1    3    3    0    0  0.12516087060E+03 -0.21742513513E+03  0.14199724768E+03  0.28827443741E+03  0.00000000000E+00 0.  1.
         22    1    1    2    0    0 -0.27230710476E+03  0.37122545173E+03 -0.48271136612E+03  0.66706053570E+03  0.00000000000E+00 0. -1.
<mgrwt>
<rscale>  0 0.11324894E+04</rscale>
<asrwt>0</asrwt>
<pdfrwt beam="1">  1        1 0.11330474E+00 0.11324894E+04</pdfrwt>
<pdfrwt beam="2">  1       -1 0.66978199E-01 0.11324894E+04</pdfrwt>
<totfact> 0.56593401E+01</totfact>
</mgrwt>
</event>
<event>
 6    1  0.1014650E-006  0.2037205E+04  0.7818608E-02  0.8589421E-01
          1   -1    0    0  501    0  0.00000000000E+00  0.00000000000E+00  0.14793242089E+04  0.14793242089E+04  0.00000000000E+00 0. -1.
         -1   -1    0    0    0  501 -0.00000000000E+00 -0.00000000000E+00 -0.70136818108E+03  0.70136818108E+03  0.00000000000E+00 0.  1.
         23    2    1    2    0    0  0.27014020645E+03 -0.75611591839E+03 -0.27754650480E+03  0.85450514470E+03  0.91978077868E+02 0.  0.
         11    1    3    3    0    0  0.13784244444E+03 -0.51443997009E+03 -0.18825631431E+03  0.56488004231E+03  0.00000000000E+00 0. -1.
        -11    1    3    3    0    0  0.13229776202E+03 -0.24167594829E+03 -0.89290190490E+02  0.28962510239E+03  0.00000000000E+00 0.  1.
         22    1    1    2    0    0 -0.27014020645E+03  0.75611591839E+03  0.10555025326E+04  0.13261872453E+04  0.00000000000E+00 0. -1.
<mgrwt>
<rscale>  0 0.20372049E+04</rscale>
<asrwt>0</asrwt>
<pdfrwt beam="1">  1        1 0.22758834E+00 0.20372049E+04</pdfrwt>
<pdfrwt beam="2">  1       -1 0.10790280E+00 0.20372049E+04</pdfrwt>
<totfact> 0.49934488E+00</totfact>
</mgrwt>
</event>
<event>
 6    1  0.1014650E-006  0.3445252E+04  0.7818608E-02  0.8126888E-01
          1   -1    0    0  501    0  0.00000000000E+00  0.00000000000E+00  0.12443377543E+04  0.12443377543E+04  0.00000000000E+00 0. -1.
         -1   -1    0    0    0  501 -0.00000000000E+00 -0.00000000000E+00 -0.23847547419E+04  0.23847547419E+04  0.00000000000E+00 0.  1.
         23    2    1    2    0    0  0.30365289238E+03  0.13484726735E+04  0.51009154777E+03  0.14762427441E+04  0.92280128613E+02 0.  0.
         13    1    3    3    0    0  0.20405682715E+03  0.70334132584E+03  0.28212972531E+03  0.78480914320E+03  0.00000000000E+00 0. -1.
        -13    1    3    3    0    0  0.99596065232E+02  0.64513134762E+03  0.22796182245E+03  0.69143360085E+03  0.00000000000E+00 0.  1.
         22    1    1    2    0    0 -0.30365289238E+03 -0.13484726735E+04 -0.16505085353E+04  0.21528497521E+04  0.00000000000E+00 0.  1.
<mgrwt>
<rscale>  0 0.34452520E+04</rscale>
<asrwt>0</asrwt>
<pdfrwt beam="1">  1        1 0.19143658E+00 0.34452520E+04</pdfrwt>
<pdfrwt beam="2">  1       -1 0.36688534E+00 0.34452520E+04</pdfrwt>
<totfact> 0.97419427E-02</totfact>
</mgrwt>
</event>
<event>
 6    1  0.1014650E-006  0.5040889E+04  0.7818608E-02  0.7822230E-01
          1   -1    0    0  501    0  0.00000000000E+00  0.00000000000E+00  0.34291888634E+04  0.34291888634E+04  0.00000000000E+00 0. -1.
         -1   -1    0    0    0  501 -0.00000000000E+00 -0.00000000000E+00 -0.18525200822E+04  0.18525200822E+04  0.00000000000E+00 0.  1.
         23    2    1    2    0    0 -0.19592137870E+04 -0.42676433566E+03  0.23872865733E+04  0.31188988137E+04  0.88012303832E+02 0.  0.
         13    1    3    3    0    0 -0.51015038539E+03 -0.80958967939E+02  0.65352932547E+03  0.83301161424E+03  0.00000000000E+00 0. -1.
        -13    1    3    3    0    0 -0.14490634016E+04 -0.34580536772E+03  0.17337572478E+04  0.22858871995E+04  0.00000000000E+00 0.  1.
         22    1    1    2    0    0  0.19592137870E+04  0.42676433566E+03 -0.81061779211E+03  0.21628101318E+04  0.00000000000E+00 0.  1.
<mgrwt>
<rscale>  0 0.50408893E+04</rscale>
<asrwt>0</asrwt>
<pdfrwt beam="1">  1        1 0.52756752E+00 0.50408893E+04</pdfrwt>
<pdfrwt beam="2">  1       -1 0.28500309E+00 0.50408893E+04</pdfrwt>
<totfact> 0.84336964E-03</totfact>
</mgrwt>
</event>
<event>
 6    1  0.1014650E-006  0.4954081E+04  0.7818608E-02  0.7835630E-01
         -2   -1    0    0    0  501 -0.00000000000E+00  0.00000000000E+00  0.17863660171E+04  0.17863660171E+04  0.00000000000E+00 0.  1.
          2   -1    0    0  501    0  0.00000000000E+00 -0.00000000000E+00 -0.34347555999E+04  0.34347555999E+04  0.00000000000E+00 0. -1.
         23    2    1    2    0    0 -0.24037619693E+04  0.19262516766E+03 -0.23140270344E+03  0.24241539953E+04  0.88313767677E+02 0.  0.
         11    1    3    3    0    0 -0.80944935753E+03  0.67489354141E+02 -0.11984566096E+03  0.82105179970E+03  0.00000000000E+00 0. -1.
        -11    1    3    3    0    0 -0.15943126118E+04  0.12513581351E+03 -0.11155704248E+03  0.16031021956E+04  0.00000000000E+00 0.  1.
         22    1    1    2    0    0  0.24037619693E+04 -0.19262516766E+03 -0.14169868794E+04  0.27969676217E+04  0.00000000000E+00 0. -1.
<mgrwt>
<rscale>  0 0.49540814E+04</rscale>
<asrwt>0</asrwt>
<pdfrwt beam="1">  1        2 0.52842393E+00 0.49540814E+04</pdfrwt>
<pdfrwt beam="2">  1       -2 0.27482554E+00 0.49540814E+04</pdfrwt>
<totfact> 0.29811156E-02</totfact>
</mgrwt>
</event>
<event>
 6    1  0.1014650E-006  0.5389850E+04  0.7818608E-02  0.7771030E-01
          2   -1    0    0  501    0  0.00000000000E+00  0.00000000000E+00  0.32696983643E+04  0.32696983643E+04  0.00000000000E+00 0. -1.
         -2   -1    0    0    0  501 -0.00000000000E+00 -0.00000000000E+00 -0.22211897564E+04  0.22211897564E+04  0.00000000000E+00 0.  1.
         23    2    1    2    0    0 -0.21301634400E+04  0.12656968197E+04  0.16019406126E+04  0.29520159884E+04  0.92735911058E+02 0.  0.
         11    1    3    3    0    0 -0.88921102517E+03  0.58133901579E+03  0.67977315407E+03  0.12612465419E+04  0.00000000000E+00 0. -1.
        -11    1    3    3    0    0 -0.12409524148E+04  0.68435780389E+03  0.92216745856E+03  0.16907694465E+04  0.00000000000E+00 0.  1.
         22    1    1    2    0    0  0.21301634400E+04 -0.12656968197E+04 -0.55343200468E+03  0.25388721323E+04  0.00000000000E+00 0.  1.
<mgrwt>
<rscale>  0 0.53898499E+04</rscale>
<asrwt>0</asrwt>
<pdfrwt beam="1">  1        2 0.50303052E+00 0.53898499E+04</pdfrwt>
<pdfrwt beam="2">  1       -2 0.34172150E+00 0.53898499E+04</pdfrwt>
<totfact> 0.14430820E-02</totfact>
</mgrwt>
</event>
<event>
 6    1  0.1014650E-006  0.1358076E+04  0.7818608E-02  0.8984737E-01
          2   -1    0    0  501    0  0.00000000000E+00  0.00000000000E+00  0.30292276490E+04  0.30292276490E+04  0.00000000000E+00 0. -1.
         -2   -1    0    0    0  501 -0.00000000000E+00 -0.00000000000E+00 -0.15221468537E+03  0.15221468537E+03  0.00000000000E+00 0.  1.
         23    2    1    2    0    0 -0.66185587686E+03  0.13435215981E+03  0.13890615029E+04  0.15473972756E+04  0.94035977920E+02 0.  0.
         11    1    3    3    0    0 -0.34405673075E+03  0.25638859694E+02  0.66235879899E+03  0.74682766667E+03  0.00000000000E+00 0. -1.
        -11    1    3    3    0    0 -0.31779914611E+03  0.10871330012E+03  0.72670270388E+03  0.80056960892E+03  0.00000000000E+00 0.  1.
         22    1    1    2    0    0  0.66185587686E+03 -0.13435215981E+03  0.14879514608E+04  0.16340450588E+04  0.00000000000E+00 0. -1.
<mgrwt>
<rscale>  0 0.13580765E+04</rscale>
<asrwt>0</asrwt>
<pdfrwt beam="1">  1        2 0.46603498E+00 0.13580765E+04</pdfrwt>
<pdfrwt beam="2">  1       -2 0.23417646E-01 0.13580765E+04</pdfrwt>
<totfact> 0.26582405E+01</totfact>
</mgrwt>
</event>
<event>
 6    1  0.1014650E-006  0.4761588E+04  0.7818608E-02  0.7866375E-01
          2   -1    0    0  501    0  0.00000000000E+00  0.00000000000E+00  0.24003619395E+04  0.24003619395E+04  0.00000000000E+00 0. -1.
         -2   -1    0    0    0  501 -0.00000000000E+00 -0.00000000000E+00 -0.23613854828E+04  0.23613854828E+04  0.00000000000E+00 0.  1.
         23    2    1    2    0    0 -0.11649434737E+04 -0.80661814821E+03 -0.18929021134E+04  0.23659425588E+04  0.82943634310E+02 0.  0.
         11    1    3    3    0    0 -0.64682418225E+03 -0.39757748532E+03 -0.10149074554E+04  0.12674724938E+04  0.00000000000E+00 0. -1.
        -11    1    3    3    0    0 -0.51811929149E+03 -0.40904066290E+03 -0.87799465805E+03  0.10984700650E+04  0.00000000000E+00 0.  1.
         22    1    1    2    0    0  0.11649434737E+04  0.80661814821E+03  0.19318785702E+04  0.23958048635E+04  0.00000000000E+00 0. -1.
<mgrwt>
<rscale>  0 0.47615879E+04</rscale>
<asrwt>0</asrwt>
<pdfrwt beam="1">  1        2 0.36928645E+00 0.47615879E+04</pdfrwt>
<pdfrwt beam="2">  1       -2 0.36329007E+00 0.47615879E+04</pdfrwt>
<totfact> 0.37782452E-02</totfact>
</mgrwt>
</event>
<event>
 6    1  0.1014650E-006  0.3037224E+04  0.7818608E-02  0.8233181E-01
          1   -1    0    0  501    0  0.00000000000E+00  0.00000000000E+00  0.33911522631E+04  0.33911522631E+04  0.00000000000E+00 0. -1.
         -1   -1    0    0    0  501 -0.00000000000E+00 -0.00000000000E+00 -0.68005849916E+03  0.68005849916E+03  0.00000000000E+00 0.  1.
         23    2    1    2    0    0  0.11037349416E+04 -0.10346090524E+04  0.11991126283E+04  0.19323480581E+04  0.86320388138E+02 0.  0.
         11    1    3    3    0    0  0.60716259594E+03 -0.51040048709E+03  0.63372252328E+03  0.10152631736E+04  0.00000000000E+00 0. -1.
        -11    1    3    3    0    0  0.49657234570E+03 -0.52420856535E+03  0.56539010502E+03  0.91708488449E+03  0.00000000000E+00 0.  1.
         22    1    1    2    0    0 -0.11037349416E+04  0.10346090524E+04  0.15119811356E+04  0.21388627042E+04  0.00000000000E+00 0. -1.
<mgrwt>
<rscale>  0 0.30372237E+04</rscale>
<asrwt>0</asrwt>
<pdfrwt beam="1">  1        1 0.52171572E+00 0.30372237E+04</pdfrwt>
<pdfrwt beam="2">  1       -1 0.10462439E+00 0.30372237E+04</pdfrwt>
<totfact> 0.22116762E-01</totfact>
</mgrwt>
</event>
<event>
 6    1  0.1014650E-006  0.3559727E+04  0.7818608E-02  0.8099780E-01
         -1   -1    0    0    0  501 -0.00000000000E+00  0.00000000000E+00  0.75146861676E+03  0.75146861676E+03  0.00000000000E+00 0.  1.
          1   -1    0    0  501    0  0.00000000000E+00 -0.00000000000E+00 -0.42156297578E+04  0.42156297578E+04  0.00000000000E+00 0. -1.
         23    2    1    2    0    0  0.62160774589E+03 -0.34743281985E+03 -0.40075459167E+04  0.40713457477E+04  0.91247845529E+02 0.  0.
         13    1    3    3    0    0  0.28138183565E+03 -0.20945764617E+03 -0.19712152221E+04  0.20021832321E+04  0.00000000000E+00 0. -1.
        -13    1    3    3    0    0  0.34022591024E+03 -0.13797517368E+03 -0.20363306946E+04  0.20691625157E+04  0.00000000000E+00 0.  1.
         22    1    1    2    0    0 -0.62160774589E+03  0.34743281985E+03  0.54338477564E+03  0.89575262681E+03  0.00000000000E+00 0.  1.
<mgrwt>
<rscale>  0 0.35597267E+04</rscale>
<asrwt>0</asrwt>
<pdfrwt beam="1">  1        1 0.64855843E+00 0.35597267E+04</pdfrwt>
<pdfrwt beam="2">  1       -1 0.11561055E+00 0.35597267E+04</pdfrwt>
<totfact> 0.33538809E-02</totfact>
</mgrwt>
</event>
<event>
 6    1  0.1014650E-006  0.2196897E+04  0.7818608E-02  0.8519721E-01
         -2   -1    0    0    0  501 -0.00000000000E+00  0.00000000000E+00  0.10823762160E+04  0.10823762160E+04  0.00000000000E+00 0.  1.
          2   -1    0    0  501    0  0.00000000000E+00 -0.00000000000E+00 -0.11147593814E+04  0.11147593814E+04  0.00000000000E+00 0. -1.
         23    2    1    2    0    0 -0.28884745099E+03 -0.13057925826E+03  0.10336394181E+04  0.10849809583E+04  0.91046365347E+02 0.  0.
         13    1    3    3    0    0 -0.76179790642E+01 -0.74297478468E+01  0.13353793214E+03  0.13396124096E+03  0.00000000000E+00 0. -1.
        -13    1    3    3    0    0 -0.28122947192E+03 -0.12314951041E+03  0.90010148593E+03  0.95101971734E+03  0.00000000000E+00 0.  1.
         22    1    1    2    0    0  0.28884745099E+03  0.13057925826E+03 -0.10660225835E+04  0.11121546391E+04  0.00000000000E+00 0. -1.
<mgrwt>
<rscale>  0 0.21968969E+04</rscale>
<asrwt>0</asrwt>
<pdfrwt beam="1">  1        2 0.17150144E+00 0.21968969E+04</pdfrwt>
<pdfrwt beam="2">  1       -2 0.16651942E+00 0.21968969E+04</pdfrwt>
<totfact> 0.44028873E+00</totfact>
</mgrwt>
</event>
<event>
 6    1  0.1014650E-006  0.2792795E+04  0.7818608E-02  0.8305509E-01
          2   -1    0    0  501    0  0.00000000000E+00  0.00000000000E+00  0.13191199504E+04  0.13191199504E+04  0.00000000000E+00 0. -1.
         -2   -1    0    0    0  501 -0.00000000000E+00 -0.00000000000E+00 -0.14782024867E+04  0.14782024867E+04  0.00000000000E+00 0.  1.
         23    2    1    2    0    0 -0.32199992568E+03  0.71401678085E+03  0.10765401788E+04  0.13343571574E+04  0.89812868323E+02 0.  0.
         13    1    3    3    0    0 -0.27179826574E+03  0.52333730458E+03  0.84156352972E+03  0.10276115055E+04  0.00000000000E+00 0. -1.
        -13    1    3    3    0    0 -0.50201659948E+02  0.19067947627E+03  0.23497664908E+03  0.30674565188E+03  0.00000000000E+00 0.  1.
         22    1    1    2    0    0  0.32199992568E+03 -0.71401678085E+03 -0.12356227152E+04  0.14629652797E+04  0.00000000000E+00 0.  1.
<mgrwt>
<rscale>  0 0.27927953E+04</rscale>
<asrwt>0</asrwt>
<pdfrwt beam="1">  1        2 0.20294153E+00 0.27927953E+04</pdfrwt>
<pdfrwt beam="2">  1       -2 0.22741577E+00 0.27927953E+04</pdfrwt>
<totfact> 0.12450590E+00</totfact>
</mgrwt>
</event>
<event>
 6    1  0.1014650E-006  0.2198341E+04  0.7818608E-02  0.8519119E-01
          1   -1    0    0  501    0  0.00000000000E+00  0.00000000000E+00  0.21491673315E+04  0.21491673315E+04  0.00000000000E+00 0. -1.
         -1   -1    0    0    0  501 -0.00000000000E+00 -0.00000000000E+00 -0.56215985009E+03  0.56215985009E+03  0.00000000000E+00 0.  1.
         23    2    1    2    0    0  0.84058357696E+03  0.69639335637E+03  0.93353612770E+03  0.14390971447E+04  0.89254879643E+02 0.  0.
         13    1    3    3    0    0  0.53696845485E+03  0.49363058122E+03  0.64683510927E+03  0.97488559883E+03  0.00000000000E+00 0.  1.
        -13    1    3    3    0    0  0.30361512211E+03  0.20276277515E+03  0.28670101843E+03  0.46421154588E+03  0.00000000000E+00 0. -1.
         22    1    1    2    0    0 -0.84058357696E+03 -0.69639335637E+03  0.65347135374E+03  0.12722300369E+04  0.00000000000E+00 0.  1.
<mgrwt>
<rscale>  0 0.21983408E+04</rscale>
<asrwt>0</asrwt>
<pdfrwt beam="1">  1        1 0.33064112E+00 0.21983408E+04</pdfrwt>
<pdfrwt beam="2">  1       -1 0.86486132E-01 0.21983408E+04</pdfrwt>
<totfact> 0.28360302E+00</totfact>
</mgrwt>
</event>
<event>
 6    1  0.1014650E-006  0.2631462E+04  0.7818608E-02  0.8357592E-01
         -2   -1    0    0    0  501 -0.00000000000E+00  0.00000000000E+00  0.70328491022E+03  0.70328491022E+03  0.00000000000E+00 0.  1.
          2   -1    0    0  501    0  0.00000000000E+00 -0.00000000000E+00 -0.24615167506E+04  0.24615167506E+04  0.00000000000E+00 0. -1.
         23    2    1    2    0    0  0.14744186100E+03  0.11966037021E+04 -0.15089936974E+04  0.19336561885E+04  0.91459030074E+02 0.  0.
         13    1    3    3    0    0  0.12367636853E+03  0.79492782321E+03 -0.94938159958E+03  0.12444000602E+04  0.00000000000E+00 0. -1.
        -13    1    3    3    0    0  0.23765492473E+02  0.40167587885E+03 -0.55961209782E+03  0.68925612823E+03  0.00000000000E+00 0.  1.
         22    1    1    2    0    0 -0.14744186100E+03 -0.11966037021E+04 -0.24923814296E+03  0.12311454723E+04  0.00000000000E+00 0.  1.
<mgrwt>
<rscale>  0 0.26314616E+04</rscale>
<asrwt>0</asrwt>
<pdfrwt beam="1">  1        2 0.37869488E+00 0.26314616E+04</pdfrwt>
<pdfrwt beam="2">  1       -2 0.10819768E+00 0.26314616E+04</pdfrwt>
<totfact> 0.22102350E+00</totfact>
</mgrwt>
</event>
<event>
 6    1  0.1014650E-006  0.4102821E+04  0.7818608E-02  0.7984119E-01
          2   -1    0    0  501    0  0.00000000000E+00  0.00000000000E+00  0.14934815313E+04  0.14934815313E+04  0.00000000000E+00 0. -1.
         -2   -1    0    0    0  501 -0.00000000000E+00 -0.00000000000E+00 -0.28177690440E+04  0.28177690440E+04  0.00000000000E+00 0.  1.
         23    2    1    2    0    0  0.17541435255E+04 -0.81689270985E+02  0.44976214990E+03  0.18150645145E+04  0.92089930406E+02 0.  0.
         13    1    3    3    0    0  0.11173575217E+04 -0.61785207384E+02  0.33102472572E+03  0.11669972632E+04  0.00000000000E+00 0. -1.
        -13    1    3    3    0    0  0.63678600375E+03 -0.19904063601E+02  0.11873742417E+03  0.64806725131E+03  0.00000000000E+00 0.  1.
         22    1    1    2    0    0 -0.17541435255E+04  0.81689270985E+02 -0.17740496625E+04  0.24961860608E+04  0.00000000000E+00 0.  1.
<mgrwt>
<rscale>  0 0.41028215E+04</rscale>
<asrwt>0</asrwt>
<pdfrwt beam="1">  1        2 0.22976639E+00 0.41028215E+04</pdfrwt>
<pdfrwt beam="2">  1       -2 0.43350293E+00 0.41028215E+04</pdfrwt>
<totfact> 0.44702735E-02</totfact>
</mgrwt>
</event>
<event>
 6    1  0.1014650E-006  0.5129523E+04  0.7818608E-02  0.7808832E-01
          1   -1    0    0  501    0  0.00000000000E+00  0.00000000000E+00  0.37938442959E+04  0.37938442959E+04  0.00000000000E+00 0. -1.
         -1   -1    0    0    0  501 -0.00000000000E+00 -0.00000000000E+00 -0.17338615879E+04  0.17338615879E+04  0.00000000000E+00 0.  1.
         23    2    1    2    0    0  0.18011741054E+04 -0.17604621751E+03 -0.92692800688E+03  0.20353061291E+04  0.89750099432E+02 0.  0.
         13    1    3    3    0    0  0.11968041092E+04 -0.15759415922E+03 -0.60350402813E+03  0.13495899773E+04  0.00000000000E+00 0.  1.
        -13    1    3    3    0    0  0.60436999617E+03 -0.18452058294E+02 -0.32342397875E+03  0.68571615174E+03  0.00000000000E+00 0. -1.
         22    1    1    2    0    0 -0.18011741054E+04  0.17604621751E+03  0.29869107148E+04  0.34923997548E+04  0.00000000000E+00 0. -1.
<mgrwt>
<rscale>  0 0.51295227E+04</rscale>
<asrwt>0</asrwt>
<pdfrwt beam="1">  1        1 0.58366835E+00 0.51295227E+04</pdfrwt>
<pdfrwt beam="2">  1       -1 0.26674794E+00 0.51295227E+04</pdfrwt>
<totfact> 0.55777539E-03</totfact>
</mgrwt>
</event>
<event>
 6    1  0.1014650E-006  0.1586239E+04  0.7818608E-02  0.8829047E-01
         -2   -1    0    0    0  501 -0.00000000000E+00  0.00000000000E+00  0.35175730392E+03  0.35175730392E+03  0.00000000000E+00 0.  1.
          2   -1    0    0  501    0  0.00000000000E+00 -0.00000000000E+00 -0.17882752556E+04  0.17882752556E+04  0.00000000000E+00 0. -1.
         23    2    1    2    0    0  0.72966368879E+03  0.10376245818E+03 -0.11052487115E+04  0.13320009661E+04  0.97345328412E+02 0.  0.
         11    1    3    3    0    0  0.33510614974E+03  0.43593938428E+02 -0.59414188800E+03  0.68352113803E+03  0.00000000000E+00 0.  1.
        -11    1    3    3    0    0  0.39455753905E+03  0.60168519749E+02 -0.51110682355E+03  0.64847982811E+03  0.00000000000E+00 0. -1.
         22    1    1    2    0    0 -0.72966368879E+03 -0.10376245818E+03 -0.33126924015E+03  0.80803159340E+03  0.00000000000E+00 0.  1.
<mgrwt>
<rscale>  0 0.15862394E+04</rscale>
<asrwt>0</asrwt>
<pdfrwt beam="1">  1        2 0.27511927E+00 0.15862394E+04</pdfrwt>
<pdfrwt beam="2">  1       -2 0.54116509E-01 0.15862394E+04</pdfrwt>
<totfact> 0.27033914E+01</totfact>
</mgrwt>
</event>
<event>
 6    1  0.1014650E-006  0.3592061E+04  0.7818608E-02  0.8092313E-01
          1   -1    0    0  501    0  0.00000000000E+00  0.00000000000E+00  0.16214801143E+04  0.16214801143E+04  0.00000000000E+00 0. -1.
         -1   -1    0    0    0  501 -0.00000000000E+00 -0.00000000000E+00 -0.19893709095E+04  0.19893709095E+04  0.00000000000E+00 0.  1.
         23    2    1    2    0    0 -0.69458443915E+03  0.16475299890E+04 -0.34142551204E+03  0.18226947054E+04  0.94031913985E+02 0.  0.
         11    1    3    3    0    0 -0.51303842277E+03  0.11818361534E+04 -0.20513761615E+03  0.13046173992E+04  0.00000000000E+00 0. -1.
        -11    1    3    3    0    0 -0.18154601638E+03  0.46569383568E+03 -0.13628789589E+03  0.51807730622E+03  0.00000000000E+00 0.  1.
         22    1    1    2    0    0  0.69458443915E+03 -0.16475299890E+04 -0.26465283215E+02  0.17881563184E+04  0.00000000000E+00 0.  1.
<mgrwt>
<rscale>  0 0.35920609E+04</rscale>
<asrwt>0</asrwt>
<pdfrwt beam="1">  1        1 0.24945848E+00 0.35920609E+04</pdfrwt>
<pdfrwt beam="2">  1       -1 0.30605706E+00 0.35920609E+04</pdfrwt>
<totfact> 0.13170724E-01</totfact>
</mgrwt>
</event>
<event>
 6    1  0.1014650E-006  0.2583966E+04  0.7818608E-02  0.8373668E-01
         -2   -1    0    0    0  501 -0.00000000000E+00  0.00000000000E+00  0.17368588381E+04  0.17368588381E+04  0.00000000000E+00 0.  1.
          2   -1    0    0  501    0  0.00000000000E+00 -0.00000000000E+00 -0.96105681141E+03  0.96105681141E+03  0.00000000000E+00 0. -1.
         23    2    1    2    0    0  0.15963996886E+03  0.76163041394E+03  0.14630608145E+04  0.16597006195E+04  0.92159602745E+02 0.  0.
         11    1    3    3    0    0  0.11153864946E+03  0.55038915028E+03  0.96404200577E+03  0.11156818883E+04  0.00000000000E+00 0.  1.
        -11    1    3    3    0    0  0.48101319399E+02  0.21124126366E+03  0.49901880877E+03  0.54401873121E+03  0.00000000000E+00 0. -1.
         22    1    1    2    0    0 -0.15963996886E+03 -0.76163041394E+03 -0.68725878781E+03  0.10382150300E+04  0.00000000000E+00 0. -1.
<mgrwt>
<rscale>  0 0.25839660E+04</rscale>
<asrwt>0</asrwt>
<pdfrwt beam="1">  1        2 0.14785489E+00 0.25839660E+04</pdfrwt>
<pdfrwt beam="2">  1       -2 0.26720905E+00 0.25839660E+04</pdfrwt>
<totfact> 0.11920020E+00</totfact>
</mgrwt>
</event>
<event>
 6    1  0.1014650E-006  0.1194944E+04  0.7818608E-02  0.9117293E-01
         -2   -1    0    0    0  501 -0.00000000000E+00  0.00000000000E+00  0.28483160672E+03  0.28483160672E+03  0.00000000000E+00 0.  1.
          2   -1    0    0  501    0  0.00000000000E+00 -0.00000000000E+00 -0.12532773564E+04  0.12532773564E+04  0.00000000000E+00 0. -1.
         23    2    1    2    0    0  0.40501790943E+03  0.25324468086E+03 -0.94205913079E+03  0.10597068007E+04  0.85619636743E+02 0.  0.
         11    1    3    3    0    0  0.14011612917E+03  0.13165420617E+03 -0.33363810321E+03  0.38507108899E+03  0.00000000000E+00 0.  1.
        -11    1    3    3    0    0  0.26490178026E+03  0.12159047469E+03 -0.60842102758E+03  0.67463571171E+03  0.00000000000E+00 0. -1.
         22    1    1    2    0    0 -0.40501790943E+03 -0.25324468086E+03 -0.26386618878E+02  0.47840216241E+03  0.00000000000E+00 0.  1.
<mgrwt>
<rscale>  0 0.11949444E+04</rscale>
<asrwt>0</asrwt>
<pdfrwt beam="1">  1        2 0.19281190E+00 0.11949444E+04</pdfrwt>
<pdfrwt beam="2">  1       -2 0.43820248E-01 0.11949444E+04</pdfrwt>
<totfact> 0.85792541E+01</totfact>
</mgrwt>
</event>
<event>
 6    1  0.1014650E-006  0.3874234E+03  0.7818608E-02  0.1048224E+00
          1   -1    0    0  501    0  0.00000000000E+00  0.00000000000E+00  0.31207835086E+03  0.31207835086E+03  0.00000000000E+00 0. -1.
         -1   -1    0    0    0  501 -0.00000000000E+00 -0.00000000000E+00 -0.12023976228E+03  0.12023976228E+03  0.00000000000E+00 0.  1.
         23    2    1    2    0    0 -0.41419963761E+02 -0.48874893857E+02  0.28887946940E+03  0.31603698312E+03  0.11101197328E+03 0.  0.
         13    1    3    3    0    0 -0.58047339937E+02  0.48854492037E+01  0.75490951775E+02  0.95353264693E+02  0.00000000000E+00 0.  1.
        -13    1    3    3    0    0  0.16627376176E+02 -0.53760343061E+02  0.21338851763E+03  0.22068371843E+03  0.00000000000E+00 0. -1.
         22    1    1    2    0    0  0.41419963761E+02  0.48874893857E+02 -0.97040880819E+02  0.11628113002E+03  0.00000000000E+00 0.  1.
<mgrwt>
<rscale>  0 0.38742342E+03</rscale>
<asrwt>0</asrwt>
<pdfrwt beam="1">  1        1 0.48012054E-01 0.38742342E+03</pdfrwt>
<pdfrwt beam="2">  1       -1 0.18498425E-01 0.38742342E+03</pdfrwt>
<totfact> 0.19177880E+03</totfact>
</mgrwt>
</event>
<event>
 6    1  0.1014650E-006  0.2084902E+04  0.7818608E-02  0.8567923E-01
         -2   -1    0    0    0  501 -0.00000000000E+00  0.00000000000E+00  0.49278066176E+03  0.49278066176E+03  0.00000000000E+00 0.  1.
          2   -1    0    0  501    0  0.00000000000E+00 -0.00000000000E+00 -0.22052498871E+04  0.22052498871E+04  0.00000000000E+00 0. -1.
         23    2    1    2    0    0 -0.11739637175E+03 -0.10172171800E+04 -0.62005726624E+03  0.12007408014E+04  0.93780379044E+02 0.  0.
         13    1    3    3    0    0 -0.11479867663E+03 -0.81382932112E+03 -0.53235981588E+03  0.97923637271E+03  0.00000000000E+00 0.  1.
        -13    1    3    3    0    0 -0.25976951229E+01 -0.20338785884E+03 -0.87697450362E+02  0.22150442873E+03  0.00000000000E+00 0. -1.
         22    1    1    2    0    0  0.11739637175E+03  0.10172171800E+04 -0.10924119591E+04  0.14972897474E+04  0.00000000000E+00 0.  1.
<mgrwt>
<rscale>  0 0.20849024E+04</rscale>
<asrwt>0</asrwt>
<pdfrwt beam="1">  1        2 0.33926921E+00 0.20849024E+04</pdfrwt>
<pdfrwt beam="2">  1       -2 0.75812411E-01 0.20849024E+04</pdfrwt>
<totfact> 0.73774148E+00</totfact>
</mgrwt>
</event>
<event>
 6    1  0.1014650E-006  0.1714826E+04  0.7818608E-02  0.8752953E-01
         -2   -1    0    0    0  501 -0.00000000000E+00  0.00000000000E+00  0.55048278041E+03  0.55048278041E+03  0.00000000000E+00 0.  1.
          2   -1    0    0  501    0  0.00000000000E+00 -0.00000000000E+00 -0.13354776187E+04  0.13354776187E+04  0.00000000000E+00 0. -1.
         23    2    1    2    0    0 -0.43122202466E+02 -0.42095934681E+03  0.42327858163E+03  0.60572957879E+03  0.93151859560E+02 0.  0.
         11    1    3    3    0    0 -0.70406226176E+02 -0.23583297376E+03  0.24498071747E+03  0.34726039240E+03  0.00000000000E+00 0. -1.
        -11    1    3    3    0    0  0.27284023710E+02 -0.18512637305E+03  0.17829786416E+03  0.25846918639E+03  0.00000000000E+00 0.  1.
         22    1    1    2    0    0  0.43122202466E+02  0.42095934681E+03 -0.12082734199E+04  0.12802308203E+04  0.00000000000E+00 0. -1.
<mgrwt>
<rscale>  0 0.17148264E+04</rscale>
<asrwt>0</asrwt>
<pdfrwt beam="1">  1        2 0.20545809E+00 0.17148264E+04</pdfrwt>
<pdfrwt beam="2">  1       -2 0.84689660E-01 0.17148264E+04</pdfrwt>
<totfact> 0.18205731E+01</totfact>
</mgrwt>
</event>
<event>
 6    1  0.1014650E-006  0.1785781E+04  0.7818608E-02  0.8713898E-01
          2   -1    0    0  501    0  0.00000000000E+00  0.00000000000E+00  0.53436588748E+03  0.53436588748E+03  0.00000000000E+00 0. -1.
         -2   -1    0    0    0  501 -0.00000000000E+00 -0.00000000000E+00 -0.14919618801E+04  0.14919618801E+04  0.00000000000E+00 0.  1.
         23    2    1    2    0    0 -0.82370900519E+03  0.57235553259E+02 -0.10142777074E+03  0.83687560042E+03  0.91108419572E+02 0.  0.
         13    1    3    3    0    0 -0.39896958394E+03  0.66291844810E+02 -0.24928586669E+02  0.40520707302E+03  0.00000000000E+00 0. -1.
        -13    1    3    3    0    0 -0.42473942125E+03 -0.90562915508E+01 -0.76499184069E+02  0.43166852740E+03  0.00000000000E+00 0.  1.
         22    1    1    2    0    0  0.82370900519E+03 -0.57235553259E+02 -0.85616822185E+03  0.11894521671E+04  0.00000000000E+00 0.  1.
<mgrwt>
<rscale>  0 0.17857811E+04</rscale>
<asrwt>0</asrwt>
<pdfrwt beam="1">  1        2 0.82210137E-01 0.17857811E+04</pdfrwt>
<pdfrwt beam="2">  1       -2 0.22953259E+00 0.17857811E+04</pdfrwt>
<totfact> 0.46317523E+00</totfact>
</mgrwt>
</event>
<event>
 6    1  0.1014650E-006  0.1135778E+04  0.7818608E-02  0.9171005E-01
         -2   -1    0    0    0  501 -0.00000000000E+00  0.00000000000E+00  0.24550998554E+03  0.24550998554E+03  0.00000000000E+00 0.  1.
          2   -1    0    0  501    0  0.00000000000E+00 -0.00000000000E+00 -0.13135829547E+04  0.13135829547E+04  0.00000000000E+00 0. -1.
         23    2    1    2    0    0  0.40595306844E+03  0.33172612422E+03 -0.24970013334E+03  0.58720086099E+03  0.87261556793E+02 0.  0.
         13    1    3    3    0    0  0.74106266384E+02  0.22340232560E+02 -0.28816989761E+02  0.82590820356E+02  0.00000000000E+00 0.  1.
        -13    1    3    3    0    0  0.33184680206E+03  0.30938589166E+03 -0.22088314358E+03  0.50461004064E+03  0.00000000000E+00 0. -1.
         22    1    1    2    0    0 -0.40595306844E+03 -0.33172612422E+03 -0.81837283578E+03  0.97189207920E+03  0.00000000000E+00 0. -1.
<mgrwt>
<rscale>  0 0.11357777E+04</rscale>
<asrwt>0</asrwt>
<pdfrwt beam="1">  1        2 0.20208968E+00 0.11357777E+04</pdfrwt>
<pdfrwt beam="2">  1       -2 0.37770767E-01 0.11357777E+04</pdfrwt>
<totfact> 0.10628599E+02</totfact>
</mgrwt>
</event>
<event>
 6    1  0.1014650E-006  0.3832402E+04  0.7818608E-02  0.8039237E-01
         -2   -1    0    0    0  501 -0.00000000000E+00  0.00000000000E+00  0.25413317329E+04  0.25413317329E+04  0.00000000000E+00 0.  1.
          2   -1    0    0  501    0  0.00000000000E+00 -0.00000000000E+00 -0.14448430893E+04  0.14448430893E+04  0.00000000000E+00 0. -1.
         23    2    1    2    0    0 -0.14313233033E+04 -0.53640453726E+03 -0.65132847690E+03  0.16642616212E+04  0.95507763732E+02 0.  0.
         13    1    3    3    0    0 -0.63607307219E+03 -0.28173098123E+03 -0.26913479060E+03  0.74591878543E+03  0.00000000000E+00 0. -1.
        -13    1    3    3    0    0 -0.79525023111E+03 -0.25467355603E+03 -0.38219368630E+03  0.91834283580E+03  0.00000000000E+00 0.  1.
         22    1    1    2    0    0  0.14313233033E+04  0.53640453726E+03  0.17478171205E+04  0.23219132010E+04  0.00000000000E+00 0.  1.
<mgrwt>
<rscale>  0 0.38324016E+04</rscale>
<asrwt>0</asrwt>
<pdfrwt beam="1">  1        2 0.22228355E+00 0.38324016E+04</pdfrwt>
<pdfrwt beam="2">  1       -2 0.39097411E+00 0.38324016E+04</pdfrwt>
<totfact> 0.92674276E-02</totfact>
</mgrwt>
</event>
<event>
 6    1  0.1118510E-006  0.2238207E+04  0.7818608E-02  0.8502692E-01
          1   -1    0    0  501    0  0.00000000000E+00  0.00000000000E+00  0.10240985890E+04  0.10240985890E+04  0.00000000000E+00 0. -1.
         -1   -1    0    0    0  501 -0.00000000000E+00 -0.00000000000E+00 -0.12229219548E+04  0.12229219548E+04  0.00000000000E+00 0.  1.
         23    2    1    2    0    0 -0.31728482973E+03 -0.78297224874E+03 -0.83351259121E+03  0.11903533217E+04  0.92100951301E+02 0.  0.
         13    1    3    3    0    0 -0.13659025504E+03 -0.39945160767E+03 -0.47140970766E+03  0.63280770943E+03  0.00000000000E+00 0.  1.
        -13    1    3    3    0    0 -0.18069457469E+03 -0.38352064108E+03 -0.36210288355E+03  0.55754561224E+03  0.00000000000E+00 0. -1.
         22    1    1    2    0    0  0.31728482973E+03  0.78297224874E+03  0.63468922543E+03  0.10566672221E+04  0.00000000000E+00 0. -1.
<mgrwt>
<rscale>  0 0.22382070E+04</rscale>
<asrwt>0</asrwt>
<pdfrwt beam="1">  1        1 0.15755363E+00 0.22382070E+04</pdfrwt>
<pdfrwt beam="2">  1       -1 0.18814184E+00 0.22382070E+04</pdfrwt>
<totfact> 0.23979167E+00</totfact>
</mgrwt>
</event>
<event>
 6    1  0.1014650E-006  0.2814938E+04  0.7818608E-02  0.8298646E-01
          2   -1    0    0  501    0  0.00000000000E+00  0.00000000000E+00  0.34129105660E+04  0.34129105660E+04  0.00000000000E+00 0. -1.
         -2   -1    0    0    0  501 -0.00000000000E+00 -0.00000000000E+00 -0.58043410362E+03  0.58043410362E+03  0.00000000000E+00 0.  1.
         23    2    1    2    0    0  0.43639134345E+03 -0.10076046219E+04  0.17283078790E+03  0.11159466102E+04  0.98802210659E+02 0.  0.
         13    1    3    3    0    0  0.48461652731E+02 -0.12413219497E+03 -0.10966445271E+02  0.13370712971E+03  0.00000000000E+00 0.  1.
        -13    1    3    3    0    0  0.38792969072E+03 -0.88347242693E+03  0.18379723318E+03  0.98223948048E+03  0.00000000000E+00 0. -1.
         22    1    1    2    0    0 -0.43639134345E+03  0.10076046219E+04  0.26596456745E+04  0.28773980594E+04  0.00000000000E+00 0. -1.
<mgrwt>
<rscale>  0 0.28149385E+04</rscale>
<asrwt>0</asrwt>
<pdfrwt beam="1">  1        2 0.52506315E+00 0.28149385E+04</pdfrwt>
<pdfrwt beam="2">  1       -2 0.89297556E-01 0.28149385E+04</pdfrwt>
<totfact> 0.87342356E-01</totfact>
</mgrwt>
</event>
<event>
 6    1  0.1014650E-006  0.2508304E+04  0.7818608E-02  0.8400033E-01
          1   -1    0    0  501    0  0.00000000000E+00  0.00000000000E+00  0.17565005190E+04  0.17565005190E+04  0.00000000000E+00 0. -1.
         -1   -1    0    0    0  501 -0.00000000000E+00 -0.00000000000E+00 -0.89547186364E+03  0.89547186364E+03  0.00000000000E+00 0.  1.
         23    2    1    2    0    0 -0.80115394176E+03  0.19605428991E+03 -0.56509188240E+03  0.10045183738E+04  0.97177182511E+02 0.  0.
         13    1    3    3    0    0 -0.11416130348E+03 -0.47007551649E+01 -0.65835692172E+02  0.13186826258E+03  0.00000000000E+00 0.  1.
        -13    1    3    3    0    0 -0.68699263828E+03  0.20075504507E+03 -0.49925619023E+03  0.87265011125E+03  0.00000000000E+00 0. -1.
         22    1    1    2    0    0  0.80115394176E+03 -0.19605428991E+03  0.14261205378E+04  0.16474540089E+04  0.00000000000E+00 0. -1.
<mgrwt>
<rscale>  0 0.25083036E+04</rscale>
<asrwt>0</asrwt>
<pdfrwt beam="1">  1        1 0.27023085E+00 0.25083036E+04</pdfrwt>
<pdfrwt beam="2">  1       -1 0.13776490E+00 0.25083036E+04</pdfrwt>
<totfact> 0.16924991E+00</totfact>
</mgrwt>
</event>
<event>
 6    1  0.1014650E-006  0.4786905E+04  0.7818608E-02  0.7862247E-01
         -2   -1    0    0    0  501 -0.00000000000E+00  0.00000000000E+00  0.15142528114E+04  0.15142528114E+04  0.00000000000E+00 0.  1.
          2   -1    0    0  501    0  0.00000000000E+00 -0.00000000000E+00 -0.37831303485E+04  0.37831303485E+04  0.00000000000E+00 0. -1.
         23    2    1    2    0    0 -0.10894583870E+04 -0.72125481534E+02 -0.34907879104E+04  0.36587292542E+04  0.92616724272E+02 0.  0.
         13    1    3    3    0    0 -0.30398436910E+03  0.31238637415E+01 -0.85969989032E+03  0.91186630412E+03  0.00000000000E+00 0. -1.
        -13    1    3    3    0    0 -0.78547401793E+03 -0.75249345275E+02 -0.26310880201E+04  0.27468629501E+04  0.00000000000E+00 0.  1.
         22    1    1    2    0    0  0.10894583870E+04  0.72125481534E+02  0.12219103734E+04  0.16386539057E+04  0.00000000000E+00 0.  1.
<mgrwt>
<rscale>  0 0.47869054E+04</rscale>
<asrwt>0</asrwt>
<pdfrwt beam="1">  1        2 0.58202005E+00 0.47869054E+04</pdfrwt>
<pdfrwt beam="2">  1       -2 0.23296197E+00 0.47869054E+04</pdfrwt>
<totfact> 0.30585747E-02</totfact>
</mgrwt>
</event>
<event>
 6    1  0.1014650E-006  0.2235048E+04  0.7818608E-02  0.8503980E-01
          1   -1    0    0  501    0  0.00000000000E+00  0.00000000000E+00  0.97922304283E+03  0.97922304283E+03  0.00000000000E+00 0. -1.
         -1   -1    0    0    0  501 -0.00000000000E+00 -0.00000000000E+00 -0.12753576773E+04  0.12753576773E+04  0.00000000000E+00 0.  1.
         23    2    1    2    0    0 -0.65819188656E+03  0.12651349657E+03 -0.10483204120E+04  0.12471058230E+04  0.84113157083E+02 0.  0.
         13    1    3    3    0    0 -0.39720288678E+03  0.50364752995E+02 -0.56348454093E+03  0.69124638840E+03  0.00000000000E+00 0.  1.
        -13    1    3    3    0    0 -0.26098899978E+03  0.76148743579E+02 -0.48483587111E+03  0.55585943463E+03  0.00000000000E+00 0. -1.
         22    1    1    2    0    0  0.65819188656E+03 -0.12651349657E+03  0.75218577756E+03  0.10074748971E+04  0.00000000000E+00 0. -1.
<mgrwt>
<rscale>  0 0.22350478E+04</rscale>
<asrwt>0</asrwt>
<pdfrwt beam="1">  1        1 0.15064970E+00 0.22350478E+04</pdfrwt>
<pdfrwt beam="2">  1       -1 0.19620887E+00 0.22350478E+04</pdfrwt>
<totfact> 0.22832619E+00</totfact>
</mgrwt>
</event>
<event>
 6    1  0.1014650E-006  0.2198462E+04  0.7818608E-02  0.8519069E-01
         -2   -1    0    0    0  501 -0.00000000000E+00  0.00000000000E+00  0.15020650486E+04  0.15020650486E+04  0.00000000000E+00 0.  1.
          2   -1    0    0  501    0  0.00000000000E+00 -0.00000000000E+00 -0.80443153132E+03  0.80443153132E+03  0.00000000000E+00 0. -1.
         23    2    1    2    0    0 -0.78305672067E+03  0.28845073369E+03  0.10971857117E+04  0.13812811404E+04  0.87974140392E+02 0.  0.
         13    1    3    3    0    0 -0.58578303120E+03  0.17845768178E+03  0.82923299935E+03  0.10308328046E+04  0.00000000000E+00 0. -1.
        -13    1    3    3    0    0 -0.19727368946E+03  0.10999305191E+03  0.26795271234E+03  0.35044833581E+03  0.00000000000E+00 0.  1.
         22    1    1    2    0    0  0.78305672067E+03 -0.28845073369E+03 -0.39955219437E+03  0.92521543954E+03  0.00000000000E+00 0. -1.
<mgrwt>
<rscale>  0 0.21984617E+04</rscale>
<asrwt>0</asrwt>
<pdfrwt beam="1">  1        2 0.12375870E+00 0.21984617E+04</pdfrwt>
<pdfrwt beam="2">  1       -2 0.23108693E+00 0.21984617E+04</pdfrwt>
<totfact> 0.26300888E+00</totfact>
</mgrwt>
</event>
<event>
 6    1  0.1014650E-006  0.2215726E+04  0.7818608E-02  0.8511911E-01
          2   -1    0    0  501    0  0.00000000000E+00  0.00000000000E+00  0.31271301711E+04  0.31271301711E+04  0.00000000000E+00 0. -1.
         -2   -1    0    0    0  501 -0.00000000000E+00 -0.00000000000E+00 -0.39248790869E+03  0.39248790869E+03  0.00000000000E+00 0.  1.
         23    2    1    2    0    0  0.99520216402E+02  0.52381476965E+03  0.29087904645E+04  0.29587136470E+04  0.92942412174E+02 0.  0.
         11    1    3    3    0    0  0.47179366277E+02  0.41197476983E+03  0.20996759365E+04  0.21402308619E+04  0.00000000000E+00 0.  1.
        -11    1    3    3    0    0  0.52340850125E+02  0.11183999983E+03  0.80911452799E+03  0.81848278514E+03  0.00000000000E+00 0. -1.
         22    1    1    2    0    0 -0.99520216402E+02 -0.52381476965E+03 -0.17414820216E+03  0.56090443277E+03  0.00000000000E+00 0.  1.
<mgrwt>
<rscale>  0 0.22157263E+04</rscale>
<asrwt>0</asrwt>
<pdfrwt beam="1">  1        2 0.48109693E+00 0.22157263E+04</pdfrwt>
<pdfrwt beam="2">  1       -2 0.60382757E-01 0.22157263E+04</pdfrwt>
<totfact> 0.33777670E+00</totfact>
</mgrwt>
</event>
<event>
 6    1  0.1014650E-006  0.3728526E+04  0.7818608E-02  0.8061669E-01
          1   -1    0    0  501    0  0.00000000000E+00  0.00000000000E+00  0.13393995251E+04  0.13393995251E+04  0.00000000000E+00 0. -1.
         -1   -1    0    0    0  501 -0.00000000000E+00 -0.00000000000E+00 -0.25948015113E+04  0.25948015113E+04  0.00000000000E+00 0.  1.
         23    2    1    2    0    0 -0.39177448904E+03  0.18167376260E+04 -0.48906685739E+03  0.19239044459E+04  0.90548739353E+02 0.  0.
         11    1    3    3    0    0 -0.14224439573E+03  0.84668991414E+03 -0.24844753352E+03  0.89378042926E+03  0.00000000000E+00 0.  1.
        -11    1    3    3    0    0 -0.24953009331E+03  0.97004771182E+03 -0.24061932387E+03  0.10301240167E+04  0.00000000000E+00 0. -1.
         22    1    1    2    0    0  0.39177448904E+03 -0.18167376260E+04 -0.76633512886E+03  0.20102965904E+04  0.00000000000E+00 0.  1.
<mgrwt>
<rscale>  0 0.37285257E+04</rscale>
<asrwt>0</asrwt>
<pdfrwt beam="1">  1        1 0.20606147E+00 0.37285257E+04</pdfrwt>
<pdfrwt beam="2">  1       -1 0.39920023E+00 0.37285257E+04</pdfrwt>
<totfact> 0.49126130E-02</totfact>
</mgrwt>
</event>
<event>
 6    1  0.1014650E-006  0.3378560E+04  0.7818608E-02  0.8143189E-01
         -1   -1    0    0    0  501 -0.00000000000E+00  0.00000000000E+00  0.77129961492E+03  0.77129961492E+03  0.00000000000E+00 0.  1.
          1   -1    0    0  501    0  0.00000000000E+00 -0.00000000000E+00 -0.36998156100E+04  0.36998156100E+04  0.00000000000E+00 0. -1.
         23    2    1    2    0    0  0.37343557011E+03 -0.11340284116E+04 -0.30445609730E+04  0.32715565561E+04  0.90863734293E+02 0.  0.
         13    1    3    3    0    0  0.24816756573E+03 -0.86331266398E+03 -0.22322358085E+04  0.24061946308E+04  0.00000000000E+00 0. -1.
        -13    1    3    3    0    0  0.12526800438E+03 -0.27071574758E+03 -0.81232516443E+03  0.86536192525E+03  0.00000000000E+00 0.  1.
         22    1    1    2    0    0 -0.37343557011E+03  0.11340284116E+04  0.11604497783E+03  0.11995586689E+04  0.00000000000E+00 0.  1.
<mgrwt>
<rscale>  0 0.33785597E+04</rscale>
<asrwt>0</asrwt>
<pdfrwt beam="1">  1        1 0.56920239E+00 0.33785597E+04</pdfrwt>
<pdfrwt beam="2">  1       -1 0.11866148E+00 0.33785597E+04</pdfrwt>
<totfact> 0.90357630E-02</totfact>
</mgrwt>
</event>
<event>
 6    1  0.1014650E-006  0.1322036E+04  0.7818608E-02  0.9012271E-01
          2   -1    0    0  501    0  0.00000000000E+00  0.00000000000E+00  0.23696602677E+04  0.23696602677E+04  0.00000000000E+00 0. -1.
         -2   -1    0    0    0  501 -0.00000000000E+00 -0.00000000000E+00 -0.18439126415E+03  0.18439126415E+03  0.00000000000E+00 0.  1.
         23    2    1    2    0    0 -0.12613409583E+03 -0.40634207816E+03  0.12848748836E+03  0.45372443925E+03  0.91286020295E+02 0.  0.
         13    1    3    3    0    0 -0.12720779112E+03 -0.29670335465E+03  0.11745672650E+03  0.34352697912E+03  0.00000000000E+00 0. -1.
        -13    1    3    3    0    0  0.10736952856E+01 -0.10963872350E+03  0.11030761855E+02  0.11019746013E+03  0.00000000000E+00 0.  1.
         22    1    1    2    0    0  0.12613409583E+03  0.40634207816E+03  0.20567815152E+04  0.21003270925E+04  0.00000000000E+00 0. -1.
<mgrwt>
<rscale>  0 0.13220358E+04</rscale>
<asrwt>0</asrwt>
<pdfrwt beam="1">  1        2 0.36456310E+00 0.13220358E+04</pdfrwt>
<pdfrwt beam="2">  1       -2 0.28367888E-01 0.13220358E+04</pdfrwt>
<totfact> 0.46231244E+01</totfact>
</mgrwt>
</event>
<event>
 6    1  0.1014650E-006  0.8704670E+03  0.7818608E-02  0.9463271E-01
         -2   -1    0    0    0  501 -0.00000000000E+00  0.00000000000E+00  0.16806114430E+03  0.16806114430E+03  0.00000000000E+00 0.  1.
          2   -1    0    0  501    0  0.00000000000E+00 -0.00000000000E+00 -0.11271385829E+04  0.11271385829E+04  0.00000000000E+00 0. -1.
         23    2    1    2    0    0 -0.25256446236E+03 -0.33682574355E+03 -0.35097788672E+03  0.55558803572E+03  0.90841616626E+02 0.  0.
         13    1    3    3    0    0 -0.16391251588E+03 -0.14434704792E+03 -0.16671324869E+03  0.27476661077E+03  0.00000000000E+00 0. -1.
        -13    1    3    3    0    0 -0.88651946475E+02 -0.19247869563E+03 -0.18426463803E+03  0.28082142495E+03  0.00000000000E+00 0.  1.
         22    1    1    2    0    0  0.25256446236E+03  0.33682574355E+03 -0.60809955190E+03  0.73961169149E+03  0.00000000000E+00 0.  1.
<mgrwt>
<rscale>  0 0.87046700E+03</rscale>
<asrwt>0</asrwt>
<pdfrwt beam="1">  1        2 0.17340594E+00 0.87046700E+03</pdfrwt>
<pdfrwt beam="2">  1       -2 0.25855560E-01 0.87046700E+03</pdfrwt>
<totfact> 0.28345937E+02</totfact>
</mgrwt>
</event>
<event>
 6    1  0.1014650E-006  0.3872323E+04  0.7818608E-02  0.8030810E-01
         -1   -1    0    0    0  501 -0.00000000000E+00  0.00000000000E+00  0.50413856910E+04  0.50413856910E+04  0.00000000000E+00 0.  1.
          1   -1    0    0  501    0  0.00000000000E+00 -0.00000000000E+00 -0.74358954713E+03  0.74358954713E+03  0.00000000000E+00 0. -1.
         23    2    1    2    0    0 -0.56383394815E+03  0.87545302653E+03 -0.28665904265E+03  0.10837460287E+04  0.89472482822E+02 0.  0.
         11    1    3    3    0    0 -0.23691785916E+03  0.44711988270E+03 -0.15183817022E+03  0.52830019064E+03  0.00000000000E+00 0.  1.
        -11    1    3    3    0    0 -0.32691608899E+03  0.42833314383E+03 -0.13482087243E+03  0.55544583803E+03  0.00000000000E+00 0. -1.
         22    1    1    2    0    0  0.56383394815E+03 -0.87545302653E+03  0.45844551866E+04  0.47012292095E+04  0.00000000000E+00 0.  1.
<mgrwt>
<rscale>  0 0.38723232E+04</rscale>
<asrwt>0</asrwt>
<pdfrwt beam="1">  1        1 0.11439840E+00 0.38723232E+04</pdfrwt>
<pdfrwt beam="2">  1       -1 0.77559778E+00 0.38723232E+04</pdfrwt>
<totfact> 0.18851628E-03</totfact>
</mgrwt>
</event>
<event>
 6    1  0.1014650E-006  0.6124433E+03  0.7818608E-02  0.9879921E-01
         -1   -1    0    0    0  501 -0.00000000000E+00  0.00000000000E+00  0.19695304525E+04  0.19695304525E+04  0.00000000000E+00 0.  1.
          1   -1    0    0  501    0  0.00000000000E+00 -0.00000000000E+00 -0.47611195853E+02  0.47611195853E+02  0.00000000000E+00 0. -1.
         23    2    1    2    0    0  0.28080316789E+03  0.29716999905E+01  0.13241340755E+04  0.13566824347E+04  0.91634756642E+02 0.  0.
         11    1    3    3    0    0  0.76827969392E+02  0.39953984787E+02  0.45510760025E+03  0.46327290616E+03  0.00000000000E+00 0.  1.
        -11    1    3    3    0    0  0.20397519850E+03 -0.36982284797E+02  0.86902647522E+03  0.89340952851E+03  0.00000000000E+00 0. -1.
         22    1    1    2    0    0 -0.28080316789E+03 -0.29716999905E+01  0.59778518113E+03  0.66045921364E+03  0.00000000000E+00 0.  1.
<mgrwt>
<rscale>  0 0.61244330E+03</rscale>
<asrwt>0</asrwt>
<pdfrwt beam="1">  1        1 0.73248009E-02 0.61244330E+03</pdfrwt>
<pdfrwt beam="2">  1       -1 0.30300462E+00 0.61244330E+03</pdfrwt>
<totfact> 0.34526589E+01</totfact>
</mgrwt>
</event>
<event>
 6    1  0.1014650E-006  0.1644158E+04  0.7818608E-02  0.8793870E-01
          2   -1    0    0  501    0  0.00000000000E+00  0.00000000000E+00  0.92722674254E+03  0.92722674254E+03  0.00000000000E+00 0. -1.
         -2   -1    0    0    0  501 -0.00000000000E+00 -0.00000000000E+00 -0.72885491201E+03  0.72885491201E+03  0.00000000000E+00 0.  1.
         23    2    1    2    0    0  0.69319253746E+03 -0.38145129463E+03 -0.11648250500E+03  0.80452177012E+03  0.87556384376E+02 0.  0.
         13    1    3    3    0    0  0.42317659947E+03 -0.26197625967E+03 -0.38847552369E+02  0.49921851657E+03  0.00000000000E+00 0.  1.
        -13    1    3    3    0    0  0.27001593800E+03 -0.11947503497E+03 -0.77634952629E+02  0.30530325354E+03  0.00000000000E+00 0. -1.
         22    1    1    2    0    0 -0.69319253746E+03  0.38145129463E+03  0.31485433553E+03  0.85155988443E+03  0.00000000000E+00 0. -1.
<mgrwt>
<rscale>  0 0.16441579E+04</rscale>
<asrwt>0</asrwt>
<pdfrwt beam="1">  1        2 0.14265027E+00 0.16441579E+04</pdfrwt>
<pdfrwt beam="2">  1       -2 0.11213152E+00 0.16441579E+04</pdfrwt>
<totfact> 0.16848969E+01</totfact>
</mgrwt>
</event>
<event>
 6    1  0.1014650E-006  0.8390683E+03  0.7818608E-02  0.9505128E-01
          1   -1    0    0  501    0  0.00000000000E+00  0.00000000000E+00  0.16106127200E+04  0.16106127200E+04  0.00000000000E+00 0. -1.
         -1   -1    0    0    0  501 -0.00000000000E+00 -0.00000000000E+00 -0.10928071434E+03  0.10928071434E+03  0.00000000000E+00 0.  1.
         23    2    1    2    0    0  0.29458944945E+03  0.24875267842E+03  0.44520507451E+03  0.59558701105E+03  0.88631205654E+02 0.  0.
         13    1    3    3    0    0  0.12472733671E+03  0.50967549878E+02  0.14352809798E+03  0.19686267948E+03  0.00000000000E+00 0. -1.
        -13    1    3    3    0    0  0.16986211274E+03  0.19778512854E+03  0.30167697653E+03  0.39872433157E+03  0.00000000000E+00 0.  1.
         22    1    1    2    0    0 -0.29458944945E+03 -0.24875267842E+03  0.10561269311E+04  0.11243064233E+04  0.00000000000E+00 0.  1.
<mgrwt>
<rscale>  0 0.83906831E+03</rscale>
<asrwt>0</asrwt>
<pdfrwt beam="1">  1        1 0.24778655E+00 0.83906831E+03</pdfrwt>
<pdfrwt beam="2">  1       -1 0.16812419E-01 0.83906831E+03</pdfrwt>
<totfact> 0.15188662E+02</totfact>
</mgrwt>
</event>
<event>
 6    1  0.1014650E-006  0.1542887E+04  0.7818608E-02  0.8856424E-01
          2   -1    0    0  501    0  0.00000000000E+00  0.00000000000E+00  0.10237399554E+04  0.10237399554E+04  0.00000000000E+00 0. -1.
         -2   -1    0    0    0  501 -0.00000000000E+00 -0.00000000000E+00 -0.58132430518E+03  0.58132430518E+03  0.00000000000E+00 0.  1.
         23    2    1    2    0    0  0.74623353076E+03  0.15790262841E+03  0.32140800652E+03  0.83276860975E+03  0.91666396497E+02 0.  0.
         13    1    3    3    0    0  0.45843045590E+03  0.13674517742E+03  0.17711157201E+03  0.51012374517E+03  0.00000000000E+00 0.  1.
        -13    1    3    3    0    0  0.28780307486E+03  0.21157450989E+02  0.14429643451E+03  0.32264486459E+03  0.00000000000E+00 0. -1.
         22    1    1    2    0    0 -0.74623353076E+03 -0.15790262841E+03  0.12100764373E+03  0.77229565086E+03  0.00000000000E+00 0.  1.
<mgrwt>
<rscale>  0 0.15428868E+04</rscale>
<asrwt>0</asrwt>
<pdfrwt beam="1">  1        2 0.15749845E+00 0.15428868E+04</pdfrwt>
<pdfrwt beam="2">  1       -2 0.89434508E-01 0.15428868E+04</pdfrwt>
<totfact> 0.25123674E+01</totfact>
</mgrwt>
</event>
<event>
 6    1  0.1014650E-006  0.1851504E+04  0.7818608E-02  0.8679379E-01
         -2   -1    0    0    0  501 -0.00000000000E+00  0.00000000000E+00  0.58062635471E+03  0.58062635471E+03  0.00000000000E+00 0.  1.
          2   -1    0    0  501    0  0.00000000000E+00 -0.00000000000E+00 -0.14760219147E+04  0.14760219147E+04  0.00000000000E+00 0. -1.
         23    2    1    2    0    0  0.31145207609E+03 -0.83531021733E+03 -0.71663259323E+03  0.11474168615E+04  0.90871477589E+02 0.  0.
         13    1    3    3    0    0  0.22377947473E+03 -0.69036601866E+03 -0.55951472986E+03  0.91637286405E+03  0.00000000000E+00 0. -1.
        -13    1    3    3    0    0  0.87672601359E+02 -0.14494419867E+03 -0.15711786337E+03  0.23104399743E+03  0.00000000000E+00 0.  1.
         22    1    1    2    0    0 -0.31145207609E+03  0.83531021733E+03 -0.17876296676E+03  0.90923140793E+03  0.00000000000E+00 0.  1.
<mgrwt>
<rscale>  0 0.18515045E+04</rscale>
<asrwt>0</asrwt>
<pdfrwt beam="1">  1        2 0.22708029E+00 0.18515045E+04</pdfrwt>
<pdfrwt beam="2">  1       -2 0.89327132E-01 0.18515045E+04</pdfrwt>
<totfact> 0.13241106E+01</totfact>
</mgrwt>
</event>
<event>
 6    1  0.1014650E-006  0.2134989E+04  0.7818608E-02  0.8545985E-01
          1   -1    0    0  501    0  0.00000000000E+00  0.00000000000E+00  0.10171218772E+04  0.10171218772E+04  0.00000000000E+00 0. -1.
         -1   -1    0    0    0  501 -0.00000000000E+00 -0.00000000000E+00 -0.11203620281E+04  0.11203620281E+04  0.00000000000E+00 0.  1.
         23    2    1    2    0    0  0.39256492157E+03 -0.27119543795E+03 -0.10055596171E+04  0.11167809111E+04  0.91625742706E+02 0.  0.
         11    1    3    3    0    0  0.29890881677E+03 -0.18623612706E+03 -0.64797708428E+03  0.73749893391E+03  0.00000000000E+00 0. -1.
        -11    1    3    3    0    0  0.93656104795E+02 -0.84959310883E+02 -0.35758253277E+03  0.37928197718E+03  0.00000000000E+00 0.  1.
         22    1    1    2    0    0 -0.39256492157E+03  0.27119543795E+03  0.90231946615E+03  0.10207029941E+04  0.00000000000E+00 0. -1.
<mgrwt>
<rscale>  0 0.21349892E+04</rscale>
<asrwt>0</asrwt>
<pdfrwt beam="1">  1        1 0.15648029E+00 0.21349892E+04</pdfrwt>
<pdfrwt beam="2">  1       -1 0.17236339E+00 0.21349892E+04</pdfrwt>
<totfact> 0.31809119E+00</totfact>
</mgrwt>
</event>
<event>
 6    1  0.1014650E-006  0.3199658E+04  0.7818608E-02  0.8188908E-01
         -2   -1    0    0    0  501 -0.00000000000E+00  0.00000000000E+00  0.16876754573E+04  0.16876754573E+04  0.00000000000E+00 0.  1.
          2   -1    0    0  501    0  0.00000000000E+00 -0.00000000000E+00 -0.15165546740E+04  0.15165546740E+04  0.00000000000E+00 0. -1.
         23    2    1    2    0    0  0.13165536931E+04 -0.89252073187E+03 -0.73455811197E+02  0.15949680040E+04  0.92845538702E+02 0.  0.
         13    1    3    3    0    0  0.12983458795E+03 -0.74136699285E+02 -0.31608429589E+02  0.15281480043E+03  0.00000000000E+00 0. -1.
        -13    1    3    3    0    0  0.11867191052E+04 -0.81838403259E+03 -0.41847381608E+02  0.14421532036E+04  0.00000000000E+00 0.  1.
         22    1    1    2    0    0 -0.13165536931E+04  0.89252073187E+03  0.24457659442E+03  0.16092621273E+04  0.00000000000E+00 0.  1.
<mgrwt>
<rscale>  0 0.31996575E+04</rscale>
<asrwt>0</asrwt>
<pdfrwt beam="1">  1        2 0.23331610E+00 0.31996575E+04</pdfrwt>
<pdfrwt beam="2">  1       -2 0.25964238E+00 0.31996575E+04</pdfrwt>
<totfact> 0.58663889E-01</totfact>
</mgrwt>
</event>
<event>
 6    1  0.1014650E-006  0.1309491E+04  0.7818608E-02  0.9022073E-01
         -2   -1    0    0    0  501 -0.00000000000E+00  0.00000000000E+00  0.24381983934E+03  0.24381983934E+03  0.00000000000E+00 0.  1.
          2   -1    0    0  501    0  0.00000000000E+00 -0.00000000000E+00 -0.17582299614E+04  0.17582299614E+04  0.00000000000E+00 0. -1.
         23    2    1    2    0    0 -0.14886585540E+03 -0.58852964674E+03 -0.39927091799E+03  0.73237912199E+03  0.91835311163E+02 0.  0.
         11    1    3    3    0    0 -0.10456553571E+03 -0.39427236356E+03 -0.21551975234E+03  0.46133871675E+03  0.00000000000E+00 0. -1.
        -11    1    3    3    0    0 -0.44300319690E+02 -0.19425728318E+03 -0.18375116565E+03  0.27104040524E+03  0.00000000000E+00 0.  1.
         22    1    1    2    0    0  0.14886585540E+03  0.58852964674E+03 -0.11151392040E+04  0.12696706787E+04  0.00000000000E+00 0. -1.
<mgrwt>
<rscale>  0 0.13094905E+04</rscale>
<asrwt>0</asrwt>
<pdfrwt beam="1">  1        2 0.27049692E+00 0.13094905E+04</pdfrwt>
<pdfrwt beam="2">  1       -2 0.37510744E-01 0.13094905E+04</pdfrwt>
<totfact> 0.59766023E+01</totfact>
</mgrwt>
</event>
<event>
 6    1  0.1014650E-006  0.2639162E+04  0.7818608E-02  0.8355019E-01
          2   -1    0    0  501    0  0.00000000000E+00  0.00000000000E+00  0.24550795119E+04  0.24550795119E+04  0.00000000000E+00 0. -1.
         -2   -1    0    0    0  501 -0.00000000000E+00 -0.00000000000E+00 -0.70926168683E+03  0.70926168683E+03  0.00000000000E+00 0.  1.
         23    2    1    2    0    0 -0.10501573320E+04 -0.79185100367E+03  0.97637775032E+03  0.16405641604E+04  0.90988015206E+02 0.  0.
         13    1    3    3    0    0 -0.34479123146E+03 -0.22723604677E+03  0.26554836569E+03  0.49095126924E+03  0.00000000000E+00 0.  1.
        -13    1    3    3    0    0 -0.70536610057E+03 -0.56461495690E+03  0.71082938463E+03  0.11496128911E+04  0.00000000000E+00 0. -1.
         22    1    1    2    0    0  0.10501573320E+04  0.79185100367E+03  0.76944007472E+03  0.15237770384E+04  0.00000000000E+00 0.  1.
<mgrwt>
<rscale>  0 0.26391619E+04</rscale>
<asrwt>0</asrwt>
<pdfrwt beam="1">  1        2 0.37770453E+00 0.26391619E+04</pdfrwt>
<pdfrwt beam="2">  1       -2 0.10911718E+00 0.26391619E+04</pdfrwt>
<totfact> 0.21826801E+00</totfact>
</mgrwt>
</event>
<event>
 6    1  0.1014650E-006  0.2305833E+04  0.7818608E-02  0.8475625E-01
         -1   -1    0    0    0  501 -0.00000000000E+00  0.00000000000E+00  0.92490509186E+03  0.92490509186E+03  0.00000000000E+00 0.  1.
          1   -1    0    0  501    0  0.00000000000E+00 -0.00000000000E+00 -0.14371377936E+04  0.14371377936E+04  0.00000000000E+00 0. -1.
         23    2    1    2    0    0  0.93000891604E+02 -0.35363561367E+03 -0.13746994988E+04  0.14252631414E+04  0.88707368468E+02 0.  0.
         13    1    3    3    0    0  0.40712204471E+02 -0.23044020784E+03 -0.10107935922E+04  0.10375277630E+04  0.00000000000E+00 0.  1.
        -13    1    3    3    0    0  0.52288687133E+02 -0.12319540582E+03 -0.36390590656E+03  0.38773537838E+03  0.00000000000E+00 0. -1.
         22    1    1    2    0    0 -0.93000891604E+02  0.35363561367E+03  0.86246679697E+03  0.93677974411E+03  0.00000000000E+00 0.  1.
<mgrwt>
<rscale>  0 0.23058327E+04</rscale>
<asrwt>0</asrwt>
<pdfrwt beam="1">  1        1 0.22109812E+00 0.23058327E+04</pdfrwt>
<pdfrwt beam="2">  1       -1 0.14229309E+00 0.23058327E+04</pdfrwt>
<totfact> 0.26255891E+00</totfact>
</mgrwt>
</event>
<event>
 6    1  0.1014650E-006  0.6777568E+04  0.7818608E-02  0.7600820E-01
          2   -1    0    0  501    0  0.00000000000E+00  0.00000000000E+00  0.40343036477E+04  0.40343036477E+04  0.00000000000E+00 0. -1.
         -2   -1    0    0    0  501 -0.00000000000E+00 -0.00000000000E+00 -0.28465524144E+04  0.28465524144E+04  0.00000000000E+00 0.  1.
         23    2    1    2    0    0 -0.23286512703E+04 -0.13308209523E+04 -0.15078008235E+04  0.30782645725E+04  0.92457069493E+02 0.  0.
         11    1    3    3    0    0 -0.22156653566E+04 -0.12552815137E+04 -0.14102078496E+04  0.29109432887E+04  0.00000000000E+00 0.  1.
        -11    1    3    3    0    0 -0.11298591368E+03 -0.75539438589E+02 -0.97592973848E+02  0.16732128381E+03  0.00000000000E+00 0. -1.
         22    1    1    2    0    0  0.23286512703E+04  0.13308209523E+04  0.26955520568E+04  0.38025914895E+04  0.00000000000E+00 0. -1.
<mgrwt>
<rscale>  0 0.67775679E+04</rscale>
<asrwt>0</asrwt>
<pdfrwt beam="1">  1        2 0.62066210E+00 0.67775679E+04</pdfrwt>
<pdfrwt beam="2">  1       -2 0.43793114E+00 0.67775679E+04</pdfrwt>
<totfact> 0.84728675E-04</totfact>
</mgrwt>
</event>
<event>
 6    1  0.1014650E-006  0.2940009E+04  0.7818608E-02  0.8261072E-01
         -2   -1    0    0    0  501 -0.00000000000E+00  0.00000000000E+00  0.20850667450E+04  0.20850667450E+04  0.00000000000E+00 0.  1.
          2   -1    0    0  501    0  0.00000000000E+00 -0.00000000000E+00 -0.10363758670E+04  0.10363758670E+04  0.00000000000E+00 0. -1.
         23    2    1    2    0    0 -0.59221119459E+03 -0.98489787432E+03  0.14957275375E+04  0.18883247358E+04  0.88495872800E+02 0.  0.
         11    1    3    3    0    0 -0.21150174092E+03 -0.27322768094E+03  0.44473252772E+03  0.56318147454E+03  0.00000000000E+00 0. -1.
        -11    1    3    3    0    0 -0.38070945367E+03 -0.71167019338E+03  0.10509950098E+04  0.13251432612E+04  0.00000000000E+00 0.  1.
         22    1    1    2    0    0  0.59221119459E+03  0.98489787432E+03 -0.44703665941E+03  0.12331178762E+04  0.00000000000E+00 0. -1.
<mgrwt>
<rscale>  0 0.29400087E+04</rscale>
<asrwt>0</asrwt>
<pdfrwt beam="1">  1        2 0.15944244E+00 0.29400087E+04</pdfrwt>
<pdfrwt beam="2">  1       -2 0.32077950E+00 0.29400087E+04</pdfrwt>
<totfact> 0.48633552E-01</totfact>
</mgrwt>
</event>
<event>
 6    1  0.1014650E-006  0.2075578E+04  0.7818608E-02  0.8572079E-01
         -2   -1    0    0    0  501 -0.00000000000E+00  0.00000000000E+00  0.62890041020E+03  0.62890041020E+03  0.00000000000E+00 0.  1.
          2   -1    0    0  501    0  0.00000000000E+00 -0.00000000000E+00 -0.17125215505E+04  0.17125215505E+04  0.00000000000E+00 0. -1.
         23    2    1    2    0    0  0.60323737461E+03  0.17623273986E+03 -0.14718087341E+04  0.16027454978E+04  0.87286151137E+02 0.  0.
         13    1    3    3    0    0  0.41124621616E+03  0.77365000911E+02 -0.95920714210E+03  0.10465118896E+04  0.00000000000E+00 0.  1.
        -13    1    3    3    0    0  0.19199115844E+03  0.98867738947E+02 -0.51260159203E+03  0.55623360819E+03  0.00000000000E+00 0. -1.
         22    1    1    2    0    0 -0.60323737461E+03 -0.17623273986E+03  0.38818759387E+03  0.73867646284E+03  0.00000000000E+00 0.  1.
<mgrwt>
<rscale>  0 0.20755775E+04</rscale>
<asrwt>0</asrwt>
<pdfrwt beam="1">  1        2 0.26346485E+00 0.20755775E+04</pdfrwt>
<pdfrwt beam="2">  1       -2 0.96753910E-01 0.20755775E+04</pdfrwt>
<totfact> 0.79570120E+00</totfact>
</mgrwt>
</event>
<event>
 6    1  0.1014650E-006  0.1022820E+04  0.7818608E-02  0.9283864E-01
          1   -1    0    0  501    0  0.00000000000E+00  0.00000000000E+00  0.85388271423E+03  0.85388271423E+03  0.00000000000E+00 0. -1.
         -1   -1    0    0    0  501 -0.00000000000E+00 -0.00000000000E+00 -0.30629526399E+03  0.30629526399E+03  0.00000000000E+00 0.  1.
         23    2    1    2    0    0  0.88654238470E+02  0.16203033931E+03 -0.25803508850E+03  0.33365448805E+03  0.10310094879E+03 0.  0.
         11    1    3    3    0    0  0.99210635053E+02  0.92104808729E+02 -0.13166657068E+03  0.18884419963E+03  0.00000000000E+00 0. -1.
        -11    1    3    3    0    0 -0.10556396583E+02  0.69925530585E+02 -0.12636851782E+03  0.14481028842E+03  0.00000000000E+00 0.  1.
         22    1    1    2    0    0 -0.88654238470E+02 -0.16203033931E+03  0.80562253875E+03  0.82652349016E+03  0.00000000000E+00 0. -1.
<mgrwt>
<rscale>  0 0.10228201E+04</rscale>
<asrwt>0</asrwt>
<pdfrwt beam="1">  1        1 0.13136657E+00 0.10228201E+04</pdfrwt>
<pdfrwt beam="2">  1       -1 0.47122349E-01 0.10228201E+04</pdfrwt>
<totfact> 0.89344462E+01</totfact>
</mgrwt>
</event>
<event>
 6    1  0.1014650E-006  0.3980589E+04  0.7818608E-02  0.8008474E-01
         -2   -1    0    0    0  501 -0.00000000000E+00  0.00000000000E+00  0.29902507551E+04  0.29902507551E+04  0.00000000000E+00 0.  1.
          2   -1    0    0  501    0  0.00000000000E+00 -0.00000000000E+00 -0.13247293384E+04  0.13247293384E+04  0.00000000000E+00 0. -1.
         23    2    1    2    0    0 -0.16274484453E+04 -0.11394338738E+04  0.72238862547E+03  0.21157990058E+04  0.88668549550E+02 0.  0.
         13    1    3    3    0    0 -0.73330622458E+03 -0.48186391611E+03  0.35692895949E+03  0.94727458256E+03  0.00000000000E+00 0.  1.
        -13    1    3    3    0    0 -0.89414222075E+03 -0.65756995769E+03  0.36545966598E+03  0.11685244232E+04  0.00000000000E+00 0. -1.
         22    1    1    2    0    0  0.16274484453E+04  0.11394338738E+04  0.94313279119E+03  0.21991810878E+04  0.00000000000E+00 0. -1.
<mgrwt>
<rscale>  0 0.39805894E+04</rscale>
<asrwt>0</asrwt>
<pdfrwt beam="1">  1        2 0.20380451E+00 0.39805894E+04</pdfrwt>
<pdfrwt beam="2">  1       -2 0.46003858E+00 0.39805894E+04</pdfrwt>
<totfact> 0.37657960E-02</totfact>
</mgrwt>
</event>
<event>
 6    1  0.1014650E-006  0.4345887E+03  0.7818608E-02  0.1032420E+00
         -2   -1    0    0    0  501 -0.00000000000E+00  0.00000000000E+00  0.14680801987E+03  0.14680801987E+03  0.00000000000E+00 0.  1.
          2   -1    0    0  501    0  0.00000000000E+00 -0.00000000000E+00 -0.32162300126E+03  0.32162300126E+03  0.00000000000E+00 0. -1.
         23    2    1    2    0    0 -0.10400147191E+03 -0.17910787954E+03 -0.71338336133E+02  0.23690703795E+03  0.90221104831E+02 0.  0.
         13    1    3    3    0    0 -0.50847196179E+02 -0.14664675160E+03 -0.78991518127E+02  0.17415615708E+03  0.00000000000E+00 0.  1.
        -13    1    3    3    0    0 -0.53154275728E+02 -0.32461127944E+02  0.76531819943E+01  0.62750880872E+02  0.00000000000E+00 0. -1.
         22    1    1    2    0    0  0.10400147191E+03  0.17910787954E+03 -0.10347664526E+03  0.23152398318E+03  0.00000000000E+00 0.  1.
<mgrwt>
<rscale>  0 0.43458871E+03</rscale>
<asrwt>0</asrwt>
<pdfrwt beam="1">  1        2 0.49480461E-01 0.43458871E+03</pdfrwt>
<pdfrwt beam="2">  1       -2 0.22585849E-01 0.43458871E+03</pdfrwt>
<totfact> 0.17360153E+03</totfact>
</mgrwt>
</event>
<event>
 6    1  0.1014650E-006  0.3317758E+04  0.7818608E-02  0.8158392E-01
         -2   -1    0    0    0  501 -0.00000000000E+00  0.00000000000E+00  0.12294050474E+04  0.12294050474E+04  0.00000000000E+00 0.  1.
          2   -1    0    0  501    0  0.00000000000E+00 -0.00000000000E+00 -0.22383829979E+04  0.22383829979E+04  0.00000000000E+00 0. -1.
         23    2    1    2    0    0  0.15260768783E+04 -0.63603513165E+03 -0.62935976215E+03  0.17714504327E+04  0.92149866856E+02 0.  0.
         11    1    3    3    0    0  0.86627297822E+03 -0.37847912835E+03 -0.31402427332E+03  0.99613581786E+03  0.00000000000E+00 0.  1.
        -11    1    3    3    0    0  0.65980390009E+03 -0.25755600330E+03 -0.31533548883E+03  0.77531461480E+03  0.00000000000E+00 0. -1.
         22    1    1    2    0    0 -0.15260768783E+04  0.63603513165E+03 -0.37961818838E+03  0.16963376127E+04  0.00000000000E+00 0.  1.
<mgrwt>
<rscale>  0 0.33177579E+04</rscale>
<asrwt>0</asrwt>
<pdfrwt beam="1">  1        2 0.34436661E+00 0.33177579E+04</pdfrwt>
<pdfrwt beam="2">  1       -2 0.18913924E+00 0.33177579E+04</pdfrwt>
<totfact> 0.64360336E-01</totfact>
</mgrwt>
</event>
<event>
 6    1  0.1014650E-006  0.1912300E+04  0.7818608E-02  0.8648758E-01
          1   -1    0    0  501    0  0.00000000000E+00  0.00000000000E+00  0.97540083051E+03  0.97540083051E+03  0.00000000000E+00 0. -1.
         -1   -1    0    0    0  501 -0.00000000000E+00 -0.00000000000E+00 -0.93727888155E+03  0.93727888155E+03  0.00000000000E+00 0.  1.
         23    2    1    2    0    0  0.54098436084E+03 -0.56345738584E+03 -0.52822013511E+03  0.94785244228E+03  0.96225967746E+02 0.  0.
         11    1    3    3    0    0  0.38285213493E+03 -0.45226574760E+03 -0.37573225758E+03  0.70163722325E+03  0.00000000000E+00 0. -1.
        -11    1    3    3    0    0  0.15813222591E+03 -0.11119163825E+03 -0.15248787752E+03  0.24621521903E+03  0.00000000000E+00 0.  1.
         22    1    1    2    0    0 -0.54098436084E+03  0.56345738584E+03  0.56634208406E+03  0.96482726978E+03  0.00000000000E+00 0. -1.
<mgrwt>
<rscale>  0 0.19122998E+04</rscale>
<asrwt>0</asrwt>
<pdfrwt beam="1">  1        1 0.15006167E+00 0.19122998E+04</pdfrwt>
<pdfrwt beam="2">  1       -1 0.14419675E+00 0.19122998E+04</pdfrwt>
<totfact> 0.57342912E+00</totfact>
</mgrwt>
</event>
<event>
 6    1  0.1014650E-006  0.1389861E+04  0.7818608E-02  0.8961190E-01
         -1   -1    0    0    0  501 -0.00000000000E+00  0.00000000000E+00  0.33852858969E+03  0.33852858969E+03  0.00000000000E+00 0.  1.
          1   -1    0    0  501    0  0.00000000000E+00 -0.00000000000E+00 -0.14265523114E+04  0.14265523114E+04  0.00000000000E+00 0. -1.
         23    2    1    2    0    0 -0.89545028843E+02 -0.84974966649E+02 -0.14110079780E+04  0.14193094635E+04  0.90866836856E+02 0.  0.
         13    1    3    3    0    0 -0.48160265133E+02 -0.63248007963E+02 -0.43642409716E+03  0.44360535866E+03  0.00000000000E+00 0. -1.
        -13    1    3    3    0    0 -0.41384763710E+02 -0.21726958686E+02 -0.97458388088E+03  0.97570410488E+03  0.00000000000E+00 0.  1.
         22    1    1    2    0    0  0.89545028843E+02  0.84974966649E+02  0.32298425637E+03  0.34577143752E+03  0.00000000000E+00 0.  1.
<mgrwt>
<rscale>  0 0.13898615E+04</rscale>
<asrwt>0</asrwt>
<pdfrwt beam="1">  1        1 0.21946958E+00 0.13898615E+04</pdfrwt>
<pdfrwt beam="2">  1       -1 0.52081322E-01 0.13898615E+04</pdfrwt>
<totfact> 0.26660615E+01</totfact>
</mgrwt>
</event>
<event>
 6    1  0.1014650E-006  0.1003813E+04  0.7818608E-02  0.9304373E-01
          2   -1    0    0  501    0  0.00000000000E+00  0.00000000000E+00  0.84881075428E+03  0.84881075428E+03  0.00000000000E+00 0. -1.
         -2   -1    0    0    0  501 -0.00000000000E+00 -0.00000000000E+00 -0.29678005024E+03  0.29678005024E+03  0.00000000000E+00 0.  1.
         23    2    1    2    0    0 -0.33080380318E+03  0.22726388734E+03 -0.57888455066E+02  0.41546656075E+03  0.90450866160E+02 0.  0.
         13    1    3    3    0    0 -0.11388182866E+03  0.67558395273E+02  0.22598449076E+02  0.13432757561E+03  0.00000000000E+00 0.  1.
        -13    1    3    3    0    0 -0.21692197452E+03  0.15970549207E+03 -0.80486904142E+02  0.28113898514E+03  0.00000000000E+00 0. -1.
         22    1    1    2    0    0  0.33080380318E+03 -0.22726388734E+03  0.60991915910E+03  0.73012424376E+03  0.00000000000E+00 0. -1.
<mgrwt>
<rscale>  0 0.10038129E+04</rscale>
<asrwt>0</asrwt>
<pdfrwt beam="1">  1        2 0.13058627E+00 0.10038129E+04</pdfrwt>
<pdfrwt beam="2">  1       -2 0.45658470E-01 0.10038129E+04</pdfrwt>
<totfact> 0.14433641E+02</totfact>
</mgrwt>
</event>
<event>
 6    1  0.1014650E-006  0.2032034E+04  0.7818608E-02  0.8591789E-01
         -1   -1    0    0    0  501 -0.00000000000E+00  0.00000000000E+00  0.95909399432E+03  0.95909399432E+03  0.00000000000E+00 0.  1.
          1   -1    0    0  501    0  0.00000000000E+00 -0.00000000000E+00 -0.10763183794E+04  0.10763183794E+04  0.00000000000E+00 0. -1.
         23    2    1    2    0    0  0.78499035965E+03  0.37131356363E+03 -0.58302273318E+03  0.10499928040E+04  0.92118150735E+02 0.  0.
         13    1    3    3    0    0  0.12894343823E+03  0.25927222708E+02 -0.77858907206E+02  0.15284188095E+03  0.00000000000E+00 0.  1.
        -13    1    3    3    0    0  0.65604692142E+03  0.34538634092E+03 -0.50516382597E+03  0.89715092301E+03  0.00000000000E+00 0. -1.
         22    1    1    2    0    0 -0.78499035965E+03 -0.37131356363E+03  0.46579834813E+03  0.98541956972E+03  0.00000000000E+00 0.  1.
<mgrwt>
<rscale>  0 0.20320340E+04</rscale>
<asrwt>0</asrwt>
<pdfrwt beam="1">  1        1 0.16558744E+00 0.20320340E+04</pdfrwt>
<pdfrwt beam="2">  1       -1 0.14755292E+00 0.20320340E+04</pdfrwt>
<totfact> 0.44580939E+00</totfact>
</mgrwt>
</event>
<event>
 6    1  0.1014650E-006  0.1189705E+04  0.7818608E-02  0.9121915E-01
          1   -1    0    0  501    0  0.00000000000E+00  0.00000000000E+00  0.34840735176E+03  0.34840735176E+03  0.00000000000E+00 0. -1.
         -1   -1    0    0    0  501 -0.00000000000E+00 -0.00000000000E+00 -0.10156205325E+04  0.10156205325E+04  0.00000000000E+00 0.  1.
         23    2    1    2    0    0 -0.33022305849E+03 -0.44937295697E+03 -0.55941076934E+03  0.79604488919E+03  0.98811608306E+02 0.  0.
         11    1    3    3    0    0 -0.23212856109E+03 -0.32763058837E+03 -0.46081007504E+03  0.61120487282E+03  0.00000000000E+00 0.  1.
        -11    1    3    3    0    0 -0.98094497401E+02 -0.12174236860E+03 -0.98600694306E+02  0.18484001637E+03  0.00000000000E+00 0. -1.
         22    1    1    2    0    0  0.33022305849E+03  0.44937295697E+03 -0.10780241142E+03  0.56798299510E+03  0.00000000000E+00 0. -1.
<mgrwt>
<rscale>  0 0.11897053E+04</rscale>
<asrwt>0</asrwt>
<pdfrwt beam="1">  1        1 0.53601132E-01 0.11897053E+04</pdfrwt>
<pdfrwt beam="2">  1       -1 0.15624931E+00 0.11897053E+04</pdfrwt>
<totfact> 0.22276094E+01</totfact>
</mgrwt>
</event>
<event>
 6    1  0.1014650E-006  0.2011932E+04  0.7818608E-02  0.8601062E-01
         -2   -1    0    0    0  501 -0.00000000000E+00  0.00000000000E+00  0.13067128760E+04  0.13067128760E+04  0.00000000000E+00 0.  1.
          2   -1    0    0  501    0  0.00000000000E+00 -0.00000000000E+00 -0.77443775954E+03  0.77443775954E+03  0.00000000000E+00 0. -1.
         23    2    1    2    0    0  0.30530247693E+03 -0.80992428829E+03 -0.25935903125E+03  0.90817511194E+03  0.91257721137E+02 0.  0.
         13    1    3    3    0    0  0.95692267395E+02 -0.35086072348E+03 -0.78188203367E+02  0.37198609176E+03  0.00000000000E+00 0. -1.
        -13    1    3    3    0    0  0.20961020954E+03 -0.45906356481E+03 -0.18117082788E+03  0.53618902018E+03  0.00000000000E+00 0.  1.
         22    1    1    2    0    0 -0.30530247693E+03  0.80992428829E+03  0.79163414771E+03  0.11729755236E+04  0.00000000000E+00 0.  1.
<mgrwt>
<rscale>  0 0.20119322E+04</rscale>
<asrwt>0</asrwt>
<pdfrwt beam="1">  1        2 0.11914427E+00 0.20119322E+04</pdfrwt>
<pdfrwt beam="2">  1       -2 0.20103275E+00 0.20119322E+04</pdfrwt>
<totfact> 0.43679925E+00</totfact>
</mgrwt>
</event>
<event>
 6    1  0.1014650E-006  0.5315130E+04  0.7818608E-02  0.7781653E-01
          2   -1    0    0  501    0  0.00000000000E+00  0.00000000000E+00  0.22229804396E+04  0.22229804396E+04  0.00000000000E+00 0. -1.
         -2   -1    0    0    0  501 -0.00000000000E+00 -0.00000000000E+00 -0.31771090315E+04  0.31771090315E+04  0.00000000000E+00 0.  1.
         23    2    1    2    0    0  0.22226827418E+04  0.12370137030E+04 -0.12562512844E+04  0.28384884886E+04  0.91258634336E+02 0.  0.
         13    1    3    3    0    0  0.80695080032E+03  0.49554263548E+03 -0.48672423183E+03  0.10647218301E+04  0.00000000000E+00 0. -1.
        -13    1    3    3    0    0  0.14157319415E+04  0.74147106747E+03 -0.76952705257E+03  0.17737666585E+04  0.00000000000E+00 0.  1.
         22    1    1    2    0    0 -0.22226827418E+04 -0.12370137030E+04  0.30212269246E+03  0.25616009825E+04  0.00000000000E+00 0. -1.
<mgrwt>
<rscale>  0 0.53151298E+04</rscale>
<asrwt>0</asrwt>
<pdfrwt beam="1">  1        2 0.34199699E+00 0.53151298E+04</pdfrwt>
<pdfrwt beam="2">  1       -2 0.48878600E+00 0.53151298E+04</pdfrwt>
<totfact> 0.69546808E-03</totfact>
</mgrwt>
</event>
<event>
 6    1  0.1014650E-006  0.1089065E+04  0.7818608E-02  0.9215915E-01
          4   -1    0    0  501    0  0.00000000000E+00  0.00000000000E+00  0.79092179136E+03  0.79092179136E+03  0.00000000000E+00 0. -1.
         -4   -1    0    0    0  501 -0.00000000000E+00 -0.00000000000E+00 -0.37489910956E+03  0.37489910956E+03  0.00000000000E+00 0.  1.
         23    2    1    2    0    0  0.47248309244E+03 -0.57173290877E+02  0.48394444723E+03  0.68506896483E+03  0.92780389799E+02 0.  0.
         11    1    3    3    0    0  0.23260602969E+03 -0.48148190300E+02  0.29997184125E+03  0.38263157060E+03  0.00000000000E+00 0.  1.
        -11    1    3    3    0    0  0.23987706275E+03 -0.90251005767E+01  0.18397260597E+03  0.30243739422E+03  0.00000000000E+00 0. -1.
         22    1    1    2    0    0 -0.47248309244E+03  0.57173290877E+02 -0.67921765424E+02  0.48075193609E+03  0.00000000000E+00 0.  1.
<mgrwt>
<rscale>  0 0.10890654E+04</rscale>
<asrwt>0</asrwt>
<pdfrwt beam="1">  1        4 0.12168028E+00 0.10890654E+04</pdfrwt>
<pdfrwt beam="2">  1       -4 0.57676786E-01 0.10890654E+04</pdfrwt>
<totfact> 0.28857786E+00</totfact>
</mgrwt>
</event>
<event>
 6    1  0.1014650E-006  0.4004719E+04  0.7818608E-02  0.8003595E-01
         -1   -1    0    0    0  501 -0.00000000000E+00  0.00000000000E+00  0.13063942125E+04  0.13063942125E+04  0.00000000000E+00 0.  1.
          1   -1    0    0  501    0  0.00000000000E+00 -0.00000000000E+00 -0.30690923502E+04  0.30690923502E+04  0.00000000000E+00 0. -1.
         23    2    1    2    0    0 -0.92062026753E+03  0.15344390234E+04  0.97375218352E+02  0.17944174657E+04  0.91691409391E+02 0.  0.
         13    1    3    3    0    0 -0.90400386351E+03  0.14846789933E+04  0.83974799516E+02  0.17402719515E+04  0.00000000000E+00 0.  1.
        -13    1    3    3    0    0 -0.16616404024E+02  0.49760030155E+02  0.13400418836E+02  0.54145514206E+02  0.00000000000E+00 0. -1.
         22    1    1    2    0    0  0.92062026753E+03 -0.15344390234E+04 -0.18600733560E+04  0.25810690970E+04  0.00000000000E+00 0.  1.
<mgrwt>
<rscale>  0 0.40047195E+04</rscale>
<asrwt>0</asrwt>
<pdfrwt beam="1">  1        1 0.47216804E+00 0.40047195E+04</pdfrwt>
<pdfrwt beam="2">  1       -1 0.20098373E+00 0.40047195E+04</pdfrwt>
<totfact> 0.61618591E-02</totfact>
</mgrwt>
</event>
<event>
 6    1  0.1014650E-006  0.1730727E+04  0.7818608E-02  0.8744031E-01
          1   -1    0    0  501    0  0.00000000000E+00  0.00000000000E+00  0.12966032910E+04  0.12966032910E+04  0.00000000000E+00 0. -1.
         -1   -1    0    0    0  501 -0.00000000000E+00 -0.00000000000E+00 -0.57755041406E+03  0.57755041406E+03  0.00000000000E+00 0.  1.
         23    2    1    2    0    0 -0.37254299202E+03  0.72782323421E+03  0.61511371520E+02  0.82492743180E+03  0.90590715649E+02 0.  0.
         11    1    3    3    0    0 -0.19839645770E+03  0.42092195081E+03 -0.74025846089E+01  0.46539364130E+03  0.00000000000E+00 0. -1.
        -11    1    3    3    0    0 -0.17414653432E+03  0.30690128339E+03  0.68913956129E+02  0.35953379050E+03  0.00000000000E+00 0.  1.
         22    1    1    2    0    0  0.37254299202E+03 -0.72782323421E+03  0.65754150546E+03  0.10492262733E+04  0.00000000000E+00 0. -1.
<mgrwt>
<rscale>  0 0.17307267E+04</rscale>
<asrwt>0</asrwt>
<pdfrwt beam="1">  1        1 0.19947743E+00 0.17307267E+04</pdfrwt>
<pdfrwt beam="2">  1       -1 0.88853910E-01 0.17307267E+04</pdfrwt>
<totfact> 0.10728946E+01</totfact>
</mgrwt>
</event>
<event>
 6    1  0.1014650E-006  0.1252785E+04  0.7818608E-02  0.9067869E-01
         -1   -1    0    0    0  501 -0.00000000000E+00  0.00000000000E+00  0.25929489809E+03  0.25929489809E+03  0.00000000000E+00 0.  1.
          1   -1    0    0  501    0  0.00000000000E+00 -0.00000000000E+00 -0.15132086256E+04  0.15132086256E+04  0.00000000000E+00 0. -1.
         23    2    1    2    0    0 -0.53460775825E+03  0.26374142864E+03 -0.88599031376E+03  0.10719804086E+04  0.93798528828E+02 0.  0.
         11    1    3    3    0    0 -0.22416939789E+03  0.60236426100E+02 -0.35224792963E+03  0.42185181037E+03  0.00000000000E+00 0.  1.
        -11    1    3    3    0    0 -0.31043836036E+03  0.20350500254E+03 -0.53374238413E+03  0.65012859825E+03  0.00000000000E+00 0. -1.
         22    1    1    2    0    0  0.53460775825E+03 -0.26374142864E+03 -0.36792341372E+03  0.70052311506E+03  0.00000000000E+00 0.  1.
<mgrwt>
<rscale>  0 0.12527845E+04</rscale>
<asrwt>0</asrwt>
<pdfrwt beam="1">  1        1 0.23280133E+00 0.12527845E+04</pdfrwt>
<pdfrwt beam="2">  1       -1 0.39891523E-01 0.12527845E+04</pdfrwt>
<totfact> 0.38650615E+01</totfact>
</mgrwt>
</event>
<event>
 6    1  0.1014650E-006  0.3479462E+04  0.7818608E-02  0.8118675E-01
         -2   -1    0    0    0  501 -0.00000000000E+00  0.00000000000E+00  0.86637163785E+03  0.86637163785E+03  0.00000000000E+00 0.  1.
          2   -1    0    0  501    0  0.00000000000E+00 -0.00000000000E+00 -0.34934935720E+04  0.34934935720E+04  0.00000000000E+00 0. -1.
         23    2    1    2    0    0  0.68943808710E+03  0.29021830433E+03  0.65202482670E+03  0.99648075082E+03  0.91027314563E+02 0.  0.
         13    1    3    3    0    0  0.13347309026E+03  0.95383400891E+02  0.15530403282E+03  0.22590352277E+03  0.00000000000E+00 0.  1.
        -13    1    3    3    0    0  0.55596499684E+03  0.19483490344E+03  0.49672079389E+03  0.77057722805E+03  0.00000000000E+00 0. -1.
         22    1    1    2    0    0 -0.68943808710E+03 -0.29021830433E+03 -0.32791467608E+04  0.33633844590E+04  0.00000000000E+00 0. -1.
<mgrwt>
<rscale>  0 0.34794619E+04</rscale>
<asrwt>0</asrwt>
<pdfrwt beam="1">  1        2 0.53746056E+00 0.34794619E+04</pdfrwt>
<pdfrwt beam="2">  1       -2 0.13328794E+00 0.34794619E+04</pdfrwt>
<totfact> 0.27517649E-01</totfact>
</mgrwt>
</event>
<event>
 6    1  0.1014650E-006  0.5187415E+04  0.7818608E-02  0.7800230E-01
         -2   -1    0    0    0  501 -0.00000000000E+00  0.00000000000E+00  0.27553032547E+04  0.27553032547E+04  0.00000000000E+00 0.  1.
          2   -1    0    0  501    0  0.00000000000E+00 -0.00000000000E+00 -0.24415893070E+04  0.24415893070E+04  0.00000000000E+00 0. -1.
         23    2    1    2    0    0  0.82925972795E+03 -0.58271586950E+03  0.25479207283E+04  0.27435459861E+04  0.88966619908E+02 0.  0.
         13    1    3    3    0    0  0.46404506631E+03 -0.37907361869E+03  0.15167573784E+04  0.16308242017E+04  0.00000000000E+00 0. -1.
        -13    1    3    3    0    0  0.36521466164E+03 -0.20364225081E+03  0.10311633499E+04  0.11127217844E+04  0.00000000000E+00 0.  1.
         22    1    1    2    0    0 -0.82925972795E+03  0.58271586950E+03 -0.22342067806E+04  0.24533465755E+04  0.00000000000E+00 0. -1.
<mgrwt>
<rscale>  0 0.51874151E+04</rscale>
<asrwt>0</asrwt>
<pdfrwt beam="1">  1        2 0.37562912E+00 0.51874151E+04</pdfrwt>
<pdfrwt beam="2">  1       -2 0.42389281E+00 0.51874151E+04</pdfrwt>
<totfact> 0.13971020E-02</totfact>
</mgrwt>
</event>
<event>
 6    1  0.1014650E-006  0.5778813E+04  0.7818608E-02  0.7718448E-01
         -2   -1    0    0    0  501 -0.00000000000E+00  0.00000000000E+00  0.27731835924E+04  0.27731835924E+04  0.00000000000E+00 0.  1.
          2   -1    0    0  501    0  0.00000000000E+00 -0.00000000000E+00 -0.30105005375E+04  0.30105005375E+04  0.00000000000E+00 0. -1.
         23    2    1    2    0    0 -0.18726768981E+04 -0.48665856911E+03  0.20280644460E+04  0.28044714529E+04  0.90881272459E+02 0.  0.
         11    1    3    3    0    0 -0.70379753111E+02 -0.12895627981E+02  0.10065653732E+03  0.12349633750E+03  0.00000000000E+00 0.  1.
        -11    1    3    3    0    0 -0.18022971450E+04 -0.47376294113E+03  0.19274079086E+04  0.26809751154E+04  0.00000000000E+00 0. -1.
         22    1    1    2    0    0  0.18726768981E+04  0.48665856911E+03 -0.22653813911E+04  0.29792126769E+04  0.00000000000E+00 0. -1.
<mgrwt>
<rscale>  0 0.57788133E+04</rscale>
<asrwt>0</asrwt>
<pdfrwt beam="1">  1        2 0.46315393E+00 0.57788133E+04</pdfrwt>
<pdfrwt beam="2">  1       -2 0.42664363E+00 0.57788133E+04</pdfrwt>
<totfact> 0.58308799E-03</totfact>
</mgrwt>
</event>
<event>
 6    1  0.1014650E-006  0.3024591E+04  0.7818608E-02  0.8236744E-01
          1   -1    0    0  501    0  0.00000000000E+00  0.00000000000E+00  0.18416137834E+04  0.18416137834E+04  0.00000000000E+00 0. -1.
         -1   -1    0    0    0  501 -0.00000000000E+00 -0.00000000000E+00 -0.12418657538E+04  0.12418657538E+04  0.00000000000E+00 0.  1.
         23    2    1    2    0    0 -0.33458115750E+03  0.74471473188E+03 -0.99597897326E+03  0.12910261206E+04  0.90717948070E+02 0.  0.
         11    1    3    3    0    0 -0.72120084483E+02  0.13187684931E+03 -0.13439512601E+03  0.20163050331E+03  0.00000000000E+00 0. -1.
        -11    1    3    3    0    0 -0.26246107302E+03  0.61283788256E+03 -0.86158384725E+03  0.10893956173E+04  0.00000000000E+00 0.  1.
         22    1    1    2    0    0  0.33458115750E+03 -0.74471473188E+03  0.15957270029E+04  0.17924534166E+04  0.00000000000E+00 0. -1.
<mgrwt>
<rscale>  0 0.30245906E+04</rscale>
<asrwt>0</asrwt>
<pdfrwt beam="1">  1        1 0.28332520E+00 0.30245906E+04</pdfrwt>
<pdfrwt beam="2">  1       -1 0.19105627E+00 0.30245906E+04</pdfrwt>
<totfact> 0.56315320E-01</totfact>
</mgrwt>
</event>
<event>
 6    1  0.1014650E-006  0.2655751E+04  0.7818608E-02  0.8349507E-01
         -1   -1    0    0    0  501 -0.00000000000E+00  0.00000000000E+00  0.13336414709E+04  0.13336414709E+04  0.00000000000E+00 0.  1.
          1   -1    0    0  501    0  0.00000000000E+00 -0.00000000000E+00 -0.13221349507E+04  0.13221349507E+04  0.00000000000E+00 0. -1.
         23    2    1    2    0    0  0.92454892061E+03  0.35012387277E+03 -0.87843333656E+03  0.13255995983E+04  0.90508205279E+02 0.  0.
         11    1    3    3    0    0  0.42452765845E+03  0.19738507747E+03 -0.45444024447E+03  0.65245730695E+03  0.00000000000E+00 0.  1.
        -11    1    3    3    0    0  0.50002126216E+03  0.15273879530E+03 -0.42399309209E+03  0.67314229130E+03  0.00000000000E+00 0. -1.
         22    1    1    2    0    0 -0.92454892061E+03 -0.35012387277E+03  0.88993985668E+03  0.13301768234E+04  0.00000000000E+00 0.  1.
<mgrwt>
<rscale>  0 0.26557515E+04</rscale>
<asrwt>0</asrwt>
<pdfrwt beam="1">  1        1 0.20340538E+00 0.26557515E+04</pdfrwt>
<pdfrwt beam="2">  1       -1 0.20517561E+00 0.26557515E+04</pdfrwt>
<totfact> 0.10601653E+00</totfact>
</mgrwt>
</event>
<event>
 6    1  0.1014650E-006  0.2952412E+04  0.7818608E-02  0.8257452E-01
          1   -1    0    0  501    0  0.00000000000E+00  0.00000000000E+00  0.13954343350E+04  0.13954343350E+04  0.00000000000E+00 0. -1.
         -1   -1    0    0    0  501 -0.00000000000E+00 -0.00000000000E+00 -0.15616529210E+04  0.15616529210E+04  0.00000000000E+00 0.  1.
         23    2    1    2    0    0  0.88271472582E+03  0.38272378978E+03 -0.12026446207E+04  0.15429296580E+04  0.92817344411E+02 0.  0.
         11    1    3    3    0    0  0.35275305460E+03  0.20221649364E+03 -0.51789679005E+03  0.65844006027E+03  0.00000000000E+00 0.  1.
        -11    1    3    3    0    0  0.52996167122E+03  0.18050729614E+03 -0.68474783066E+03  0.88448959774E+03  0.00000000000E+00 0. -1.
         22    1    1    2    0    0 -0.88271472582E+03 -0.38272378978E+03  0.10364260348E+04  0.14141575980E+04  0.00000000000E+00 0. -1.
<mgrwt>
<rscale>  0 0.29524120E+04</rscale>
<asrwt>0</asrwt>
<pdfrwt beam="1">  1        1 0.21468220E+00 0.29524120E+04</pdfrwt>
<pdfrwt beam="2">  1       -1 0.24025430E+00 0.29524120E+04</pdfrwt>
<totfact> 0.53415676E-01</totfact>
</mgrwt>
</event>
<event>
 6    1  0.1014650E-006  0.3759549E+04  0.7818608E-02  0.8054892E-01
          2   -1    0    0  501    0  0.00000000000E+00  0.00000000000E+00  0.27795956195E+04  0.27795956195E+04  0.00000000000E+00 0. -1.
         -2   -1    0    0    0  501 -0.00000000000E+00 -0.00000000000E+00 -0.12712468870E+04  0.12712468870E+04  0.00000000000E+00 0.  1.
         23    2    1    2    0    0 -0.56257417693E+03  0.15022529868E+04  0.18085259008E+04  0.24188620919E+04  0.82910462980E+02 0.  0.
         13    1    3    3    0    0 -0.34944486459E+03  0.10396417975E+04  0.12204406883E+04  0.16408663121E+04  0.00000000000E+00 0. -1.
        -13    1    3    3    0    0 -0.21312931234E+03  0.46261118938E+03  0.58808521251E+03  0.77799577987E+03  0.00000000000E+00 0.  1.
         22    1    1    2    0    0  0.56257417693E+03 -0.15022529868E+04 -0.30017716838E+03  0.16319804145E+04  0.00000000000E+00 0.  1.
<mgrwt>
<rscale>  0 0.37595491E+04</rscale>
<asrwt>0</asrwt>
<pdfrwt beam="1">  1        2 0.42763009E+00 0.37595491E+04</pdfrwt>
<pdfrwt beam="2">  1       -2 0.19557645E+00 0.37595491E+04</pdfrwt>
<totfact> 0.27217620E-01</totfact>
</mgrwt>
</event>
<event>
 6    1  0.1014650E-006  0.1393456E+04  0.7818608E-02  0.8958569E-01
         -1   -1    0    0    0  501 -0.00000000000E+00  0.00000000000E+00  0.96150049008E+03  0.96150049008E+03  0.00000000000E+00 0.  1.
          1   -1    0    0  501    0  0.00000000000E+00 -0.00000000000E+00 -0.50486729892E+03  0.50486729892E+03  0.00000000000E+00 0. -1.
         23    2    1    2    0    0  0.50520528398E+03 -0.96584399250E+01 -0.27057120334E+03  0.58084427390E+03  0.94051209537E+02 0.  0.
         11    1    3    3    0    0  0.14586788168E+03 -0.44351548290E+02 -0.92225291717E+02  0.17818530572E+03  0.00000000000E+00 0. -1.
        -11    1    3    3    0    0  0.35933740230E+03  0.34693108365E+02 -0.17834591163E+03  0.40265896818E+03  0.00000000000E+00 0.  1.
         22    1    1    2    0    0 -0.50520528398E+03  0.96584399250E+01  0.72720439450E+03  0.88552351511E+03  0.00000000000E+00 0.  1.
<mgrwt>
<rscale>  0 0.13934564E+04</rscale>
<asrwt>0</asrwt>
<pdfrwt beam="1">  1        1 0.77671892E-01 0.13934564E+04</pdfrwt>
<pdfrwt beam="2">  1       -1 0.14792315E+00 0.13934564E+04</pdfrwt>
<totfact> 0.15455663E+01</totfact>
</mgrwt>
</event>
<event>
 6    1  0.1014650E-006  0.9675390E+03  0.7818608E-02  0.9344882E-01
          1   -1    0    0  501    0  0.00000000000E+00  0.00000000000E+00  0.37556126033E+03  0.37556126033E+03  0.00000000000E+00 0. -1.
         -1   -1    0    0    0  501 -0.00000000000E+00 -0.00000000000E+00 -0.62315512200E+03  0.62315512200E+03  0.00000000000E+00 0.  1.
         23    2    1    2    0    0  0.13047744930E+03 -0.18668140419E+03 -0.56044780794E+03  0.61173847193E+03  0.90817956160E+02 0.  0.
         13    1    3    3    0    0  0.27349221089E+02 -0.10485796252E+03 -0.31648005353E+03  0.33451875355E+03  0.00000000000E+00 0.  1.
        -13    1    3    3    0    0  0.10312822821E+03 -0.81823441673E+02 -0.24396775441E+03  0.27721971837E+03  0.00000000000E+00 0. -1.
         22    1    1    2    0    0 -0.13047744930E+03  0.18668140419E+03  0.31285394627E+03  0.38697791041E+03  0.00000000000E+00 0. -1.
<mgrwt>
<rscale>  0 0.96753899E+03</rscale>
<asrwt>0</asrwt>
<pdfrwt beam="1">  1        1 0.57778656E-01 0.96753899E+03</pdfrwt>
<pdfrwt beam="2">  1       -1 0.95870018E-01 0.96753899E+03</pdfrwt>
<totfact> 0.68787752E+01</totfact>
</mgrwt>
</event>
<event>
 6    1  0.1014650E-006  0.7402419E+03  0.7818608E-02  0.9650785E-01
         -1   -1    0    0    0  501 -0.00000000000E+00  0.00000000000E+00  0.40029480937E+03  0.40029480937E+03  0.00000000000E+00 0.  1.
          1   -1    0    0  501    0  0.00000000000E+00 -0.00000000000E+00 -0.34222155223E+03  0.34222155223E+03  0.00000000000E+00 0. -1.
         23    2    1    2    0    0 -0.18340007471E+02 -0.29318065556E+03 -0.18821974392E+03  0.35917383196E+03  0.85369297157E+02 0.  0.
         13    1    3    3    0    0 -0.49335170013E+02 -0.22789389494E+03 -0.13513024961E+03  0.26949911078E+03  0.00000000000E+00 0. -1.
        -13    1    3    3    0    0  0.30995162542E+02 -0.65286760614E+02 -0.53089494306E+02  0.89674721177E+02  0.00000000000E+00 0.  1.
         22    1    1    2    0    0  0.18340007471E+02  0.29318065556E+03  0.24629300106E+03  0.38334252965E+03  0.00000000000E+00 0.  1.
<mgrwt>
<rscale>  0 0.74024188E+03</rscale>
<asrwt>0</asrwt>
<pdfrwt beam="1">  1        1 0.52649470E-01 0.74024188E+03</pdfrwt>
<pdfrwt beam="2">  1       -1 0.61583817E-01 0.74024188E+03</pdfrwt>
<totfact> 0.19999587E+02</totfact>
</mgrwt>
</event>
<event>
 6    1  0.1014650E-006  0.1036604E+04  0.7818608E-02  0.9269285E-01
          1   -1    0    0  501    0  0.00000000000E+00  0.00000000000E+00  0.14015170242E+04  0.14015170242E+04  0.00000000000E+00 0. -1.
         -1   -1    0    0    0  501 -0.00000000000E+00 -0.00000000000E+00 -0.19167572939E+03  0.19167572939E+03  0.00000000000E+00 0.  1.
         23    2    1    2    0    0 -0.39572527983E+03 -0.27361014685E+03  0.88882958651E+03  0.10148247683E+04  0.91598400150E+02 0.  0.
         13    1    3    3    0    0 -0.26799322728E+03 -0.19812809217E+03  0.69453105712E+03  0.77035608654E+03  0.00000000000E+00 0. -1.
        -13    1    3    3    0    0 -0.12773205255E+03 -0.75482054678E+02  0.19429852940E+03  0.24446868174E+03  0.00000000000E+00 0.  1.
         22    1    1    2    0    0  0.39572527983E+03  0.27361014685E+03  0.32101170828E+03  0.57836798529E+03  0.00000000000E+00 0. -1.
<mgrwt>
<rscale>  0 0.10366037E+04</rscale>
<asrwt>0</asrwt>
<pdfrwt beam="1">  1        1 0.21561800E+00 0.10366037E+04</pdfrwt>
<pdfrwt beam="2">  1       -1 0.29488575E-01 0.10366037E+04</pdfrwt>
<totfact> 0.80591047E+01</totfact>
</mgrwt>
</event>
<event>
 6    1  0.1014650E-006  0.1292711E+04  0.7818608E-02  0.9035365E-01
         -1   -1    0    0    0  501 -0.00000000000E+00  0.00000000000E+00  0.30791426327E+03  0.30791426327E+03  0.00000000000E+00 0.  1.
          1   -1    0    0  501    0  0.00000000000E+00 -0.00000000000E+00 -0.13567918457E+04  0.13567918457E+04  0.00000000000E+00 0. -1.
         23    2    1    2    0    0 -0.42597068178E+03  0.23739440687E+02 -0.11465838561E+04  0.12270291748E+04  0.94506475672E+02 0.  0.
         11    1    3    3    0    0 -0.14168255045E+03 -0.34534582785E+02 -0.42233414726E+03  0.44680276908E+03  0.00000000000E+00 0. -1.
        -11    1    3    3    0    0 -0.28428813133E+03  0.58274023471E+02 -0.72424970883E+03  0.78022640570E+03  0.00000000000E+00 0.  1.
         22    1    1    2    0    0  0.42597068178E+03 -0.23739440687E+02  0.97706273689E+02  0.43767693416E+03  0.00000000000E+00 0.  1.
<mgrwt>
<rscale>  0 0.12927112E+04</rscale>
<asrwt>0</asrwt>
<pdfrwt beam="1">  1        1 0.20873721E+00 0.12927112E+04</pdfrwt>
<pdfrwt beam="2">  1       -1 0.47371425E-01 0.12927112E+04</pdfrwt>
<totfact> 0.36020703E+01</totfact>
</mgrwt>
</event>
<event>
 6    1  0.1014650E-006  0.1179257E+04  0.7818608E-02  0.9131209E-01
          2   -1    0    0  501    0  0.00000000000E+00  0.00000000000E+00  0.13963411142E+04  0.13963411142E+04  0.00000000000E+00 0. -1.
         -2   -1    0    0    0  501 -0.00000000000E+00 -0.00000000000E+00 -0.24898046721E+03  0.24898046721E+03  0.00000000000E+00 0.  1.
         23    2    1    2    0    0  0.38449429380E+03 -0.23657288864E+02  0.11933724444E+04  0.12573620283E+04  0.91792972899E+02 0.  0.
         13    1    3    3    0    0  0.22498526218E+03 -0.20383972387E+02  0.55185576631E+03  0.59630416848E+03  0.00000000000E+00 0.  1.
        -13    1    3    3    0    0  0.15950903162E+03 -0.32733164775E+01  0.64151667813E+03  0.66105785986E+03  0.00000000000E+00 0. -1.
         22    1    1    2    0    0 -0.38449429380E+03  0.23657288864E+02 -0.46011797485E+02  0.38795955303E+03  0.00000000000E+00 0.  1.
<mgrwt>
<rscale>  0 0.11792568E+04</rscale>
<asrwt>0</asrwt>
<pdfrwt beam="1">  1        2 0.21482171E+00 0.11792568E+04</pdfrwt>
<pdfrwt beam="2">  1       -2 0.38304688E-01 0.11792568E+04</pdfrwt>
<totfact> 0.92407330E+01</totfact>
</mgrwt>
</event>
<event>
 6    1  0.1014650E-006  0.1247837E+04  0.7818608E-02  0.9071986E-01
          2   -1    0    0  501    0  0.00000000000E+00  0.00000000000E+00  0.27469505993E+03  0.27469505993E+03  0.00000000000E+00 0. -1.
         -2   -1    0    0    0  501 -0.00000000000E+00 -0.00000000000E+00 -0.14171139459E+04  0.14171139459E+04  0.00000000000E+00 0.  1.
         23    2    1    2    0    0  0.22857608307E+03 -0.26163668901E+03 -0.12713854314E+04  0.13212241267E+04  0.92257763197E+02 0.  0.
         11    1    3    3    0    0  0.13946187384E+03 -0.14439637602E+03 -0.89082259784E+03  0.91316199466E+03  0.00000000000E+00 0. -1.
        -11    1    3    3    0    0  0.89114209234E+02 -0.11724031300E+03 -0.38056283356E+03  0.40806213199E+03  0.00000000000E+00 0.  1.
         22    1    1    2    0    0 -0.22857608307E+03  0.26163668901E+03  0.12896654547E+03  0.37058487913E+03  0.00000000000E+00 0. -1.
<mgrwt>
<rscale>  0 0.12478368E+04</rscale>
<asrwt>0</asrwt>
<pdfrwt beam="1">  1        2 0.42260779E-01 0.12478368E+04</pdfrwt>
<pdfrwt beam="2">  1       -2 0.21801753E+00 0.12478368E+04</pdfrwt>
<totfact> 0.12124009E+01</totfact>
</mgrwt>
</event>
<event>
 6    1  0.1014650E-006  0.9257575E+03  0.7818608E-02  0.9393944E-01
         -2   -1    0    0    0  501 -0.00000000000E+00  0.00000000000E+00  0.14451440694E+03  0.14451440694E+03  0.00000000000E+00 0.  1.
          2   -1    0    0  501    0  0.00000000000E+00 -0.00000000000E+00 -0.14825978946E+04  0.14825978946E+04  0.00000000000E+00 0. -1.
         23    2    1    2    0    0  0.67824666343E+02 -0.90894899302E+02 -0.14561504102E+04  0.14633995462E+04  0.91116115143E+02 0.  0.
         13    1    3    3    0    0  0.76661192092E+02 -0.79693019160E+02 -0.86021362944E+03  0.86729199463E+03  0.00000000000E+00 0. -1.
        -13    1    3    3    0    0 -0.88365257492E+01 -0.11201880143E+02 -0.59593678080E+03  0.59610755155E+03  0.00000000000E+00 0.  1.
         22    1    1    2    0    0 -0.67824666343E+02  0.90894899302E+02  0.11806692254E+03  0.16371275540E+03  0.00000000000E+00 0.  1.
<mgrwt>
<rscale>  0 0.92575754E+03</rscale>
<asrwt>0</asrwt>
<pdfrwt beam="1">  1        2 0.22809200E+00 0.92575754E+03</pdfrwt>
<pdfrwt beam="2">  1       -2 0.22232984E-01 0.92575754E+03</pdfrwt>
<totfact> 0.23036361E+02</totfact>
</mgrwt>
</event>
<event>
 6    1  0.1014650E-006  0.1506475E+04  0.7818608E-02  0.8880159E-01
         -2   -1    0    0    0  501 -0.00000000000E+00  0.00000000000E+00  0.19285657198E+03  0.19285657198E+03  0.00000000000E+00 0.  1.
          2   -1    0    0  501    0  0.00000000000E+00 -0.00000000000E+00 -0.29419087881E+04  0.29419087881E+04  0.00000000000E+00 0. -1.
         23    2    1    2    0    0  0.27938282100E+03 -0.66636924284E+03 -0.18014147856E+04  0.19430777214E+04  0.91395148175E+02 0.  0.
         13    1    3    3    0    0  0.24800570145E+02 -0.13219799078E+03 -0.27970500122E+03  0.31036472859E+03  0.00000000000E+00 0.  1.
        -13    1    3    3    0    0  0.25458225085E+03 -0.53417125206E+03 -0.15217097844E+04  0.16327129928E+04  0.00000000000E+00 0. -1.
         22    1    1    2    0    0 -0.27938282100E+03  0.66636924284E+03 -0.94763743049E+03  0.11916876387E+04  0.00000000000E+00 0.  1.
<mgrwt>
<rscale>  0 0.15064746E+04</rscale>
<asrwt>0</asrwt>
<pdfrwt beam="1">  1        2 0.45260130E+00 0.15064746E+04</pdfrwt>
<pdfrwt beam="2">  1       -2 0.29670245E-01 0.15064746E+04</pdfrwt>
<totfact> 0.19260925E+01</totfact>
</mgrwt>
</event>
<event>
 6    1  0.1014650E-006  0.1876287E+04  0.7818608E-02  0.8666751E-01
          2   -1    0    0  501    0  0.00000000000E+00  0.00000000000E+00  0.69715309852E+03  0.69715309852E+03  0.00000000000E+00 0. -1.
         -2   -1    0    0    0  501 -0.00000000000E+00 -0.00000000000E+00 -0.12624387297E+04  0.12624387297E+04  0.00000000000E+00 0.  1.
         23    2    1    2    0    0 -0.86959221233E+03 -0.29947024206E+03 -0.46531742395E+03  0.10344611974E+04  0.87844306769E+02 0.  0.
         11    1    3    3    0    0 -0.46731806074E+03 -0.20688623879E+03 -0.26234817442E+03  0.57446901598E+03  0.00000000000E+00 0.  1.
        -11    1    3    3    0    0 -0.40227415159E+03 -0.92584003265E+02 -0.20296924953E+03  0.45999218140E+03  0.00000000000E+00 0. -1.
         22    1    1    2    0    0  0.86959221233E+03  0.29947024206E+03 -0.99968207201E+02  0.92513063082E+03  0.00000000000E+00 0. -1.
<mgrwt>
<rscale>  0 0.18762868E+04</rscale>
<asrwt>0</asrwt>
<pdfrwt beam="1">  1        2 0.10725432E+00 0.18762868E+04</pdfrwt>
<pdfrwt beam="2">  1       -2 0.19422134E+00 0.18762868E+04</pdfrwt>
<totfact> 0.56089959E+00</totfact>
</mgrwt>
</event>
<event>
 6    1  0.1014650E-006  0.1424293E+04  0.7818608E-02  0.8936419E-01
         -1   -1    0    0    0  501 -0.00000000000E+00  0.00000000000E+00  0.45354917007E+03  0.45354917007E+03  0.00000000000E+00 0.  1.
          1   -1    0    0  501    0  0.00000000000E+00 -0.00000000000E+00 -0.11181872243E+04  0.11181872243E+04  0.00000000000E+00 0. -1.
         23    2    1    2    0    0  0.28004064891E+03  0.49311478748E+03 -0.80350255573E+03  0.98789711128E+03  0.93484687143E+02 0.  0.
         11    1    3    3    0    0  0.11136814930E+03  0.13445435041E+03 -0.19539761669E+03  0.26203256597E+03  0.00000000000E+00 0. -1.
        -11    1    3    3    0    0  0.16867249961E+03  0.35866043707E+03 -0.60810493904E+03  0.72586454531E+03  0.00000000000E+00 0.  1.
         22    1    1    2    0    0 -0.28004064891E+03 -0.49311478748E+03  0.13886450152E+03  0.58383928307E+03  0.00000000000E+00 0.  1.
<mgrwt>
<rscale>  0 0.14242934E+04</rscale>
<asrwt>0</asrwt>
<pdfrwt beam="1">  1        1 0.17202880E+00 0.14242934E+04</pdfrwt>
<pdfrwt beam="2">  1       -1 0.69776796E-01 0.14242934E+04</pdfrwt>
<totfact> 0.24834044E+01</totfact>
</mgrwt>
</event>
<event>
 6    1  0.1014650E-006  0.2139092E+04  0.7818608E-02  0.8544216E-01
          2   -1    0    0  501    0  0.00000000000E+00  0.00000000000E+00  0.14008199899E+04  0.14008199899E+04  0.00000000000E+00 0. -1.
         -2   -1    0    0    0  501 -0.00000000000E+00 -0.00000000000E+00 -0.81661324211E+03  0.81661324211E+03  0.00000000000E+00 0.  1.
         23    2    1    2    0    0  0.53194265696E+03  0.55183316260E+03 -0.47783359754E+03  0.90769565342E+03  0.90020123602E+02 0.  0.
         13    1    3    3    0    0  0.27432839222E+03  0.22065330486E+03 -0.22559132233E+03  0.41813322330E+03  0.00000000000E+00 0.  1.
        -13    1    3    3    0    0  0.25761426475E+03  0.33117985774E+03 -0.25224227522E+03  0.48956243012E+03  0.00000000000E+00 0. -1.
         22    1    1    2    0    0 -0.53194265696E+03 -0.55183316260E+03  0.10620403454E+04  0.13097375786E+04  0.00000000000E+00 0. -1.
<mgrwt>
<rscale>  0 0.21390915E+04</rscale>
<asrwt>0</asrwt>
<pdfrwt beam="1">  1        2 0.21551077E+00 0.21390915E+04</pdfrwt>
<pdfrwt beam="2">  1       -2 0.12563281E+00 0.21390915E+04</pdfrwt>
<totfact> 0.62876523E+00</totfact>
</mgrwt>
</event>
<event>
 6    1  0.1014650E-006  0.1817404E+04  0.7818608E-02  0.8697098E-01
          2   -1    0    0  501    0  0.00000000000E+00  0.00000000000E+00  0.37133422507E+03  0.37133422507E+03  0.00000000000E+00 0. -1.
         -2   -1    0    0    0  501 -0.00000000000E+00 -0.00000000000E+00 -0.22237103657E+04  0.22237103657E+04  0.00000000000E+00 0.  1.
         23    2    1    2    0    0  0.72490669176E+03  0.53531688694E+03 -0.78997385958E+03  0.12019356618E+04  0.92394561986E+02 0.  0.
         11    1    3    3    0    0  0.15396612136E+03  0.16318757663E+03 -0.19538192471E+03  0.29750604733E+03  0.00000000000E+00 0.  1.
        -11    1    3    3    0    0  0.57094057040E+03  0.37212931030E+03 -0.59459193487E+03  0.90442961447E+03  0.00000000000E+00 0. -1.
         22    1    1    2    0    0 -0.72490669176E+03 -0.53531688694E+03 -0.10624022810E+04  0.13931089290E+04  0.00000000000E+00 0.  1.
<mgrwt>
<rscale>  0 0.18174045E+04</rscale>
<asrwt>0</asrwt>
<pdfrwt beam="1">  1        2 0.57128341E-01 0.18174045E+04</pdfrwt>
<pdfrwt beam="2">  1       -2 0.34210929E+00 0.18174045E+04</pdfrwt>
<totfact> 0.14265336E+00</totfact>
</mgrwt>
</event>
<event>
 6    1  0.1014650E-006  0.2610863E+04  0.7818608E-02  0.8364521E-01
          2   -1    0    0  501    0  0.00000000000E+00  0.00000000000E+00  0.18986092208E+04  0.18986092208E+04  0.00000000000E+00 0. -1.
         -2   -1    0    0    0  501 -0.00000000000E+00 -0.00000000000E+00 -0.89757879734E+03  0.89757879734E+03  0.00000000000E+00 0.  1.
         23    2    1    2    0    0 -0.11044410598E+04  0.53455339143E+03  0.28586502382E+02  0.12305620850E+04  0.89041979284E+02 0.  0.
         13    1    3    3    0    0 -0.81737397165E+03  0.37337498987E+03 -0.13117923200E+02  0.89871083920E+03  0.00000000000E+00 0.  1.
        -13    1    3    3    0    0 -0.28706708815E+03  0.16117840156E+03  0.41704425582E+02  0.33185124581E+03  0.00000000000E+00 0. -1.
         22    1    1    2    0    0  0.11044410598E+04 -0.53455339143E+03  0.97244392108E+03  0.15656259331E+04  0.00000000000E+00 0. -1.
<mgrwt>
<rscale>  0 0.26108630E+04</rscale>
<asrwt>0</asrwt>
<pdfrwt beam="1">  1        2 0.29209373E+00 0.26108630E+04</pdfrwt>
<pdfrwt beam="2">  1       -2 0.13808905E+00 0.26108630E+04</pdfrwt>
<totfact> 0.25024951E+00</totfact>
</mgrwt>
</event>
<event>
 6    1  0.1014650E-006  0.1269569E+04  0.7818608E-02  0.9054051E-01
          2   -1    0    0  501    0  0.00000000000E+00  0.00000000000E+00  0.11276407075E+04  0.11276407075E+04  0.00000000000E+00 0. -1.
         -2   -1    0    0    0  501 -0.00000000000E+00 -0.00000000000E+00 -0.35734042156E+03  0.35734042156E+03  0.00000000000E+00 0.  1.
         23    2    1    2    0    0  0.12082981218E+03  0.41492241083E+03  0.92397228012E+03  0.10263140032E+04  0.11329257801E+03 0.  0.
         11    1    3    3    0    0  0.74031804487E+02  0.87821827117E+02  0.20340211253E+03  0.23359323786E+03  0.00000000000E+00 0. -1.
        -11    1    3    3    0    0  0.46798007691E+02  0.32710058371E+03  0.72057016760E+03  0.79272076535E+03  0.00000000000E+00 0.  1.
         22    1    1    2    0    0 -0.12082981218E+03 -0.41492241083E+03 -0.15367199421E+03  0.45866712583E+03  0.00000000000E+00 0.  1.
<mgrwt>
<rscale>  0 0.12695694E+04</rscale>
<asrwt>0</asrwt>
<pdfrwt beam="1">  1        2 0.17348318E+00 0.12695694E+04</pdfrwt>
<pdfrwt beam="2">  1       -2 0.54975450E-01 0.12695694E+04</pdfrwt>
<totfact> 0.64027926E+01</totfact>
</mgrwt>
</event>
<event>
 6    1  0.1014650E-006  0.1728318E+04  0.7818608E-02  0.8745376E-01
          1   -1    0    0  501    0  0.00000000000E+00  0.00000000000E+00  0.11166609149E+04  0.11166609149E+04  0.00000000000E+00 0. -1.
         -1   -1    0    0    0  501 -0.00000000000E+00 -0.00000000000E+00 -0.66875359957E+03  0.66875359957E+03  0.00000000000E+00 0.  1.
         23    2    1    2    0    0  0.65272071433E+03 -0.42941230823E+03  0.60002896867E+03  0.98943696525E+03  0.92257702077E+02 0.  0.
         13    1    3    3    0    0  0.35454130348E+03 -0.21225221784E+03  0.26326764081E+03  0.48995958053E+03  0.00000000000E+00 0. -1.
        -13    1    3    3    0    0  0.29817941085E+03 -0.21716009038E+03  0.33676132786E+03  0.49947738473E+03  0.00000000000E+00 0.  1.
         22    1    1    2    0    0 -0.65272071433E+03  0.42941230823E+03 -0.15212165337E+03  0.79597754918E+03  0.00000000000E+00 0.  1.
<mgrwt>
<rscale>  0 0.17283183E+04</rscale>
<asrwt>0</asrwt>
<pdfrwt beam="1">  1        1 0.17179399E+00 0.17283183E+04</pdfrwt>
<pdfrwt beam="2">  1       -1 0.10288517E+00 0.17283183E+04</pdfrwt>
<totfact> 0.10439992E+01</totfact>
</mgrwt>
</event>
<event>
 6    1  0.1014650E-006  0.3705060E+04  0.7818608E-02  0.8066842E-01
          2   -1    0    0  501    0  0.00000000000E+00  0.00000000000E+00  0.17183835731E+04  0.17183835731E+04  0.00000000000E+00 0. -1.
         -2   -1    0    0    0  501 -0.00000000000E+00 -0.00000000000E+00 -0.19971480942E+04  0.19971480942E+04  0.00000000000E+00 0.  1.
         23    2    1    2    0    0 -0.94755282643E+03 -0.93705839050E+03 -0.14283484669E+04  0.19555663170E+04  0.90141505943E+02 0.  0.
         11    1    3    3    0    0 -0.72152603446E+03 -0.75536684558E+03 -0.11499371161E+04  0.15535553613E+04  0.00000000000E+00 0. -1.
        -11    1    3    3    0    0 -0.22602679197E+03 -0.18169154492E+03 -0.27841135083E+03  0.40201095563E+03  0.00000000000E+00 0.  1.
         22    1    1    2    0    0  0.94755282643E+03  0.93705839050E+03  0.11495839458E+04  0.17599653504E+04  0.00000000000E+00 0. -1.
<mgrwt>
<rscale>  0 0.37050595E+04</rscale>
<asrwt>0</asrwt>
<pdfrwt beam="1">  1        2 0.26436671E+00 0.37050595E+04</pdfrwt>
<pdfrwt beam="2">  1       -2 0.30725355E+00 0.37050595E+04</pdfrwt>
<totfact> 0.22203665E-01</totfact>
</mgrwt>
</event>
<event>
 6    1  0.1014650E-006  0.1104215E+04  0.7818608E-02  0.9201094E-01
         -1   -1    0    0    0  501 -0.00000000000E+00  0.00000000000E+00  0.11662841179E+03  0.11662841179E+03  0.00000000000E+00 0.  1.
          1   -1    0    0  501    0  0.00000000000E+00 -0.00000000000E+00 -0.26136215881E+04  0.26136215881E+04  0.00000000000E+00 0. -1.
         23    2    1    2    0    0 -0.21736283327E+03  0.50168455068E+03 -0.13617568116E+04  0.14702120666E+04  0.90597555444E+02 0.  0.
         13    1    3    3    0    0 -0.12677265993E+03  0.18156040133E+03 -0.55558513622E+03  0.59808889826E+03  0.00000000000E+00 0. -1.
        -13    1    3    3    0    0 -0.90590173343E+02  0.32012414935E+03 -0.80617167542E+03  0.87212316833E+03  0.00000000000E+00 0.  1.
         22    1    1    2    0    0  0.21736283327E+03 -0.50168455068E+03 -0.11352363647E+04  0.12600379333E+04  0.00000000000E+00 0. -1.
<mgrwt>
<rscale>  0 0.11042147E+04</rscale>
<asrwt>0</asrwt>
<pdfrwt beam="1">  1        1 0.40209563E+00 0.11042147E+04</pdfrwt>
<pdfrwt beam="2">  1       -1 0.17942832E-01 0.11042147E+04</pdfrwt>
<totfact> 0.27852608E+01</totfact>
</mgrwt>
</event>
<event>
 6    1  0.1014650E-006  0.9231265E+03  0.7818608E-02  0.9397125E-01
          2   -1    0    0  501    0  0.00000000000E+00  0.00000000000E+00  0.18402917851E+04  0.18402917851E+04  0.00000000000E+00 0. -1.
         -2   -1    0    0    0  501 -0.00000000000E+00 -0.00000000000E+00 -0.11576458476E+03  0.11576458476E+03  0.00000000000E+00 0.  1.
         23    2    1    2    0    0 -0.36201688062E+03  0.20767423801E+02  0.14605131451E+04  0.15075132514E+04  0.89498873757E+02 0.  0.
         13    1    3    3    0    0 -0.26199800382E+03  0.46134432867E+02  0.11473912783E+04  0.11778276977E+04  0.00000000000E+00 0. -1.
        -13    1    3    3    0    0 -0.10001887681E+03 -0.25367009065E+02  0.31312186673E+03  0.32968555366E+03  0.00000000000E+00 0.  1.
         22    1    1    2    0    0  0.36201688062E+03 -0.20767423801E+02  0.26401405523E+03  0.44854311845E+03  0.00000000000E+00 0.  1.
<mgrwt>
<rscale>  0 0.92312646E+03</rscale>
<asrwt>0</asrwt>
<pdfrwt beam="1">  1        2 0.28312179E+00 0.92312646E+03</pdfrwt>
<pdfrwt beam="2">  1       -2 0.17809937E-01 0.92312646E+03</pdfrwt>
<totfact> 0.21559503E+02</totfact>
</mgrwt>
</event>
<event>
 6    1  0.1014650E-006  0.5716509E+04  0.7818608E-02  0.7726580E-01
          2   -1    0    0  501    0  0.00000000000E+00  0.00000000000E+00  0.35303762990E+04  0.35303762990E+04  0.00000000000E+00 0. -1.
         -2   -1    0    0    0  501 -0.00000000000E+00 -0.00000000000E+00 -0.23140932837E+04  0.23140932837E+04  0.00000000000E+00 0.  1.
         23    2    1    2    0    0  0.16702985732E+04  0.82777284455E+03  0.28224921072E+04  0.33837760112E+04  0.91505154376E+02 0.  0.
         13    1    3    3    0    0  0.97548493320E+03  0.51472750711E+03  0.16050345780E+04  0.19474730443E+04  0.00000000000E+00 0. -1.
        -13    1    3    3    0    0  0.69481364000E+03  0.31304533744E+03  0.12174575292E+04  0.14363029670E+04  0.00000000000E+00 0.  1.
         22    1    1    2    0    0 -0.16702985732E+04 -0.82777284455E+03 -0.16062090919E+04  0.24606935715E+04  0.00000000000E+00 0.  1.
<mgrwt>
<rscale>  0 0.57165095E+04</rscale>
<asrwt>0</asrwt>
<pdfrwt beam="1">  1        2 0.54313482E+00 0.57165095E+04</pdfrwt>
<pdfrwt beam="2">  1       -2 0.35601435E+00 0.57165095E+04</pdfrwt>
<totfact> 0.75743644E-03</totfact>
</mgrwt>
</event>
<event>
 6    1  0.1014650E-006  0.1156317E+04  0.7818608E-02  0.9151975E-01
         -1   -1    0    0    0  501 -0.00000000000E+00  0.00000000000E+00  0.18516358334E+03  0.18516358334E+03  0.00000000000E+00 0.  1.
          1   -1    0    0  501    0  0.00000000000E+00 -0.00000000000E+00 -0.18052541384E+04  0.18052541384E+04  0.00000000000E+00 0. -1.
         23    2    1    2    0    0  0.22590776497E+03  0.49423707215E+03 -0.11366330180E+04  0.12630692551E+04  0.90026239881E+02 0.  0.
         13    1    3    3    0    0  0.16876292330E+03  0.42588799646E+03 -0.89280913803E+03  0.10034787824E+04  0.00000000000E+00 0.  1.
        -13    1    3    3    0    0  0.57144841667E+02  0.68349075692E+02 -0.24382387994E+03  0.25959047268E+03  0.00000000000E+00 0. -1.
         22    1    1    2    0    0 -0.22590776497E+03 -0.49423707215E+03 -0.48345753710E+03  0.72734846665E+03  0.00000000000E+00 0.  1.
<mgrwt>
<rscale>  0 0.11563171E+04</rscale>
<asrwt>0</asrwt>
<pdfrwt beam="1">  1        1 0.27773141E+00 0.11563171E+04</pdfrwt>
<pdfrwt beam="2">  1       -1 0.28486704E-01 0.11563171E+04</pdfrwt>
<totfact> 0.44860778E+01</totfact>
</mgrwt>
</event>
<event>
 6    1  0.1014650E-006  0.1883377E+04  0.7818608E-02  0.8663175E-01
         -2   -1    0    0    0  501 -0.00000000000E+00  0.00000000000E+00  0.76870741722E+03  0.76870741722E+03  0.00000000000E+00 0.  1.
          2   -1    0    0  501    0  0.00000000000E+00 -0.00000000000E+00 -0.11535951357E+04  0.11535951357E+04  0.00000000000E+00 0. -1.
         23    2    1    2    0    0  0.50819926520E+03  0.75933969902E+03 -0.41251127526E+03  0.10081765591E+04  0.10672933274E+03 0.  0.
         13    1    3    3    0    0  0.87962831373E+02  0.19341147848E+03 -0.12786186853E+03  0.24798007407E+03  0.00000000000E+00 0.  1.
        -13    1    3    3    0    0  0.42023643383E+03  0.56592822054E+03 -0.28464940673E+03  0.76019648504E+03  0.00000000000E+00 0. -1.
         22    1    1    2    0    0 -0.50819926520E+03 -0.75933969902E+03  0.27623556781E+02  0.91412599380E+03  0.00000000000E+00 0. -1.
<mgrwt>
<rscale>  0 0.18833769E+04</rscale>
<asrwt>0</asrwt>
<pdfrwt beam="1">  1        2 0.17747617E+00 0.18833769E+04</pdfrwt>
<pdfrwt beam="2">  1       -2 0.11826268E+00 0.18833769E+04</pdfrwt>
<totfact> 0.10431829E+01</totfact>
</mgrwt>
</event>
<event>
 6    1  0.1014650E-006  0.1691361E+04  0.7818608E-02  0.8766307E-01
          2   -1    0    0  501    0  0.00000000000E+00  0.00000000000E+00  0.35550779996E+03  0.35550779996E+03  0.00000000000E+00 0. -1.
         -2   -1    0    0    0  501 -0.00000000000E+00 -0.00000000000E+00 -0.20117013047E+04  0.20117013047E+04  0.00000000000E+00 0.  1.
         23    2    1    2    0    0 -0.35184824720E+03  0.75190403271E+03 -0.62419399231E+03  0.10427545539E+04  0.92531379148E+02 0.  0.
         11    1    3    3    0    0 -0.31283589694E+03  0.57985382283E+03 -0.49512364284E+03  0.82416271207E+03  0.00000000000E+00 0. -1.
        -11    1    3    3    0    0 -0.39012350266E+02  0.17205020987E+03 -0.12907034946E+03  0.21859184180E+03  0.00000000000E+00 0.  1.
         22    1    1    2    0    0  0.35184824720E+03 -0.75190403271E+03 -0.10319995124E+04  0.13244545508E+04  0.00000000000E+00 0. -1.
<mgrwt>
<rscale>  0 0.16913610E+04</rscale>
<asrwt>0</asrwt>
<pdfrwt beam="1">  1        2 0.54693507E-01 0.16913610E+04</pdfrwt>
<pdfrwt beam="2">  1       -2 0.30949251E+00 0.16913610E+04</pdfrwt>
<totfact> 0.24098806E+00</totfact>
</mgrwt>
</event>
<event>
 6    1  0.1014650E-006  0.1031176E+04  0.7818608E-02  0.9274998E-01
          2   -1    0    0  501    0  0.00000000000E+00  0.00000000000E+00  0.94143419121E+03  0.94143419121E+03  0.00000000000E+00 0. -1.
         -2   -1    0    0    0  501 -0.00000000000E+00 -0.00000000000E+00 -0.28236796672E+03  0.28236796672E+03  0.00000000000E+00 0.  1.
         23    2    1    2    0    0  0.21333116884E+03  0.18262150018E+03 -0.17502278646E+03  0.34370825491E+03  0.92960146219E+02 0.  0.
         13    1    3    3    0    0  0.19984509468E+02  0.66006889669E+02 -0.29011860382E+02  0.74819637431E+02  0.00000000000E+00 0.  1.
        -13    1    3    3    0    0  0.19334665937E+03  0.11661461051E+03 -0.14601092608E+03  0.26888861748E+03  0.00000000000E+00 0. -1.
         22    1    1    2    0    0 -0.21333116884E+03 -0.18262150018E+03  0.83408901096E+03  0.88009390302E+03  0.00000000000E+00 0. -1.
<mgrwt>
<rscale>  0 0.10311758E+04</rscale>
<asrwt>0</asrwt>
<pdfrwt beam="1">  1        2 0.14483603E+00 0.10311758E+04</pdfrwt>
<pdfrwt beam="2">  1       -2 0.43441226E-01 0.10311758E+04</pdfrwt>
<totfact> 0.13768158E+02</totfact>
</mgrwt>
</event>
<event>
 6    1  0.1014650E-006  0.1890959E+04  0.7818608E-02  0.8659370E-01
          1   -1    0    0  501    0  0.00000000000E+00  0.00000000000E+00  0.14000634421E+04  0.14000634421E+04  0.00000000000E+00 0. -1.
         -1   -1    0    0    0  501 -0.00000000000E+00 -0.00000000000E+00 -0.63849355112E+03  0.63849355112E+03  0.00000000000E+00 0.  1.
         23    2    1    2    0    0  0.49630491090E+03  0.76028267739E+03  0.10633435614E+03  0.91887761042E+03  0.93170561441E+02 0.  0.
         11    1    3    3    0    0  0.18080515316E+03  0.36104144436E+03  0.41594901308E+02  0.40592063728E+03  0.00000000000E+00 0.  1.
        -11    1    3    3    0    0  0.31549975774E+03  0.39924123303E+03  0.64739454832E+02  0.51295697314E+03  0.00000000000E+00 0. -1.
         22    1    1    2    0    0 -0.49630491090E+03 -0.76028267739E+03  0.65523553482E+03  0.11196793828E+04  0.00000000000E+00 0. -1.
<mgrwt>
<rscale>  0 0.18909590E+04</rscale>
<asrwt>0</asrwt>
<pdfrwt beam="1">  1        1 0.21539438E+00 0.18909590E+04</pdfrwt>
<pdfrwt beam="2">  1       -1 0.98229777E-01 0.18909590E+04</pdfrwt>
<totfact> 0.71410499E+00</totfact>
</mgrwt>
</event>
<event>
 6    1  0.1014650E-006  0.4475519E+04  0.7818608E-02  0.7914937E-01
         -2   -1    0    0    0  501 -0.00000000000E+00  0.00000000000E+00  0.16134402853E+04  0.16134402853E+04  0.00000000000E+00 0.  1.
          2   -1    0    0  501    0  0.00000000000E+00 -0.00000000000E+00 -0.31036578143E+04  0.31036578143E+04  0.00000000000E+00 0. -1.
         23    2    1    2    0    0 -0.21511460025E+04 -0.47627171807E+03 -0.11520545816E+04  0.24880583843E+04  0.94556284366E+02 0.  0.
         13    1    3    3    0    0 -0.83918316009E+03 -0.14509512765E+03 -0.41884679632E+03  0.94905932956E+03  0.00000000000E+00 0.  1.
        -13    1    3    3    0    0 -0.13119628425E+04 -0.33117659042E+03 -0.73320778532E+03  0.15389990547E+04  0.00000000000E+00 0. -1.
         22    1    1    2    0    0  0.21511460025E+04  0.47627171807E+03 -0.33816294739E+03  0.22290397154E+04  0.00000000000E+00 0.  1.
<mgrwt>
<rscale>  0 0.44755185E+04</rscale>
<asrwt>0</asrwt>
<pdfrwt beam="1">  1        2 0.47748582E+00 0.44755185E+04</pdfrwt>
<pdfrwt beam="2">  1       -2 0.24822158E+00 0.44755185E+04</pdfrwt>
<totfact> 0.74833008E-02</totfact>
</mgrwt>
</event>
<event>
 6    1  0.1014650E-006  0.3542112E+04  0.7818608E-02  0.8103882E-01
          2   -1    0    0  501    0  0.00000000000E+00  0.00000000000E+00  0.28583473579E+04  0.28583473579E+04  0.00000000000E+00 0. -1.
         -2   -1    0    0    0  501 -0.00000000000E+00 -0.00000000000E+00 -0.10973609363E+04  0.10973609363E+04  0.00000000000E+00 0.  1.
         23    2    1    2    0    0 -0.28853585880E+03  0.44516909493E+03 -0.10047048177E+04  0.11395981230E+04  0.88451378113E+02 0.  0.
         11    1    3    3    0    0 -0.51861977032E+02  0.76400931143E+02 -0.25534424190E+03  0.27152798900E+03  0.00000000000E+00 0.  1.
        -11    1    3    3    0    0 -0.23667388177E+03  0.36876816379E+03 -0.74936057582E+03  0.86807013399E+03  0.00000000000E+00 0. -1.
         22    1    1    2    0    0  0.28853585880E+03 -0.44516909493E+03  0.27656912393E+04  0.28161101712E+04  0.00000000000E+00 0. -1.
<mgrwt>
<rscale>  0 0.35421116E+04</rscale>
<asrwt>0</asrwt>
<pdfrwt beam="1">  1        2 0.43974574E+00 0.35421116E+04</pdfrwt>
<pdfrwt beam="2">  1       -2 0.16882476E+00 0.35421116E+04</pdfrwt>
<totfact> 0.37897411E-01</totfact>
</mgrwt>
</event>
<event>
 6    1  0.1014650E-006  0.1702184E+04  0.7818608E-02  0.8760120E-01
          2   -1    0    0  501    0  0.00000000000E+00  0.00000000000E+00  0.16482357292E+04  0.16482357292E+04  0.00000000000E+00 0. -1.
         -2   -1    0    0    0  501 -0.00000000000E+00 -0.00000000000E+00 -0.43947428413E+03  0.43947428413E+03  0.00000000000E+00 0.  1.
         23    2    1    2    0    0 -0.55911184857E+03  0.56839476119E+03  0.96253995561E+03  0.12532618810E+04  0.92214491015E+02 0.  0.
         11    1    3    3    0    0 -0.26667853663E+03  0.22236274601E+03  0.37062753189E+03  0.50786553349E+03  0.00000000000E+00 0. -1.
        -11    1    3    3    0    0 -0.29243331194E+03  0.34603201518E+03  0.59191242372E+03  0.74539634746E+03  0.00000000000E+00 0.  1.
         22    1    1    2    0    0  0.55911184857E+03 -0.56839476119E+03  0.24622148947E+03  0.83444813238E+03  0.00000000000E+00 0.  1.
<mgrwt>
<rscale>  0 0.17021836E+04</rscale>
<asrwt>0</asrwt>
<pdfrwt beam="1">  1        2 0.25357472E+00 0.17021836E+04</pdfrwt>
<pdfrwt beam="2">  1       -2 0.67611429E-01 0.17021836E+04</pdfrwt>
<totfact> 0.19989645E+01</totfact>
</mgrwt>
</event>
<event>
 6    1  0.1014650E-006  0.1739276E+04  0.7818608E-02  0.8739275E-01
         -1   -1    0    0    0  501 -0.00000000000E+00  0.00000000000E+00  0.89956331711E+03  0.89956331711E+03  0.00000000000E+00 0.  1.
          1   -1    0    0  501    0  0.00000000000E+00 -0.00000000000E+00 -0.84070819164E+03  0.84070819164E+03  0.00000000000E+00 0. -1.
         23    2    1    2    0    0  0.28765470801E+03 -0.81534787802E+03  0.96131444246E+02  0.87486587139E+03  0.92798949969E+02 0.  0.
         13    1    3    3    0    0  0.10128975718E+03 -0.42305248595E+03  0.37692946822E+02  0.43663918631E+03  0.00000000000E+00 0.  1.
        -13    1    3    3    0    0  0.18636495083E+03 -0.39229539207E+03  0.58438497424E+02  0.43822668508E+03  0.00000000000E+00 0. -1.
         22    1    1    2    0    0 -0.28765470801E+03  0.81534787802E+03 -0.37276318774E+02  0.86540563736E+03  0.00000000000E+00 0.  1.
<mgrwt>
<rscale>  0 0.17392760E+04</rscale>
<asrwt>0</asrwt>
<pdfrwt beam="1">  1        1 0.12933972E+00 0.17392760E+04</pdfrwt>
<pdfrwt beam="2">  1       -1 0.13839436E+00 0.17392760E+04</pdfrwt>
<totfact> 0.83573164E+00</totfact>
</mgrwt>
</event>
<event>
 6    1  0.1014650E-006  0.1424295E+04  0.7818608E-02  0.8936418E-01
          2   -1    0    0  501    0  0.00000000000E+00  0.00000000000E+00  0.14133069511E+04  0.14133069511E+04  0.00000000000E+00 0. -1.
         -2   -1    0    0    0  501 -0.00000000000E+00 -0.00000000000E+00 -0.35884194382E+03  0.35884194382E+03  0.00000000000E+00 0.  1.
         23    2    1    2    0    0 -0.60970169686E+03 -0.56610377418E+02  0.97443816254E+03  0.11546173655E+04  0.93116239275E+02 0.  0.
         11    1    3    3    0    0 -0.24765075674E+03 -0.59867322576E+02  0.35199197926E+03  0.43452657811E+03  0.00000000000E+00 0. -1.
        -11    1    3    3    0    0 -0.36205094012E+03  0.32569451586E+01  0.62244618328E+03  0.72009078735E+03  0.00000000000E+00 0.  1.
         22    1    1    2    0    0  0.60970169686E+03  0.56610377418E+02  0.80026844732E+02  0.61753152945E+03  0.00000000000E+00 0.  1.
<mgrwt>
<rscale>  0 0.14242947E+04</rscale>
<asrwt>0</asrwt>
<pdfrwt beam="1">  1        2 0.21743183E+00 0.14242947E+04</pdfrwt>
<pdfrwt beam="2">  1       -2 0.55206454E-01 0.14242947E+04</pdfrwt>
<totfact> 0.42610348E+01</totfact>
</mgrwt>
</event>
<event>
 6    1  0.1014650E-006  0.9951858E+03  0.7818608E-02  0.9313841E-01
         -1   -1    0    0    0  501 -0.00000000000E+00  0.00000000000E+00  0.81168923982E+02  0.81168923982E+02  0.00000000000E+00 0.  1.
          1   -1    0    0  501    0  0.00000000000E+00 -0.00000000000E+00 -0.30504122343E+04  0.30504122343E+04  0.00000000000E+00 0. -1.
         23    2    1    2    0    0  0.44354803206E+03  0.12234657366E+03 -0.93744062811E+03  0.10483323301E+04  0.92207386907E+02 0.  0.
         11    1    3    3    0    0  0.24377882116E+03  0.26436762382E+02 -0.43872058402E+03  0.50259602753E+03  0.00000000000E+00 0. -1.
        -11    1    3    3    0    0  0.19976921090E+03  0.95909811281E+02 -0.49872004410E+03  0.54573630254E+03  0.00000000000E+00 0.  1.
         22    1    1    2    0    0 -0.44354803206E+03 -0.12234657366E+03 -0.20318026822E+04  0.20832488282E+04  0.00000000000E+00 0. -1.
<mgrwt>
<rscale>  0 0.99518577E+03</rscale>
<asrwt>0</asrwt>
<pdfrwt beam="1">  1        1 0.46929423E+00 0.99518577E+03</pdfrwt>
<pdfrwt beam="2">  1       -1 0.12487526E-01 0.99518577E+03</pdfrwt>
<totfact> 0.24975333E+01</totfact>
</mgrwt>
</event>
<event>
 6    1  0.1014650E-006  0.1879047E+04  0.7818608E-02  0.8665357E-01
          1   -1    0    0  501    0  0.00000000000E+00  0.00000000000E+00  0.18351911515E+04  0.18351911515E+04  0.00000000000E+00 0. -1.
         -1   -1    0    0    0  501 -0.00000000000E+00 -0.00000000000E+00 -0.48098770183E+03  0.48098770183E+03  0.00000000000E+00 0.  1.
         23    2    1    2    0    0 -0.68207450600E+03 -0.21923394439E+03 -0.65973220098E+02  0.72552146488E+03  0.93486769767E+02 0.  0.
         13    1    3    3    0    0 -0.34407327430E+03 -0.62769582783E+02 -0.21426001292E+02  0.35040763711E+03  0.00000000000E+00 0.  1.
        -13    1    3    3    0    0 -0.33800123170E+03 -0.15646436160E+03 -0.44547218806E+02  0.37511382777E+03  0.00000000000E+00 0. -1.
         22    1    1    2    0    0  0.68207450600E+03  0.21923394439E+03  0.14201766698E+04  0.15906573885E+04  0.00000000000E+00 0.  1.
<mgrwt>
<rscale>  0 0.18790470E+04</rscale>
<asrwt>0</asrwt>
<pdfrwt beam="1">  1        1 0.28233710E+00 0.18790470E+04</pdfrwt>
<pdfrwt beam="2">  1       -1 0.73998109E-01 0.18790470E+04</pdfrwt>
<totfact> 0.66451097E+00</totfact>
</mgrwt>
</event>
<event>
 6    1  0.1014650E-006  0.1263572E+04  0.7818608E-02  0.9058962E-01
         -2   -1    0    0    0  501 -0.00000000000E+00  0.00000000000E+00  0.31464343078E+03  0.31464343078E+03  0.00000000000E+00 0.  1.
          2   -1    0    0  501    0  0.00000000000E+00 -0.00000000000E+00 -0.12685900075E+04  0.12685900075E+04  0.00000000000E+00 0. -1.
         23    2    1    2    0    0  0.15807844188E+02 -0.77650684457E+02 -0.12606299637E+04  0.12664776702E+04  0.92186045388E+02 0.  0.
         13    1    3    3    0    0 -0.16112700529E+01 -0.64111846760E+01 -0.80150585212E+03  0.80153311252E+03  0.00000000000E+00 0.  1.
        -13    1    3    3    0    0  0.17419114241E+02 -0.71239499781E+02 -0.45912411158E+03  0.46494455766E+03  0.00000000000E+00 0. -1.
         22    1    1    2    0    0 -0.15807844188E+02  0.77650684457E+02  0.30668338701E+03  0.31675576807E+03  0.00000000000E+00 0.  1.
<mgrwt>
<rscale>  0 0.12635719E+04</rscale>
<asrwt>0</asrwt>
<pdfrwt beam="1">  1        2 0.19516770E+00 0.12635719E+04</pdfrwt>
<pdfrwt beam="2">  1       -2 0.48406680E-01 0.12635719E+04</pdfrwt>
<totfact> 0.68482505E+01</totfact>
</mgrwt>
</event>
<event>
 6    1  0.1014650E-006  0.5286845E+04  0.7818608E-02  0.7785720E-01
         -2   -1    0    0    0  501 -0.00000000000E+00  0.00000000000E+00  0.26560458078E+04  0.26560458078E+04  0.00000000000E+00 0.  1.
          2   -1    0    0  501    0  0.00000000000E+00 -0.00000000000E+00 -0.26308587840E+04  0.26308587840E+04  0.00000000000E+00 0. -1.
         23    2    1    2    0    0  0.25186050570E+04 -0.93890196065E+02  0.80719469590E+03  0.26480179325E+04  0.90823409482E+02 0.  0.
         11    1    3    3    0    0  0.12579437008E+03 -0.98342956862E+01  0.60982904198E+02  0.14014225458E+03  0.00000000000E+00 0. -1.
        -11    1    3    3    0    0  0.23928106869E+04 -0.84055900378E+02  0.74621179170E+03  0.25078756779E+04  0.00000000000E+00 0.  1.
         22    1    1    2    0    0 -0.25186050570E+04  0.93890196065E+02 -0.78200767211E+03  0.26388866594E+04  0.00000000000E+00 0.  1.
<mgrwt>
<rscale>  0 0.52868446E+04</rscale>
<asrwt>0</asrwt>
<pdfrwt beam="1">  1        2 0.40474751E+00 0.52868446E+04</pdfrwt>
<pdfrwt beam="2">  1       -2 0.40862243E+00 0.52868446E+04</pdfrwt>
<totfact> 0.13550506E-02</totfact>
</mgrwt>
</event>
<event>
 6    1  0.1014650E-006  0.3285275E+04  0.7818608E-02  0.8166652E-01
         -1   -1    0    0    0  501 -0.00000000000E+00  0.00000000000E+00  0.85366532402E+03  0.85366532402E+03  0.00000000000E+00 0.  1.
          1   -1    0    0  501    0  0.00000000000E+00 -0.00000000000E+00 -0.31607908547E+04  0.31607908547E+04  0.00000000000E+00 0. -1.
         23    2    1    2    0    0 -0.13928401887E+04  0.28391529745E+03 -0.15197756754E+03  0.14327369007E+04  0.95006095806E+02 0.  0.
         13    1    3    3    0    0 -0.55234398697E+03  0.88343394553E+02 -0.19727364645E+02  0.55971207261E+03  0.00000000000E+00 0.  1.
        -13    1    3    3    0    0 -0.84049620173E+03  0.19557190290E+03 -0.13225020290E+03  0.87302482811E+03  0.00000000000E+00 0. -1.
         22    1    1    2    0    0  0.13928401887E+04 -0.28391529745E+03 -0.21551479632E+04  0.25817192780E+04  0.00000000000E+00 0.  1.
<mgrwt>
<rscale>  0 0.32852748E+04</rscale>
<asrwt>0</asrwt>
<pdfrwt beam="1">  1        1 0.48627551E+00 0.32852748E+04</pdfrwt>
<pdfrwt beam="2">  1       -1 0.13133313E+00 0.32852748E+04</pdfrwt>
<totfact> 0.18650687E-01</totfact>
</mgrwt>
</event>
<event>
 6    1  0.1014650E-006  0.4300603E+04  0.7818608E-02  0.7946507E-01
          2   -1    0    0  501    0  0.00000000000E+00  0.00000000000E+00  0.41315380410E+04  0.41315380410E+04  0.00000000000E+00 0. -1.
         -2   -1    0    0    0  501 -0.00000000000E+00 -0.00000000000E+00 -0.11191463614E+04  0.11191463614E+04  0.00000000000E+00 0.  1.
         23    2    1    2    0    0 -0.15746723581E+04  0.69611586320E+03 -0.64123732493E+02  0.17251890597E+04  0.89415369557E+02 0.  0.
         13    1    3    3    0    0 -0.12193039907E+03  0.74189400955E+02 -0.21559181531E+02  0.14434641575E+03  0.00000000000E+00 0. -1.
        -13    1    3    3    0    0 -0.14527419590E+04  0.62192646224E+03 -0.42564550963E+02  0.15808426440E+04  0.00000000000E+00 0.  1.
         22    1    1    2    0    0  0.15746723581E+04 -0.69611586320E+03  0.30765154121E+04  0.35254953427E+04  0.00000000000E+00 0. -1.
<mgrwt>
<rscale>  0 0.43006026E+04</rscale>
<asrwt>0</asrwt>
<pdfrwt beam="1">  1        2 0.63562123E+00 0.43006026E+04</pdfrwt>
<pdfrwt beam="2">  1       -2 0.17217636E+00 0.43006026E+04</pdfrwt>
<totfact> 0.41956555E-02</totfact>
</mgrwt>
</event>
<event>
 6    1  0.1014650E-006  0.7473260E+03  0.7818608E-02  0.9639555E-01
         -4   -1    0    0    0  501 -0.00000000000E+00  0.00000000000E+00  0.32272937916E+03  0.32272937916E+03  0.00000000000E+00 0.  1.
          4   -1    0    0  501    0  0.00000000000E+00 -0.00000000000E+00 -0.43263499594E+03  0.43263499594E+03  0.00000000000E+00 0. -1.
         23    2    1    2    0    0  0.28472404258E+03  0.12436709979E+03  0.14471084670E+03  0.35366237186E+03  0.87183072812E+02 0.  0.
         13    1    3    3    0    0  0.11530839483E+03  0.69814821760E+02  0.10609114977E+03  0.17153853011E+03  0.00000000000E+00 0. -1.
        -13    1    3    3    0    0  0.16941564775E+03  0.54552278033E+02  0.38619696936E+02  0.18212384175E+03  0.00000000000E+00 0.  1.
         22    1    1    2    0    0 -0.28472404258E+03 -0.12436709979E+03 -0.25461646348E+03  0.40170200324E+03  0.00000000000E+00 0.  1.
<mgrwt>
<rscale>  0 0.74732596E+03</rscale>
<asrwt>0</asrwt>
<pdfrwt beam="1">  1        4 0.66559230E-01 0.74732596E+03</pdfrwt>
<pdfrwt beam="2">  1       -4 0.49650674E-01 0.74732596E+03</pdfrwt>
<totfact> 0.16276985E+01</totfact>
</mgrwt>
</event>
<event>
 6    1  0.1014650E-006  0.4082140E+04  0.7818608E-02  0.7988178E-01
          1   -1    0    0  501    0  0.00000000000E+00  0.00000000000E+00  0.15176988492E+04  0.15176988492E+04  0.00000000000E+00 0. -1.
         -1   -1    0    0    0  501 -0.00000000000E+00 -0.00000000000E+00 -0.27449236013E+04  0.27449236013E+04  0.00000000000E+00 0.  1.
         23    2    1    2    0    0  0.12100856594E+04  0.71615195172E+03 -0.21573069402E+04  0.25767298686E+04  0.91556868592E+02 0.  0.
         11    1    3    3    0    0  0.63445104351E+03  0.33776568284E+03 -0.11605229047E+04  0.13650740622E+04  0.00000000000E+00 0. -1.
        -11    1    3    3    0    0  0.57563461586E+03  0.37838626888E+03 -0.99678403554E+03  0.12116558063E+04  0.00000000000E+00 0.  1.
         22    1    1    2    0    0 -0.12100856594E+04 -0.71615195172E+03  0.93008218818E+03  0.16858925819E+04  0.00000000000E+00 0. -1.
<mgrwt>
<rscale>  0 0.40821403E+04</rscale>
<asrwt>0</asrwt>
<pdfrwt beam="1">  1        1 0.23349214E+00 0.40821403E+04</pdfrwt>
<pdfrwt beam="2">  1       -1 0.42229593E+00 0.40821403E+04</pdfrwt>
<totfact> 0.24841765E-02</totfact>
</mgrwt>
</event>
<event>
 6    1  0.1014650E-006  0.2001999E+04  0.7818608E-02  0.8605687E-01
          2   -1    0    0  501    0  0.00000000000E+00  0.00000000000E+00  0.17025680169E+04  0.17025680169E+04  0.00000000000E+00 0. -1.
         -2   -1    0    0    0  501 -0.00000000000E+00 -0.00000000000E+00 -0.58852277687E+03  0.58852277687E+03  0.00000000000E+00 0.  1.
         23    2    1    2    0    0 -0.28212057731E+03  0.78216625981E+03 -0.75421979720E+02  0.83981261748E+03  0.90667961967E+02 0.  0.
         11    1    3    3    0    0 -0.77122049789E+02  0.24542960396E+03 -0.64196937261E+02  0.26515042489E+03  0.00000000000E+00 0. -1.
        -11    1    3    3    0    0 -0.20499852752E+03  0.53673665585E+03 -0.11225042459E+02  0.57466219259E+03  0.00000000000E+00 0.  1.
         22    1    1    2    0    0  0.28212057731E+03 -0.78216625981E+03  0.11894672197E+04  0.14512781763E+04  0.00000000000E+00 0. -1.
<mgrwt>
<rscale>  0 0.20019991E+04</rscale>
<asrwt>0</asrwt>
<pdfrwt beam="1">  1        2 0.26193354E+00 0.20019991E+04</pdfrwt>
<pdfrwt beam="2">  1       -2 0.90541966E-01 0.20019991E+04</pdfrwt>
<totfact> 0.94633472E+00</totfact>
</mgrwt>
</event>
<event>
 6    1  0.1014650E-006  0.2133999E+04  0.7818608E-02  0.8546413E-01
         -2   -1    0    0    0  501 -0.00000000000E+00  0.00000000000E+00  0.39214436733E+03  0.39214436733E+03  0.00000000000E+00 0.  1.
          2   -1    0    0  501    0  0.00000000000E+00 -0.00000000000E+00 -0.29032376121E+04  0.29032376121E+04  0.00000000000E+00 0. -1.
         23    2    1    2    0    0  0.37346007463E+03 -0.22939103632E+03 -0.27573175673E+04  0.27926702410E+04  0.64142290247E+02 0.  0.
         11    1    3    3    0    0  0.29946904986E+03 -0.20620152464E+03 -0.21688248186E+04  0.21990911474E+04  0.00000000000E+00 0.  1.
        -11    1    3    3    0    0  0.73991024771E+02 -0.23189511679E+02 -0.58849274865E+03  0.59357909364E+03  0.00000000000E+00 0. -1.
         22    1    1    2    0    0 -0.37346007463E+03  0.22939103632E+03  0.24622432255E+03  0.50271173837E+03  0.00000000000E+00 0.  1.
<mgrwt>
<rscale>  0 0.21339993E+04</rscale>
<asrwt>0</asrwt>
<pdfrwt beam="1">  1        2 0.44665193E+00 0.21339993E+04</pdfrwt>
<pdfrwt beam="2">  1       -2 0.60329904E-01 0.21339993E+04</pdfrwt>
<totfact> 0.47108200E+00</totfact>
</mgrwt>
</event>
<event>
 6    1  0.1014650E-006  0.9196028E+03  0.7818608E-02  0.9401403E-01
         -1   -1    0    0    0  501 -0.00000000000E+00  0.00000000000E+00  0.52514207025E+03  0.52514207025E+03  0.00000000000E+00 0.  1.
          1   -1    0    0  501    0  0.00000000000E+00 -0.00000000000E+00 -0.40259076932E+03  0.40259076932E+03  0.00000000000E+00 0. -1.
         23    2    1    2    0    0  0.63044064186E+02 -0.14579323781E+03 -0.36844375524E+03  0.41168403627E+03  0.92210209427E+02 0.  0.
         11    1    3    3    0    0  0.82198980933E+02 -0.13477687177E+03 -0.28995915354E+03  0.33014813092E+03  0.00000000000E+00 0. -1.
        -11    1    3    3    0    0 -0.19154916748E+02 -0.11016366039E+02 -0.78484601703E+02  0.81535905347E+02  0.00000000000E+00 0.  1.
         22    1    1    2    0    0 -0.63044064186E+02  0.14579323781E+03  0.49099505616E+03  0.51604880331E+03  0.00000000000E+00 0.  1.
<mgrwt>
<rscale>  0 0.91960285E+03</rscale>
<asrwt>0</asrwt>
<pdfrwt beam="1">  1        1 0.61937042E-01 0.91960285E+03</pdfrwt>
<pdfrwt beam="2">  1       -1 0.80791087E-01 0.91960285E+03</pdfrwt>
<totfact> 0.91542962E+01</totfact>
</mgrwt>
</event>
<event>
 6    1  0.1014650E-006  0.2288226E+04  0.7818608E-02  0.8482578E-01
          1   -1    0    0  501    0  0.00000000000E+00  0.00000000000E+00  0.15529051625E+04  0.15529051625E+04  0.00000000000E+00 0. -1.
         -1   -1    0    0    0  501 -0.00000000000E+00 -0.00000000000E+00 -0.84293290756E+03  0.84293290756E+03  0.00000000000E+00 0.  1.
         23    2    1    2    0    0  0.90837478275E+03 -0.44692697088E+03 -0.19844098445E+03  0.10356531280E+04  0.91159826164E+02 0.  0.
         11    1    3    3    0    0  0.35016363855E+03 -0.14882774164E+03 -0.35121083168E+02  0.38209653352E+03  0.00000000000E+00 0.  1.
        -11    1    3    3    0    0  0.55821114421E+03 -0.29809922924E+03 -0.16331990128E+03  0.65355659444E+03  0.00000000000E+00 0. -1.
         22    1    1    2    0    0 -0.90837478275E+03  0.44692697088E+03  0.90841323939E+03  0.13601849421E+04  0.00000000000E+00 0. -1.
<mgrwt>
<rscale>  0 0.22882263E+04</rscale>
<asrwt>0</asrwt>
<pdfrwt beam="1">  1        1 0.23890849E+00 0.22882263E+04</pdfrwt>
<pdfrwt beam="2">  1       -1 0.12968199E+00 0.22882263E+04</pdfrwt>
<totfact> 0.27762006E+00</totfact>
</mgrwt>
</event>
<event>
 6    1  0.1014650E-006  0.4444873E+04  0.7818608E-02  0.7920360E-01
         -2   -1    0    0    0  501 -0.00000000000E+00  0.00000000000E+00  0.16807309363E+04  0.16807309363E+04  0.00000000000E+00 0.  1.
          2   -1    0    0  501    0  0.00000000000E+00 -0.00000000000E+00 -0.29387351041E+04  0.29387351041E+04  0.00000000000E+00 0. -1.
         23    2    1    2    0    0  0.15140515817E+04 -0.15271468312E+04 -0.48801918782E+02  0.21523422667E+04  0.75272635179E+02 0.  0.
         11    1    3    3    0    0  0.11743575765E+04 -0.11424691594E+04 -0.49509967214E+02  0.16391469533E+04  0.00000000000E+00 0. -1.
        -11    1    3    3    0    0  0.33969400523E+03 -0.38467767184E+03  0.70804843159E+00  0.51319531344E+03  0.00000000000E+00 0.  1.
         22    1    1    2    0    0 -0.15140515817E+04  0.15271468312E+04 -0.12092022490E+04  0.24671237738E+04  0.00000000000E+00 0. -1.
<mgrwt>
<rscale>  0 0.44448726E+04</rscale>
<asrwt>0</asrwt>
<pdfrwt beam="1">  1        2 0.45211309E+00 0.44448726E+04</pdfrwt>
<pdfrwt beam="2">  1       -2 0.25857399E+00 0.44448726E+04</pdfrwt>
<totfact> 0.82339506E-02</totfact>
</mgrwt>
</event>
<event>
 6    1  0.1014650E-006  0.2293705E+04  0.7818608E-02  0.8480407E-01
         -2   -1    0    0    0  501 -0.00000000000E+00  0.00000000000E+00  0.84473754461E+03  0.84473754461E+03  0.00000000000E+00 0.  1.
          2   -1    0    0  501    0  0.00000000000E+00 -0.00000000000E+00 -0.15570170081E+04  0.15570170081E+04  0.00000000000E+00 0. -1.
         23    2    1    2    0    0  0.83788164490E+03 -0.20891654145E+02  0.46035944136E+03  0.96037878171E+03  0.88963346620E+02 0.  0.
         11    1    3    3    0    0  0.37889921765E+03  0.15763720542E+02  0.24955922364E+03  0.45397457872E+03  0.00000000000E+00 0. -1.
        -11    1    3    3    0    0  0.45898242725E+03 -0.36655374686E+02  0.21080021772E+03  0.50640420299E+03  0.00000000000E+00 0.  1.
         22    1    1    2    0    0 -0.83788164490E+03  0.20891654145E+02 -0.11726389049E+04  0.14413757710E+04  0.00000000000E+00 0. -1.
<mgrwt>
<rscale>  0 0.22937051E+04</rscale>
<asrwt>0</asrwt>
<pdfrwt beam="1">  1        2 0.23954108E+00 0.22937051E+04</pdfrwt>
<pdfrwt beam="2">  1       -2 0.12995962E+00 0.22937051E+04</pdfrwt>
<totfact> 0.46484840E+00</totfact>
</mgrwt>
</event>
<event>
 6    1  0.1014650E-006  0.3194382E+04  0.7818608E-02  0.8190303E-01
          3   -1    0    0  501    0  0.00000000000E+00  0.00000000000E+00  0.22687715584E+04  0.22687715584E+04  0.00000000000E+00 0. -1.
         -3   -1    0    0    0  501 -0.00000000000E+00 -0.00000000000E+00 -0.11244051477E+04  0.11244051477E+04  0.00000000000E+00 0.  1.
         23    2    1    2    0    0  0.91244002854E+03  0.66360567628E+03  0.17713915409E+04  0.21024095647E+04  0.96843624239E+02 0.  0.
         11    1    3    3    0    0  0.62827834109E+03  0.40064532155E+03  0.11768205964E+04  0.13928952092E+04  0.00000000000E+00 0. -1.
        -11    1    3    3    0    0  0.28416168746E+03  0.26296035473E+03  0.59457094446E+03  0.70951435558E+03  0.00000000000E+00 0.  1.
         22    1    1    2    0    0 -0.91244002854E+03 -0.66360567628E+03 -0.62702513019E+03  0.12907671413E+04  0.00000000000E+00 0.  1.
<mgrwt>
<rscale>  0 0.31943816E+04</rscale>
<asrwt>0</asrwt>
<pdfrwt beam="1">  1        3 0.34904178E+00 0.31943816E+04</pdfrwt>
<pdfrwt beam="2">  1       -3 0.17298541E+00 0.31943816E+04</pdfrwt>
<totfact> 0.10050560E-02</totfact>
</mgrwt>
</event>
<event>
 6    1  0.1014650E-006  0.1889529E+04  0.7818608E-02  0.8660086E-01
          2   -1    0    0  501    0  0.00000000000E+00  0.00000000000E+00  0.23386551764E+04  0.23386551764E+04  0.00000000000E+00 0. -1.
         -2   -1    0    0    0  501 -0.00000000000E+00 -0.00000000000E+00 -0.38166393840E+03  0.38166393840E+03  0.00000000000E+00 0.  1.
         23    2    1    2    0    0 -0.72821723814E+03 -0.18266808283E+03  0.18014702513E+04  0.19536022494E+04  0.87170568255E+02 0.  0.
         13    1    3    3    0    0 -0.42888484878E+03 -0.14233310859E+03  0.10110545655E+04  0.11074440219E+04  0.00000000000E+00 0. -1.
        -13    1    3    3    0    0 -0.29933238936E+03 -0.40334974246E+02  0.79041568584E+03  0.84615822746E+03  0.00000000000E+00 0.  1.
         22    1    1    2    0    0  0.72821723814E+03  0.18266808283E+03  0.15552098668E+03  0.76671686541E+03  0.00000000000E+00 0.  1.
<mgrwt>
<rscale>  0 0.18895294E+04</rscale>
<asrwt>0</asrwt>
<pdfrwt beam="1">  1        2 0.35979309E+00 0.18895294E+04</pdfrwt>
<pdfrwt beam="2">  1       -2 0.58717531E-01 0.18895294E+04</pdfrwt>
<totfact> 0.10956015E+01</totfact>
</mgrwt>
</event>
<event>
 6    1  0.1014650E-006  0.1523123E+04  0.7818608E-02  0.8869220E-01
         -2   -1    0    0    0  501 -0.00000000000E+00  0.00000000000E+00  0.20593942730E+03  0.20593942730E+03  0.00000000000E+00 0.  1.
          2   -1    0    0  501    0  0.00000000000E+00 -0.00000000000E+00 -0.28162455036E+04  0.28162455036E+04  0.00000000000E+00 0. -1.
         23    2    1    2    0    0  0.50286433921E+03  0.19396765355E+03 -0.25004329291E+03  0.60116522818E+03  0.91553202972E+02 0.  0.
         13    1    3    3    0    0  0.32243378825E+03  0.17048468575E+03 -0.16477529826E+03  0.40022428062E+03  0.00000000000E+00 0.  1.
        -13    1    3    3    0    0  0.18043055096E+03  0.23482967800E+02 -0.85267994659E+02  0.20094094757E+03  0.00000000000E+00 0. -1.
         22    1    1    2    0    0 -0.50286433921E+03 -0.19396765355E+03 -0.23602627834E+04  0.24210197027E+04  0.00000000000E+00 0. -1.
<mgrwt>
<rscale>  0 0.15231231E+04</rscale>
<asrwt>0</asrwt>
<pdfrwt beam="1">  1        2 0.43326854E+00 0.15231231E+04</pdfrwt>
<pdfrwt beam="2">  1       -2 0.31682989E-01 0.15231231E+04</pdfrwt>
<totfact> 0.20285412E+01</totfact>
</mgrwt>
</event>
<event>
 6    1  0.1014650E-006  0.4118114E+04  0.7818608E-02  0.7981134E-01
          2   -1    0    0  501    0  0.00000000000E+00  0.00000000000E+00  0.12888299678E+04  0.12888299678E+04  0.00000000000E+00 0. -1.
         -2   -1    0    0    0  501 -0.00000000000E+00 -0.00000000000E+00 -0.32895847565E+04  0.32895847565E+04  0.00000000000E+00 0.  1.
         23    2    1    2    0    0 -0.15285646459E+04  0.41059160124E+03 -0.24633683909E+04  0.29294433224E+04  0.91427624610E+02 0.  0.
         11    1    3    3    0    0 -0.96570245542E+03  0.27436168738E+03 -0.14843511243E+04  0.17919692598E+04  0.00000000000E+00 0. -1.
        -11    1    3    3    0    0 -0.56286219043E+03  0.13622991387E+03 -0.97901726655E+03  0.11374740626E+04  0.00000000000E+00 0.  1.
         22    1    1    2    0    0  0.15285646459E+04 -0.41059160124E+03  0.46261360216E+03  0.16489714020E+04  0.00000000000E+00 0. -1.
<mgrwt>
<rscale>  0 0.41181138E+04</rscale>
<asrwt>0</asrwt>
<pdfrwt beam="1">  1        2 0.19828154E+00 0.41181138E+04</pdfrwt>
<pdfrwt beam="2">  1       -2 0.50608995E+00 0.41181138E+04</pdfrwt>
<totfact> 0.19882272E-02</totfact>
</mgrwt>
</event>
<event>
 6    1  0.1014650E-006  0.2171474E+04  0.7818608E-02  0.8530396E-01
         -2   -1    0    0    0  501 -0.00000000000E+00  0.00000000000E+00  0.30142527386E+03  0.30142527386E+03  0.00000000000E+00 0.  1.
          2   -1    0    0  501    0  0.00000000000E+00 -0.00000000000E+00 -0.39108371454E+04  0.39108371454E+04  0.00000000000E+00 0. -1.
         23    2    1    2    0    0 -0.59057408034E+03  0.81803317280E+03 -0.10456212551E+04  0.14570894046E+04  0.10876445898E+03 0.  0.
         11    1    3    3    0    0 -0.14491855312E+03  0.24501142850E+03 -0.35604712802E+03  0.45585254689E+03  0.00000000000E+00 0. -1.
        -11    1    3    3    0    0 -0.44565552722E+03  0.57302174430E+03 -0.68957412711E+03  0.10012368577E+04  0.00000000000E+00 0.  1.
         22    1    1    2    0    0  0.59057408034E+03 -0.81803317280E+03 -0.25637906164E+04  0.27551730147E+04  0.00000000000E+00 0. -1.
<mgrwt>
<rscale>  0 0.21714743E+04</rscale>
<asrwt>0</asrwt>
<pdfrwt beam="1">  1        2 0.60166724E+00 0.21714743E+04</pdfrwt>
<pdfrwt beam="2">  1       -2 0.46373120E-01 0.21714743E+04</pdfrwt>
<totfact> 0.16393594E+00</totfact>
</mgrwt>
</event>
<event>
 6    1  0.1014650E-006  0.2681300E+04  0.7818608E-02  0.8341098E-01
          2   -1    0    0  501    0  0.00000000000E+00  0.00000000000E+00  0.18727230012E+04  0.18727230012E+04  0.00000000000E+00 0. -1.
         -2   -1    0    0    0  501 -0.00000000000E+00 -0.00000000000E+00 -0.95974778898E+03  0.95974778898E+03  0.00000000000E+00 0.  1.
         23    2    1    2    0    0  0.21956630942E+03 -0.93649316600E+03  0.14410966356E+04  0.17351371800E+04  0.93341877219E+02 0.  0.
         11    1    3    3    0    0  0.13096083244E+03 -0.50697190631E+03  0.70293607911E+03  0.87652175372E+03  0.00000000000E+00 0.  1.
        -11    1    3    3    0    0  0.88605476984E+02 -0.42952125969E+03  0.73816055650E+03  0.85861542628E+03  0.00000000000E+00 0. -1.
         22    1    1    2    0    0 -0.21956630942E+03  0.93649316600E+03 -0.52812142339E+03  0.10973336102E+04  0.00000000000E+00 0.  1.
<mgrwt>
<rscale>  0 0.26812995E+04</rscale>
<asrwt>0</asrwt>
<pdfrwt beam="1">  1        2 0.28811123E+00 0.26812995E+04</pdfrwt>
<pdfrwt beam="2">  1       -2 0.14765351E+00 0.26812995E+04</pdfrwt>
<totfact> 0.21584442E+00</totfact>
</mgrwt>
</event>
<event>
 6    1  0.1014650E-006  0.1790180E+04  0.7818608E-02  0.8711539E-01
         -2   -1    0    0    0  501 -0.00000000000E+00  0.00000000000E+00  0.10369373856E+04  0.10369373856E+04  0.00000000000E+00 0.  1.
          2   -1    0    0  501    0  0.00000000000E+00 -0.00000000000E+00 -0.77264685412E+03  0.77264685412E+03  0.00000000000E+00 0. -1.
         23    2    1    2    0    0  0.30505687516E+03  0.81557482637E+03  0.33440406302E+03  0.93600659477E+03  0.77847759082E+02 0.  0.
         11    1    3    3    0    0  0.12649533657E+03  0.31586598298E+03  0.91122919659E+02  0.35224391530E+03  0.00000000000E+00 0. -1.
        -11    1    3    3    0    0  0.17856153859E+03  0.49970884339E+03  0.24328114336E+03  0.58376267947E+03  0.00000000000E+00 0.  1.
         22    1    1    2    0    0 -0.30505687516E+03 -0.81557482637E+03 -0.70113531520E+02  0.87357764497E+03  0.00000000000E+00 0. -1.
<mgrwt>
<rscale>  0 0.17901803E+04</rscale>
<asrwt>0</asrwt>
<pdfrwt beam="1">  1        2 0.11886875E+00 0.17901803E+04</pdfrwt>
<pdfrwt beam="2">  1       -2 0.15952883E+00 0.17901803E+04</pdfrwt>
<totfact> 0.86491334E+00</totfact>
</mgrwt>
</event>
<event>
 6    1  0.1014650E-006  0.1654386E+04  0.7818608E-02  0.8787816E-01
          1   -1    0    0  501    0  0.00000000000E+00  0.00000000000E+00  0.59857061341E+03  0.59857061341E+03  0.00000000000E+00 0. -1.
         -1   -1    0    0    0  501 -0.00000000000E+00 -0.00000000000E+00 -0.11431369806E+04  0.11431369806E+04  0.00000000000E+00 0.  1.
         23    2    1    2    0    0 -0.29777357445E+03 -0.69199278471E+03  0.79791669958E+02  0.76326696001E+03  0.93202070309E+02 0.  0.
         13    1    3    3    0    0 -0.10708344164E+03 -0.16087284681E+03 -0.60173352962E+00  0.19325449127E+03  0.00000000000E+00 0. -1.
        -13    1    3    3    0    0 -0.19069013282E+03 -0.53111993791E+03  0.80393403488E+02  0.57001246874E+03  0.00000000000E+00 0.  1.
         22    1    1    2    0    0  0.29777357445E+03  0.69199278471E+03 -0.62435803719E+03  0.97844063404E+03  0.00000000000E+00 0.  1.
<mgrwt>
<rscale>  0 0.16543859E+04</rscale>
<asrwt>0</asrwt>
<pdfrwt beam="1">  1        1 0.92087788E-01 0.16543859E+04</pdfrwt>
<pdfrwt beam="2">  1       -1 0.17586723E+00 0.16543859E+04</pdfrwt>
<totfact> 0.73175617E+00</totfact>
</mgrwt>
</event>
<event>
 6    1  0.1014650E-006  0.1010727E+04  0.7818608E-02  0.9296857E-01
         -1   -1    0    0    0  501 -0.00000000000E+00  0.00000000000E+00  0.75207374085E+02  0.75207374085E+02  0.00000000000E+00 0.  1.
          1   -1    0    0  501    0  0.00000000000E+00 -0.00000000000E+00 -0.33958404117E+04  0.33958404117E+04  0.00000000000E+00 0. -1.
         23    2    1    2    0    0  0.45823367383E+03 -0.18410687730E+02 -0.23701040247E+04  0.24156699114E+04  0.88039649634E+02 0.  0.
         13    1    3    3    0    0  0.13707325502E+03 -0.24698203561E+02 -0.54513941052E+03  0.56265091789E+03  0.00000000000E+00 0. -1.
        -13    1    3    3    0    0  0.32116041881E+03  0.62875158305E+01 -0.18249646141E+04  0.18530189935E+04  0.00000000000E+00 0.  1.
         22    1    1    2    0    0 -0.45823367383E+03  0.18410687730E+02 -0.95052901292E+03  0.10553778743E+04  0.00000000000E+00 0. -1.
<mgrwt>
<rscale>  0 0.10107269E+04</rscale>
<asrwt>0</asrwt>
<pdfrwt beam="1">  1        1 0.52243706E+00 0.10107269E+04</pdfrwt>
<pdfrwt beam="2">  1       -1 0.11570364E-01 0.10107269E+04</pdfrwt>
<totfact> 0.15596995E+01</totfact>
</mgrwt>
</event>
<event>
 6    1  0.1014650E-006  0.5065701E+03  0.7818608E-02  0.1012078E+00
         -1   -1    0    0    0  501 -0.00000000000E+00  0.00000000000E+00  0.50377936659E+03  0.50377936659E+03  0.00000000000E+00 0.  1.
          1   -1    0    0  501    0  0.00000000000E+00 -0.00000000000E+00 -0.12734407821E+03  0.12734407821E+03  0.00000000000E+00 0. -1.
         23    2    1    2    0    0  0.11727721748E+03 -0.49328603334E+01 -0.74198214978E+02  0.16545313955E+03  0.89950472092E+02 0.  0.
         11    1    3    3    0    0  0.26149454331E+02 -0.12758476951E+02  0.19096636018E+02  0.34803077496E+02  0.00000000000E+00 0.  1.
        -11    1    3    3    0    0  0.91127763151E+02  0.78256166181E+01 -0.93294850996E+02  0.13065006205E+03  0.00000000000E+00 0. -1.
         22    1    1    2    0    0 -0.11727721748E+03  0.49328603334E+01  0.45063350335E+03  0.46567030525E+03  0.00000000000E+00 0.  1.
<mgrwt>
<rscale>  0 0.50657011E+03</rscale>
<asrwt>0</asrwt>
<pdfrwt beam="1">  1        1 0.19591397E-01 0.50657011E+03</pdfrwt>
<pdfrwt beam="2">  1       -1 0.77504517E-01 0.50657011E+03</pdfrwt>
<totfact> 0.45594530E+02</totfact>
</mgrwt>
</event>
<event>
 6    1  0.1014650E-006  0.1697796E+04  0.7818608E-02  0.8762623E-01
          2   -1    0    0  501    0  0.00000000000E+00  0.00000000000E+00  0.81823945148E+03  0.81823945148E+03  0.00000000000E+00 0. -1.
         -2   -1    0    0    0  501 -0.00000000000E+00 -0.00000000000E+00 -0.88070485168E+03  0.88070485168E+03  0.00000000000E+00 0.  1.
         23    2    1    2    0    0  0.83837759980E+03 -0.32436379411E+02  0.79934756357E+02  0.84794082306E+03  0.93193109079E+02 0.  0.
         13    1    3    3    0    0  0.51438961641E+03  0.25295099536E+02  0.53787641782E+02  0.51781235013E+03  0.00000000000E+00 0. -1.
        -13    1    3    3    0    0  0.32398798339E+03 -0.57731478947E+02  0.26147114575E+02  0.33012847293E+03  0.00000000000E+00 0.  1.
         22    1    1    2    0    0 -0.83837759980E+03  0.32436379411E+02 -0.14240015655E+03  0.85100348010E+03  0.00000000000E+00 0.  1.
<mgrwt>
<rscale>  0 0.16977956E+04</rscale>
<asrwt>0</asrwt>
<pdfrwt beam="1">  1        2 0.12588299E+00 0.16977956E+04</pdfrwt>
<pdfrwt beam="2">  1       -2 0.13549305E+00 0.16977956E+04</pdfrwt>
<totfact> 0.12429212E+01</totfact>
</mgrwt>
</event>
<event>
 6    1  0.1014650E-006  0.6947943E+04  0.7818608E-02  0.7582828E-01
          2   -1    0    0  501    0  0.00000000000E+00  0.00000000000E+00  0.33480479054E+04  0.33480479054E+04  0.00000000000E+00 0. -1.
         -2   -1    0    0    0  501 -0.00000000000E+00 -0.00000000000E+00 -0.36046311302E+04  0.36046311302E+04  0.00000000000E+00 0.  1.
         23    2    1    2    0    0  0.15316289809E+04  0.19552158626E+03 -0.32415989604E+04  0.35919596234E+04  0.10046934776E+03 0.  0.
         11    1    3    3    0    0  0.99974388701E+03  0.14589791748E+03 -0.20159839863E+04  0.22549868015E+04  0.00000000000E+00 0.  1.
        -11    1    3    3    0    0  0.53188509394E+03  0.49623668785E+02 -0.12256149741E+04  0.13369728218E+04  0.00000000000E+00 0. -1.
         22    1    1    2    0    0 -0.15316289809E+04 -0.19552158626E+03  0.29850157356E+04  0.33607194122E+04  0.00000000000E+00 0. -1.
<mgrwt>
<rscale>  0 0.69479429E+04</rscale>
<asrwt>0</asrwt>
<pdfrwt beam="1">  1        2 0.51508429E+00 0.69479429E+04</pdfrwt>
<pdfrwt beam="2">  1       -2 0.55455864E+00 0.69479429E+04</pdfrwt>
<totfact> 0.53626710E-04</totfact>
</mgrwt>
</event>
<event>
 6    1  0.1014650E-006  0.1174660E+04  0.7818608E-02  0.9135331E-01
          1   -1    0    0  501    0  0.00000000000E+00  0.00000000000E+00  0.47655236703E+03  0.47655236703E+03  0.00000000000E+00 0. -1.
         -1   -1    0    0    0  501 -0.00000000000E+00 -0.00000000000E+00 -0.72385825009E+03  0.72385825009E+03  0.00000000000E+00 0.  1.
         23    2    1    2    0    0 -0.17576987230E+02  0.50971454993E+03  0.16526570677E+03  0.54441275918E+03  0.94628883726E+02 0.  0.
         13    1    3    3    0    0  0.14600794475E+02  0.35449835884E+03  0.14985904980E+03  0.38514932744E+03  0.00000000000E+00 0.  1.
        -13    1    3    3    0    0 -0.32177781705E+02  0.15521619109E+03  0.15406656976E+02  0.15926343175E+03  0.00000000000E+00 0. -1.
         22    1    1    2    0    0  0.17576987230E+02 -0.50971454993E+03 -0.41257158983E+03  0.65599785794E+03  0.00000000000E+00 0. -1.
<mgrwt>
<rscale>  0 0.11746597E+04</rscale>
<asrwt>0</asrwt>
<pdfrwt beam="1">  1        1 0.73315750E-01 0.11746597E+04</pdfrwt>
<pdfrwt beam="2">  1       -1 0.11136281E+00 0.11746597E+04</pdfrwt>
<totfact> 0.34816505E+01</totfact>
</mgrwt>
</event>
<event>
 6    1  0.1014650E-006  0.5397669E+04  0.7818608E-02  0.7769929E-01
          2   -1    0    0  501    0  0.00000000000E+00  0.00000000000E+00  0.20249720605E+04  0.20249720605E+04  0.00000000000E+00 0. -1.
         -2   -1    0    0    0  501 -0.00000000000E+00 -0.00000000000E+00 -0.35969417993E+04  0.35969417993E+04  0.00000000000E+00 0.  1.
         23    2    1    2    0    0 -0.22149717700E+04  0.14428256125E+04 -0.22362990437E+03  0.26544459157E+04  0.90703337128E+02 0.  0.
         13    1    3    3    0    0 -0.18028108411E+04  0.11437530269E+04 -0.20555568138E+03  0.21448895201E+04  0.00000000000E+00 0.  1.
        -13    1    3    3    0    0 -0.41216092891E+03  0.29907258561E+03 -0.18074222988E+02  0.50955639562E+03  0.00000000000E+00 0. -1.
         22    1    1    2    0    0  0.22149717700E+04 -0.14428256125E+04 -0.13483398345E+04  0.29674679441E+04  0.00000000000E+00 0.  1.
<mgrwt>
<rscale>  0 0.53976686E+04</rscale>
<asrwt>0</asrwt>
<pdfrwt beam="1">  1        2 0.31153417E+00 0.53976686E+04</pdfrwt>
<pdfrwt beam="2">  1       -2 0.55337565E+00 0.53976686E+04</pdfrwt>
<totfact> 0.37971992E-03</totfact>
</mgrwt>
</event>
<event>
 6    1  0.1014650E-006  0.2741870E+04  0.7818608E-02  0.8321546E-01
          2   -1    0    0  501    0  0.00000000000E+00  0.00000000000E+00  0.16079862831E+04  0.16079862831E+04  0.00000000000E+00 0. -1.
         -2   -1    0    0    0  501 -0.00000000000E+00 -0.00000000000E+00 -0.11688300232E+04  0.11688300232E+04  0.00000000000E+00 0.  1.
         23    2    1    2    0    0 -0.10057685869E+04 -0.81492713531E+03 -0.23271569286E+03  0.13183621222E+04  0.90804213237E+02 0.  0.
         13    1    3    3    0    0 -0.79460129925E+03 -0.61218848634E+03 -0.15055051164E+03  0.10143132771E+04  0.00000000000E+00 0.  1.
        -13    1    3    3    0    0 -0.21116728769E+03 -0.20273864897E+03 -0.82165181226E+02  0.30404884506E+03  0.00000000000E+00 0. -1.
         22    1    1    2    0    0  0.10057685869E+04  0.81492713531E+03  0.67187195280E+03  0.14584541842E+04  0.00000000000E+00 0. -1.
<mgrwt>
<rscale>  0 0.27418699E+04</rscale>
<asrwt>0</asrwt>
<pdfrwt beam="1">  1        2 0.24738251E+00 0.27418699E+04</pdfrwt>
<pdfrwt beam="2">  1       -2 0.17982000E+00 0.27418699E+04</pdfrwt>
<totfact> 0.17551526E+00</totfact>
</mgrwt>
</event>
<event>
 6    1  0.1014650E-006  0.1993662E+04  0.7818608E-02  0.8609590E-01
         -2   -1    0    0    0  501 -0.00000000000E+00  0.00000000000E+00  0.99355993317E+03  0.99355993317E+03  0.00000000000E+00 0.  1.
          2   -1    0    0  501    0  0.00000000000E+00 -0.00000000000E+00 -0.10001126436E+04  0.10001126436E+04  0.00000000000E+00 0. -1.
         23    2    1    2    0    0 -0.19234829680E+03 -0.42927456692E+03 -0.87972099717E+03  0.10018573833E+04  0.92383236709E+02 0.  0.
         13    1    3    3    0    0 -0.12351842806E+03 -0.35383675180E+03 -0.64681403553E+03  0.74754641699E+03  0.00000000000E+00 0. -1.
        -13    1    3    3    0    0 -0.68829868740E+02 -0.75437815128E+02 -0.23290696164E+03  0.25431096626E+03  0.00000000000E+00 0.  1.
         22    1    1    2    0    0  0.19234829680E+03  0.42927456692E+03  0.87316828674E+03  0.99181519350E+03  0.00000000000E+00 0.  1.
<mgrwt>
<rscale>  0 0.19936618E+04</rscale>
<asrwt>0</asrwt>
<pdfrwt beam="1">  1        2 0.15386348E+00 0.19936618E+04</pdfrwt>
<pdfrwt beam="2">  1       -2 0.15285538E+00 0.19936618E+04</pdfrwt>
<totfact> 0.66698143E+00</totfact>
</mgrwt>
</event>
<event>
 6    1  0.1014650E-006  0.2319821E+04  0.7818608E-02  0.8470147E-01
         -2   -1    0    0    0  501 -0.00000000000E+00  0.00000000000E+00  0.14522475533E+04  0.14522475533E+04  0.00000000000E+00 0.  1.
          2   -1    0    0  501    0  0.00000000000E+00 -0.00000000000E+00 -0.92642078024E+03  0.92642078024E+03  0.00000000000E+00 0. -1.
         23    2    1    2    0    0 -0.10861630244E+03 -0.59127970744E+03  0.12781150342E+04  0.14156798489E+04  0.95719384219E+02 0.  0.
         13    1    3    3    0    0 -0.85752716079E+02 -0.47472278057E+03  0.92685004479E+03  0.10448761899E+04  0.00000000000E+00 0. -1.
        -13    1    3    3    0    0 -0.22863586360E+02 -0.11655692687E+03  0.35126498939E+03  0.37080365903E+03  0.00000000000E+00 0.  1.
         22    1    1    2    0    0  0.10861630244E+03  0.59127970744E+03 -0.75228826114E+03  0.96298848458E+03  0.00000000000E+00 0. -1.
<mgrwt>
<rscale>  0 0.23198210E+04</rscale>
<asrwt>0</asrwt>
<pdfrwt beam="1">  1        2 0.14252627E+00 0.23198210E+04</pdfrwt>
<pdfrwt beam="2">  1       -2 0.22342270E+00 0.23198210E+04</pdfrwt>
<totfact> 0.23949168E+00</totfact>
</mgrwt>
</event>
<event>
 6    1  0.1014650E-006  0.5635294E+03  0.7818608E-02  0.9984100E-01
          2   -1    0    0  501    0  0.00000000000E+00  0.00000000000E+00  0.29505546283E+03  0.29505546283E+03  0.00000000000E+00 0. -1.
         -2   -1    0    0    0  501 -0.00000000000E+00 -0.00000000000E+00 -0.26907259552E+03  0.26907259552E+03  0.00000000000E+00 0.  1.
         23    2    1    2    0    0  0.37842675020E+02 -0.17238055715E+03  0.22330947914E+03  0.29939249922E+03  0.92852682160E+02 0.  0.
         13    1    3    3    0    0  0.43645947505E+02 -0.17477000745E+03  0.17660217633E+03  0.25226544139E+03  0.00000000000E+00 0.  1.
        -13    1    3    3    0    0 -0.58032724849E+01  0.23894503012E+01  0.46707302806E+02  0.47127057830E+02  0.00000000000E+00 0. -1.
         22    1    1    2    0    0 -0.37842675020E+02  0.17238055715E+03 -0.19732661182E+03  0.26473555913E+03  0.00000000000E+00 0.  1.
<mgrwt>
<rscale>  0 0.56352938E+03</rscale>
<asrwt>0</asrwt>
<pdfrwt beam="1">  1        2 0.45393148E-01 0.56352938E+03</pdfrwt>
<pdfrwt beam="2">  1       -2 0.41395784E-01 0.56352938E+03</pdfrwt>
<totfact> 0.62251265E+02</totfact>
</mgrwt>
</event>
<event>
 6    1  0.1014650E-006  0.2250681E+04  0.7818608E-02  0.8497625E-01
          2   -1    0    0  501    0  0.00000000000E+00  0.00000000000E+00  0.14919571644E+04  0.14919571644E+04  0.00000000000E+00 0. -1.
         -2   -1    0    0    0  501 -0.00000000000E+00 -0.00000000000E+00 -0.84881228364E+03  0.84881228364E+03  0.00000000000E+00 0.  1.
         23    2    1    2    0    0 -0.79869126975E+02 -0.59780309224E+03  0.13079777351E+04  0.14431334758E+04  0.89893598006E+02 0.  0.
         11    1    3    3    0    0 -0.35514424918E+01 -0.11728769432E+03  0.18217517668E+03  0.21669520294E+03  0.00000000000E+00 0.  1.
        -11    1    3    3    0    0 -0.76317684483E+02 -0.48051539792E+03  0.11258025584E+04  0.12264382729E+04  0.00000000000E+00 0. -1.
         22    1    1    2    0    0  0.79869126975E+02  0.59780309224E+03 -0.66483285430E+03  0.89763597226E+03  0.00000000000E+00 0.  1.
<mgrwt>
<rscale>  0 0.22506813E+04</rscale>
<asrwt>0</asrwt>
<pdfrwt beam="1">  1        2 0.22953187E+00 0.22506813E+04</pdfrwt>
<pdfrwt beam="2">  1       -2 0.13058651E+00 0.22506813E+04</pdfrwt>
<totfact> 0.50143998E+00</totfact>
</mgrwt>
</event>
<event>
 6    1  0.1014650E-006  0.1363316E+04  0.7818608E-02  0.8980809E-01
          2   -1    0    0  501    0  0.00000000000E+00  0.00000000000E+00  0.11856623672E+04  0.11856623672E+04  0.00000000000E+00 0. -1.
         -2   -1    0    0    0  501 -0.00000000000E+00 -0.00000000000E+00 -0.39189692379E+03  0.39189692379E+03  0.00000000000E+00 0.  1.
         23    2    1    2    0    0  0.17334173198E+03 -0.65548983664E+03  0.42779956724E+03  0.80707547904E+03  0.92973529267E+02 0.  0.
         13    1    3    3    0    0  0.32899410892E+02 -0.27862321092E+03  0.14863746296E+03  0.31750017369E+03  0.00000000000E+00 0.  1.
        -13    1    3    3    0    0  0.14044232109E+03 -0.37686662572E+03  0.27916210428E+03  0.48957530534E+03  0.00000000000E+00 0. -1.
         22    1    1    2    0    0 -0.17334173198E+03  0.65548983664E+03  0.36596587618E+03  0.77048381197E+03  0.00000000000E+00 0.  1.
<mgrwt>
<rscale>  0 0.13633157E+04</rscale>
<asrwt>0</asrwt>
<pdfrwt beam="1">  1        2 0.18240959E+00 0.13633157E+04</pdfrwt>
<pdfrwt beam="2">  1       -2 0.60291835E-01 0.13633157E+04</pdfrwt>
<totfact> 0.48329410E+01</totfact>
</mgrwt>
</event>
<event>
 6    1  0.1014650E-006  0.3383128E+04  0.7818608E-02  0.8142060E-01
         -1   -1    0    0    0  501 -0.00000000000E+00  0.00000000000E+00  0.10720596226E+04  0.10720596226E+04  0.00000000000E+00 0.  1.
          1   -1    0    0  501    0  0.00000000000E+00 -0.00000000000E+00 -0.26690570782E+04  0.26690570782E+04  0.00000000000E+00 0. -1.
         23    2    1    2    0    0 -0.10449536806E+04 -0.89674523996E+03 -0.18831307148E+04  0.23347197220E+04  0.93030488077E+02 0.  0.
         11    1    3    3    0    0 -0.20216183360E+03 -0.18468194651E+03 -0.43808768508E+03  0.51662137794E+03  0.00000000000E+00 0. -1.
        -11    1    3    3    0    0 -0.84279184696E+03 -0.71206329345E+03 -0.14450430297E+04  0.18180983441E+04  0.00000000000E+00 0.  1.
         22    1    1    2    0    0  0.10449536806E+04  0.89674523996E+03  0.28613325922E+03  0.14063969788E+04  0.00000000000E+00 0.  1.
<mgrwt>
<rscale>  0 0.33831277E+04</rscale>
<asrwt>0</asrwt>
<pdfrwt beam="1">  1        1 0.41062417E+00 0.33831277E+04</pdfrwt>
<pdfrwt beam="2">  1       -1 0.16493225E+00 0.33831277E+04</pdfrwt>
<totfact> 0.22801302E-01</totfact>
</mgrwt>
</event>
<event>
 6    1  0.1014650E-006  0.3800043E+04  0.7818608E-02  0.8046146E-01
         -1   -1    0    0    0  501 -0.00000000000E+00  0.00000000000E+00  0.18244250162E+04  0.18244250162E+04  0.00000000000E+00 0.  1.
          1   -1    0    0  501    0  0.00000000000E+00 -0.00000000000E+00 -0.19787499975E+04  0.19787499975E+04  0.00000000000E+00 0. -1.
         23    2    1    2    0    0 -0.14586968205E+03  0.47540365141E+03 -0.19113816497E+04  0.19771041684E+04  0.90964202323E+02 0.  0.
         13    1    3    3    0    0 -0.57168800201E+02  0.33067441657E+03 -0.12955010756E+04  0.13382588981E+04  0.00000000000E+00 0.  1.
        -13    1    3    3    0    0 -0.88700881848E+02  0.14472923484E+03 -0.61588057405E+03  0.63884527027E+03  0.00000000000E+00 0. -1.
         22    1    1    2    0    0  0.14586968205E+03 -0.47540365141E+03  0.17570566684E+04  0.18260708453E+04  0.00000000000E+00 0.  1.
<mgrwt>
<rscale>  0 0.38000426E+04</rscale>
<asrwt>0</asrwt>
<pdfrwt beam="1">  1        1 0.30442308E+00 0.38000426E+04</pdfrwt>
<pdfrwt beam="2">  1       -1 0.28068077E+00 0.38000426E+04</pdfrwt>
<totfact> 0.10799499E-01</totfact>
</mgrwt>
</event>
<event>
 6    1  0.1014650E-006  0.4917182E+04  0.7818608E-02  0.7841411E-01
          2   -1    0    0  501    0  0.00000000000E+00  0.00000000000E+00  0.30116475677E+04  0.30116475677E+04  0.00000000000E+00 0. -1.
         -2   -1    0    0    0  501 -0.00000000000E+00 -0.00000000000E+00 -0.20070976892E+04  0.20070976892E+04  0.00000000000E+00 0.  1.
         23    2    1    2    0    0  0.16628696079E+04 -0.13206645500E+04 -0.75957643576E+03  0.22580511705E+04  0.11202026880E+03 0.  0.
         13    1    3    3    0    0  0.86250265715E+03 -0.65354134452E+03 -0.44035989090E+03  0.11683081597E+04  0.00000000000E+00 0. -1.
        -13    1    3    3    0    0  0.80036695071E+03 -0.66712320547E+03 -0.31921654487E+03  0.10897430108E+04  0.00000000000E+00 0.  1.
         22    1    1    2    0    0 -0.16628696079E+04  0.13206645500E+04  0.17641263143E+04  0.27606940865E+04  0.00000000000E+00 0. -1.
<mgrwt>
<rscale>  0 0.49171825E+04</rscale>
<asrwt>0</asrwt>
<pdfrwt beam="1">  1        2 0.46333039E+00 0.49171825E+04</pdfrwt>
<pdfrwt beam="2">  1       -2 0.30878426E+00 0.49171825E+04</pdfrwt>
<totfact> 0.35204725E-02</totfact>
</mgrwt>
</event>
<event>
 6    1  0.1014650E-006  0.8561963E+03  0.7818608E-02  0.9482058E-01
         -2   -1    0    0    0  501 -0.00000000000E+00  0.00000000000E+00  0.30152809388E+03  0.30152809388E+03  0.00000000000E+00 0.  1.
          2   -1    0    0  501    0  0.00000000000E+00 -0.00000000000E+00 -0.60779749041E+03  0.60779749041E+03  0.00000000000E+00 0. -1.
         23    2    1    2    0    0  0.32681728835E+03 -0.77336836448E+02  0.11884994094E+03  0.36755351291E+03  0.90441971220E+02 0.  0.
         13    1    3    3    0    0  0.97768090131E+02 -0.13186304672E+02 -0.61519216080E+01  0.98844950393E+02  0.00000000000E+00 0. -1.
        -13    1    3    3    0    0  0.22904919822E+03 -0.64150531776E+02  0.12500186255E+03  0.26870856252E+03  0.00000000000E+00 0.  1.
         22    1    1    2    0    0 -0.32681728835E+03  0.77336836448E+02 -0.42511933748E+03  0.54177207138E+03  0.00000000000E+00 0. -1.
<mgrwt>
<rscale>  0 0.85619628E+03</rscale>
<asrwt>0</asrwt>
<pdfrwt beam="1">  1        2 0.93507305E-01 0.85619628E+03</pdfrwt>
<pdfrwt beam="2">  1       -2 0.46388938E-01 0.85619628E+03</pdfrwt>
<totfact> 0.21614556E+02</totfact>
</mgrwt>
</event>
<event>
 6    1  0.1014650E-006  0.1097060E+04  0.7818608E-02  0.9208062E-01
          2   -1    0    0  501    0  0.00000000000E+00  0.00000000000E+00  0.34988854033E+04  0.34988854033E+04  0.00000000000E+00 0. -1.
         -2   -1    0    0    0  501 -0.00000000000E+00 -0.00000000000E+00 -0.85994575155E+02  0.85994575155E+02  0.00000000000E+00 0.  1.
         23    2    1    2    0    0  0.26027785487E+03 -0.38567441230E+03  0.26431736739E+04  0.26854613820E+04  0.94055568511E+02 0.  0.
         13    1    3    3    0    0  0.94065527583E+02 -0.18366078856E+03  0.94593569158E+03  0.96818073795E+03  0.00000000000E+00 0. -1.
        -13    1    3    3    0    0  0.16621232729E+03 -0.20201362374E+03  0.16972379823E+04  0.17172806441E+04  0.00000000000E+00 0.  1.
         22    1    1    2    0    0 -0.26027785487E+03  0.38567441230E+03  0.76971715421E+03  0.89941859638E+03  0.00000000000E+00 0.  1.
<mgrwt>
<rscale>  0 0.10970600E+04</rscale>
<asrwt>0</asrwt>
<pdfrwt beam="1">  1        2 0.53828995E+00 0.10970600E+04</pdfrwt>
<pdfrwt beam="2">  1       -2 0.13229937E-01 0.10970600E+04</pdfrwt>
<totfact> 0.36222358E+01</totfact>
</mgrwt>
</event>
<event>
 6    1  0.1014650E-006  0.9101568E+03  0.7818608E-02  0.9412973E-01
         -2   -1    0    0    0  501 -0.00000000000E+00  0.00000000000E+00  0.11642206284E+03  0.11642206284E+03  0.00000000000E+00 0.  1.
          2   -1    0    0  501    0  0.00000000000E+00 -0.00000000000E+00 -0.17788412610E+04  0.17788412610E+04  0.00000000000E+00 0. -1.
         23    2    1    2    0    0  0.18711621467E+03 -0.36924162701E+03 -0.46932854446E+03  0.63240261701E+03  0.91169789120E+02 0.  0.
         11    1    3    3    0    0  0.13324635441E+03 -0.23367027692E+03 -0.23937451567E+03  0.36007853037E+03  0.00000000000E+00 0. -1.
        -11    1    3    3    0    0  0.53869860263E+02 -0.13557135009E+03 -0.22995402879E+03  0.27232408664E+03  0.00000000000E+00 0.  1.
         22    1    1    2    0    0 -0.18711621467E+03  0.36924162701E+03 -0.11930906537E+04  0.12628607068E+04  0.00000000000E+00 0. -1.
<mgrwt>
<rscale>  0 0.91015684E+03</rscale>
<asrwt>0</asrwt>
<pdfrwt beam="1">  1        2 0.27366791E+00 0.91015684E+03</pdfrwt>
<pdfrwt beam="2">  1       -2 0.17911085E-01 0.91015684E+03</pdfrwt>
<totfact> 0.23093336E+02</totfact>
</mgrwt>
</event>
<event>
 6    1  0.1014650E-006  0.1467593E+04  0.7818608E-02  0.8906294E-01
         -1   -1    0    0    0  501 -0.00000000000E+00  0.00000000000E+00  0.51004083201E+03  0.51004083201E+03  0.00000000000E+00 0.  1.
          1   -1    0    0  501    0  0.00000000000E+00 -0.00000000000E+00 -0.10557146787E+04  0.10557146787E+04  0.00000000000E+00 0. -1.
         23    2    1    2    0    0  0.19103320887E+03  0.69339357861E+03 -0.13700213610E+03  0.73853068710E+03  0.96796945918E+02 0.  0.
         13    1    3    3    0    0  0.97079309506E+02  0.48205157449E+03 -0.63304791290E+02  0.49578786734E+03  0.00000000000E+00 0. -1.
        -13    1    3    3    0    0  0.93953899364E+02  0.21134200412E+03 -0.73697344809E+02  0.24274281976E+03  0.00000000000E+00 0.  1.
         22    1    1    2    0    0 -0.19103320887E+03 -0.69339357861E+03 -0.40867171057E+03  0.82722482359E+03  0.00000000000E+00 0. -1.
<mgrwt>
<rscale>  0 0.14675934E+04</rscale>
<asrwt>0</asrwt>
<pdfrwt beam="1">  1        1 0.16241764E+00 0.14675934E+04</pdfrwt>
<pdfrwt beam="2">  1       -1 0.78467820E-01 0.14675934E+04</pdfrwt>
<totfact> 0.21601588E+01</totfact>
</mgrwt>
</event>
<event>
 6    1  0.1014650E-006  0.3815346E+04  0.7818608E-02  0.8042870E-01
          1   -1    0    0  501    0  0.00000000000E+00  0.00000000000E+00  0.51217049412E+04  0.51217049412E+04  0.00000000000E+00 0. -1.
         -1   -1    0    0    0  501 -0.00000000000E+00 -0.00000000000E+00 -0.71054773034E+03  0.71054773034E+03  0.00000000000E+00 0.  1.
         23    2    1    2    0    0  0.83660985087E+03  0.13332669661E+04  0.56258489516E+03  0.16742452503E+04  0.95281417230E+02 0.  0.
         13    1    3    3    0    0  0.68174811551E+03  0.10144732992E+04  0.44748954812E+03  0.13016080299E+04  0.00000000000E+00 0.  1.
        -13    1    3    3    0    0  0.15486173536E+03  0.31879366695E+03  0.11509534703E+03  0.37263722046E+03  0.00000000000E+00 0. -1.
         22    1    1    2    0    0 -0.83660985087E+03 -0.13332669661E+04  0.38485723157E+04  0.41580074212E+04  0.00000000000E+00 0. -1.
<mgrwt>
<rscale>  0 0.38153458E+04</rscale>
<asrwt>0</asrwt>
<pdfrwt beam="1">  1        1 0.78795458E+00 0.38153458E+04</pdfrwt>
<pdfrwt beam="2">  1       -1 0.10931504E+00 0.38153458E+04</pdfrwt>
<totfact> 0.36337126E-03</totfact>
</mgrwt>
</event>
<event>
 6    1  0.1014650E-006  0.8743991E+03  0.7818608E-02  0.9458162E-01
          1   -1    0    0  501    0  0.00000000000E+00  0.00000000000E+00  0.18679034769E+04  0.18679034769E+04  0.00000000000E+00 0. -1.
         -1   -1    0    0    0  501 -0.00000000000E+00 -0.00000000000E+00 -0.10233047308E+03  0.10233047308E+03  0.00000000000E+00 0.  1.
         23    2    1    2    0    0  0.37001391923E+03  0.20552440916E+03  0.66319000014E+03  0.78938727493E+03  0.64503568536E+02 0.  0.
         13    1    3    3    0    0  0.17981409764E+03  0.13614696895E+03  0.35986286037E+03  0.42470034747E+03  0.00000000000E+00 0. -1.
        -13    1    3    3    0    0  0.19019982158E+03  0.69377440205E+02  0.30332713976E+03  0.36468692746E+03  0.00000000000E+00 0.  1.
         22    1    1    2    0    0 -0.37001391923E+03 -0.20552440916E+03  0.11023830037E+04  0.11808466751E+04  0.00000000000E+00 0. -1.
<mgrwt>
<rscale>  0 0.87439910E+03</rscale>
<asrwt>0</asrwt>
<pdfrwt beam="1">  1        1 0.28736974E+00 0.87439910E+03</pdfrwt>
<pdfrwt beam="2">  1       -1 0.15743151E-01 0.87439910E+03</pdfrwt>
<totfact> 0.11313643E+02</totfact>
</mgrwt>
</event>
<event>
 6    1  0.1014650E-006  0.3134362E+04  0.7818608E-02  0.8206370E-01
         -1   -1    0    0    0  501 -0.00000000000E+00  0.00000000000E+00  0.14799242634E+04  0.14799242634E+04  0.00000000000E+00 0.  1.
          1   -1    0    0  501    0  0.00000000000E+00 -0.00000000000E+00 -0.16595819459E+04  0.16595819459E+04  0.00000000000E+00 0. -1.
         23    2    1    2    0    0  0.13693387352E+04 -0.33752866976E+03  0.59134814215E+03  0.15321903860E+04  0.94342880440E+02 0.  0.
         11    1    3    3    0    0  0.70085187909E+03 -0.13217084294E+03  0.27046987576E+03  0.76276893083E+03  0.00000000000E+00 0. -1.
        -11    1    3    3    0    0  0.66848685607E+03 -0.20535782682E+03  0.32087826638E+03  0.76942145512E+03  0.00000000000E+00 0.  1.
         22    1    1    2    0    0 -0.13693387352E+04  0.33752866976E+03 -0.77100582462E+03  0.16073158234E+04  0.00000000000E+00 0. -1.
<mgrwt>
<rscale>  0 0.31343616E+04</rscale>
<asrwt>0</asrwt>
<pdfrwt beam="1">  1        1 0.25532030E+00 0.31343616E+04</pdfrwt>
<pdfrwt beam="2">  1       -1 0.22768066E+00 0.31343616E+04</pdfrwt>
<totfact> 0.41794784E-01</totfact>
</mgrwt>
</event>
<event>
 6    1  0.1014650E-006  0.1246313E+04  0.7818608E-02  0.9073257E-01
         -1   -1    0    0    0  501 -0.00000000000E+00  0.00000000000E+00  0.15432348413E+03  0.15432348413E+03  0.00000000000E+00 0.  1.
          1   -1    0    0  501    0  0.00000000000E+00 -0.00000000000E+00 -0.25163009367E+04  0.25163009367E+04  0.00000000000E+00 0. -1.
         23    2    1    2    0    0  0.28230599320E+02 -0.58924885626E+03 -0.15936948817E+04  0.17019814061E+04  0.94160231708E+02 0.  0.
         11    1    3    3    0    0  0.61838849594E+02 -0.32632278787E+03 -0.90795443296E+03  0.96679463048E+03  0.00000000000E+00 0.  1.
        -11    1    3    3    0    0 -0.33608250274E+02 -0.26292606839E+03 -0.68574044878E+03  0.73518677560E+03  0.00000000000E+00 0. -1.
         22    1    1    2    0    0 -0.28230599320E+02  0.58924885626E+03 -0.76828257082E+03  0.96864301472E+03  0.00000000000E+00 0.  1.
<mgrwt>
<rscale>  0 0.12463135E+04</rscale>
<asrwt>0</asrwt>
<pdfrwt beam="1">  1        1 0.38712315E+00 0.12463135E+04</pdfrwt>
<pdfrwt beam="2">  1       -1 0.23742079E-01 0.12463135E+04</pdfrwt>
<totfact> 0.20035399E+01</totfact>
</mgrwt>
</event>
<event>
 6    1  0.1014650E-006  0.4906583E+04  0.7818608E-02  0.7843081E-01
          2   -1    0    0  501    0  0.00000000000E+00  0.00000000000E+00  0.37284085589E+04  0.37284085589E+04  0.00000000000E+00 0. -1.
         -2   -1    0    0    0  501 -0.00000000000E+00 -0.00000000000E+00 -0.16142652436E+04  0.16142652436E+04  0.00000000000E+00 0.  1.
         23    2    1    2    0    0 -0.13031097631E+04  0.11482936312E+04 -0.82785681096E+03  0.19262373460E+04  0.91488225922E+02 0.  0.
         13    1    3    3    0    0 -0.97150781435E+03  0.89490514436E+03 -0.59997455147E+03  0.14507419182E+04  0.00000000000E+00 0. -1.
        -13    1    3    3    0    0 -0.33160194872E+03  0.25338848683E+03 -0.22788225950E+03  0.47549542779E+03  0.00000000000E+00 0.  1.
         22    1    1    2    0    0  0.13031097631E+04 -0.11482936312E+04  0.29420001263E+04  0.34164364565E+04  0.00000000000E+00 0. -1.
<mgrwt>
<rscale>  0 0.49065835E+04</rscale>
<asrwt>0</asrwt>
<pdfrwt beam="1">  1        2 0.57360131E+00 0.49065835E+04</pdfrwt>
<pdfrwt beam="2">  1       -2 0.24834850E+00 0.49065835E+04</pdfrwt>
<totfact> 0.26747852E-02</totfact>
</mgrwt>
</event>
<event>
 6    1  0.1014650E-006  0.2007119E+04  0.7818608E-02  0.8603299E-01
         -2   -1    0    0    0  501 -0.00000000000E+00  0.00000000000E+00  0.50403555121E+03  0.50403555121E+03  0.00000000000E+00 0.  1.
          2   -1    0    0  501    0  0.00000000000E+00 -0.00000000000E+00 -0.19981370217E+04  0.19981370217E+04  0.00000000000E+00 0. -1.
         23    2    1    2    0    0 -0.49155815317E+03  0.51266031664E+03 -0.16287301989E+04  0.17792791419E+04  0.92855724995E+02 0.  0.
         13    1    3    3    0    0 -0.38120092672E+03  0.33717152856E+03 -0.11461962351E+04  0.12540991171E+04  0.00000000000E+00 0. -1.
        -13    1    3    3    0    0 -0.11035722645E+03  0.17548878808E+03 -0.48253396380E+03  0.52518002475E+03  0.00000000000E+00 0.  1.
         22    1    1    2    0    0  0.49155815317E+03 -0.51266031664E+03  0.13462872837E+03  0.72289343109E+03  0.00000000000E+00 0.  1.
<mgrwt>
<rscale>  0 0.20071194E+04</rscale>
<asrwt>0</asrwt>
<pdfrwt beam="1">  1        2 0.30740569E+00 0.20071194E+04</pdfrwt>
<pdfrwt beam="2">  1       -2 0.77543933E-01 0.20071194E+04</pdfrwt>
<totfact> 0.92179104E+00</totfact>
</mgrwt>
</event>
<event>
 6    1  0.1014650E-006  0.1856068E+04  0.7818608E-02  0.8677038E-01
         -1   -1    0    0    0  501 -0.00000000000E+00  0.00000000000E+00  0.36695648572E+03  0.36695648572E+03  0.00000000000E+00 0.  1.
          1   -1    0    0  501    0  0.00000000000E+00 -0.00000000000E+00 -0.23470015876E+04  0.23470015876E+04  0.00000000000E+00 0. -1.
         23    2    1    2    0    0  0.85737782217E+03 -0.15394647689E+03 -0.53370243879E+03  0.10255554712E+04  0.90163649493E+02 0.  0.
         13    1    3    3    0    0  0.34359091208E+03 -0.16967809993E+02 -0.20932426110E+03  0.40269003927E+03  0.00000000000E+00 0.  1.
        -13    1    3    3    0    0  0.51378691009E+03 -0.13697866689E+03 -0.32437817769E+03  0.62286543196E+03  0.00000000000E+00 0. -1.
         22    1    1    2    0    0 -0.85737782217E+03  0.15394647689E+03 -0.14463426631E+04  0.16884026021E+04  0.00000000000E+00 0. -1.
<mgrwt>
<rscale>  0 0.18560684E+04</rscale>
<asrwt>0</asrwt>
<pdfrwt beam="1">  1        1 0.36107718E+00 0.18560684E+04</pdfrwt>
<pdfrwt beam="2">  1       -1 0.56454842E-01 0.18560684E+04</pdfrwt>
<totfact> 0.51553842E+00</totfact>
</mgrwt>
</event>
<event>
 6    1  0.1014650E-006  0.1896249E+04  0.7818608E-02  0.8656726E-01
          1   -1    0    0  501    0  0.00000000000E+00  0.00000000000E+00  0.29014591639E+04  0.29014591639E+04  0.00000000000E+00 0. -1.
         -1   -1    0    0    0  501 -0.00000000000E+00 -0.00000000000E+00 -0.30982358063E+03  0.30982358063E+03  0.00000000000E+00 0.  1.
         23    2    1    2    0    0  0.61960495884E+03 -0.27765737319E+03  0.18331738988E+03  0.70908362326E+03  0.90500814563E+02 0.  0.
         11    1    3    3    0    0  0.27010432438E+03 -0.17043507752E+03  0.82900187621E+02  0.32996500239E+03  0.00000000000E+00 0.  1.
        -11    1    3    3    0    0  0.34950063446E+03 -0.10722229567E+03  0.10041720226E+03  0.37911862086E+03  0.00000000000E+00 0. -1.
         22    1    1    2    0    0 -0.61960495884E+03  0.27765737319E+03  0.24083181934E+04  0.25021991213E+04  0.00000000000E+00 0. -1.
<mgrwt>
<rscale>  0 0.18962494E+04</rscale>
<asrwt>0</asrwt>
<pdfrwt beam="1">  1        1 0.44637832E+00 0.18962494E+04</pdfrwt>
<pdfrwt beam="2">  1       -1 0.47665168E-01 0.18962494E+04</pdfrwt>
<totfact> 0.29051662E+00</totfact>
</mgrwt>
</event>
<event>
 6    1  0.1014650E-006  0.3830089E+04  0.7818608E-02  0.8039729E-01
         -2   -1    0    0    0  501 -0.00000000000E+00  0.00000000000E+00  0.13477527901E+04  0.13477527901E+04  0.00000000000E+00 0.  1.
          2   -1    0    0  501    0  0.00000000000E+00 -0.00000000000E+00 -0.27211188854E+04  0.27211188854E+04  0.00000000000E+00 0. -1.
         23    2    1    2    0    0  0.13525048945E+03 -0.17479591986E+04 -0.15027778944E+04  0.23109179024E+04  0.91356974295E+02 0.  0.
         13    1    3    3    0    0  0.60693107535E+02 -0.36487845312E+03 -0.34129475909E+03  0.50329121931E+03  0.00000000000E+00 0. -1.
        -13    1    3    3    0    0  0.74557381910E+02 -0.13830807454E+04 -0.11614831354E+04  0.18076266831E+04  0.00000000000E+00 0.  1.
         22    1    1    2    0    0 -0.13525048945E+03  0.17479591986E+04  0.12941179914E+03  0.17579537731E+04  0.00000000000E+00 0.  1.
<mgrwt>
<rscale>  0 0.38300891E+04</rscale>
<asrwt>0</asrwt>
<pdfrwt beam="1">  1        2 0.41863367E+00 0.38300891E+04</pdfrwt>
<pdfrwt beam="2">  1       -2 0.20734658E+00 0.38300891E+04</pdfrwt>
<totfact> 0.24569815E-01</totfact>
</mgrwt>
</event>
<event>
 6    1  0.1014650E-006  0.1256704E+04  0.7818608E-02  0.9064622E-01
          2   -1    0    0  501    0  0.00000000000E+00  0.00000000000E+00  0.24771911498E+04  0.24771911498E+04  0.00000000000E+00 0. -1.
         -2   -1    0    0    0  501 -0.00000000000E+00 -0.00000000000E+00 -0.15938472333E+03  0.15938472333E+03  0.00000000000E+00 0.  1.
         23    2    1    2    0    0 -0.31297473318E+03 -0.30188636319E+03  0.21069981093E+04  0.21533277935E+04  0.91054894846E+02 0.  0.
         13    1    3    3    0    0 -0.24562966216E+03 -0.27240708570E+03  0.16349650974E+04  0.16756044942E+04  0.00000000000E+00 0.  1.
        -13    1    3    3    0    0 -0.67345071022E+02 -0.29479277496E+02  0.47203301186E+03  0.47772329928E+03  0.00000000000E+00 0. -1.
         22    1    1    2    0    0  0.31297473318E+03  0.30188636319E+03  0.21080831724E+03  0.48324807967E+03  0.00000000000E+00 0.  1.
<mgrwt>
<rscale>  0 0.12567043E+04</rscale>
<asrwt>0</asrwt>
<pdfrwt beam="1">  1        2 0.38110630E+00 0.12567043E+04</pdfrwt>
<pdfrwt beam="2">  1       -2 0.24520729E-01 0.12567043E+04</pdfrwt>
<totfact> 0.52688321E+01</totfact>
</mgrwt>
</event>
<event>
 6    1  0.1014650E-006  0.2443186E+04  0.7818608E-02  0.8423510E-01
          1   -1    0    0  501    0  0.00000000000E+00  0.00000000000E+00  0.23018139551E+04  0.23018139551E+04  0.00000000000E+00 0. -1.
         -1   -1    0    0    0  501 -0.00000000000E+00 -0.00000000000E+00 -0.64831027862E+03  0.64831027862E+03  0.00000000000E+00 0.  1.
         23    2    1    2    0    0 -0.10390537001E+04  0.62968555729E+03  0.96168519647E+03  0.15520007406E+04  0.87928315814E+02 0.  0.
         11    1    3    3    0    0 -0.66245972816E+03  0.42161454563E+03  0.66954141932E+03  0.10319386749E+04  0.00000000000E+00 0. -1.
        -11    1    3    3    0    0 -0.37659397198E+03  0.20807101166E+03  0.29214377715E+03  0.52006206567E+03  0.00000000000E+00 0.  1.
         22    1    1    2    0    0  0.10390537001E+04 -0.62968555729E+03  0.69181848002E+03  0.13981234932E+04  0.00000000000E+00 0. -1.
<mgrwt>
<rscale>  0 0.24431862E+04</rscale>
<asrwt>0</asrwt>
<pdfrwt beam="1">  1        1 0.35412522E+00 0.24431862E+04</pdfrwt>
<pdfrwt beam="2">  1       -1 0.99740044E-01 0.24431862E+04</pdfrwt>
<totfact> 0.15881952E+00</totfact>
</mgrwt>
</event>
<event>
 6    1  0.1014650E-006  0.3408654E+04  0.7818608E-02  0.8135786E-01
         -2   -1    0    0    0  501 -0.00000000000E+00  0.00000000000E+00  0.10302087509E+04  0.10302087509E+04  0.00000000000E+00 0.  1.
          2   -1    0    0  501    0  0.00000000000E+00 -0.00000000000E+00 -0.28195547980E+04  0.28195547980E+04  0.00000000000E+00 0. -1.
         23    2    1    2    0    0  0.70505472732E+03 -0.13412270127E+04 -0.17162611085E+02  0.15181061558E+04  0.91431269803E+02 0.  0.
         11    1    3    3    0    0  0.12369500867E+03 -0.17082840764E+03  0.74608130905E+01  0.21104137926E+03  0.00000000000E+00 0. -1.
        -11    1    3    3    0    0  0.58135971865E+03 -0.11703986050E+04 -0.24623424176E+02  0.13070647766E+04  0.00000000000E+00 0.  1.
         22    1    1    2    0    0 -0.70505472732E+03  0.13412270127E+04 -0.17721834360E+04  0.23316573931E+04  0.00000000000E+00 0. -1.
<mgrwt>
<rscale>  0 0.34086537E+04</rscale>
<asrwt>0</asrwt>
<pdfrwt beam="1">  1        2 0.43377766E+00 0.34086537E+04</pdfrwt>
<pdfrwt beam="2">  1       -2 0.15849366E+00 0.34086537E+04</pdfrwt>
<totfact> 0.48122029E-01</totfact>
</mgrwt>
</event>
<event>
 6    1  0.1014650E-006  0.1539132E+04  0.7818608E-02  0.8858839E-01
         -1   -1    0    0    0  501 -0.00000000000E+00  0.00000000000E+00  0.32824176561E+03  0.32824176561E+03  0.00000000000E+00 0.  1.
          1   -1    0    0  501    0  0.00000000000E+00 -0.00000000000E+00 -0.18042555761E+04  0.18042555761E+04  0.00000000000E+00 0. -1.
         23    2    1    2    0    0  0.28712680199E+03 -0.11461133182E+03  0.23194198144E+03  0.39678695544E+03  0.89806722747E+02 0.  0.
         13    1    3    3    0    0  0.21430835618E+03 -0.12177736679E+03  0.15812506194E+03  0.29285036077E+03  0.00000000000E+00 0. -1.
        -13    1    3    3    0    0  0.72818445815E+02  0.71660349619E+01  0.73816919499E+02  0.10393659467E+03  0.00000000000E+00 0.  1.
         22    1    1    2    0    0 -0.28712680199E+03  0.11461133182E+03 -0.17079557920E+04  0.17357103863E+04  0.00000000000E+00 0. -1.
<mgrwt>
<rscale>  0 0.15391323E+04</rscale>
<asrwt>0</asrwt>
<pdfrwt beam="1">  1        1 0.27757778E+00 0.15391323E+04</pdfrwt>
<pdfrwt beam="2">  1       -1 0.50498734E-01 0.15391323E+04</pdfrwt>
<totfact> 0.15372605E+01</totfact>
</mgrwt>
</event>
<event>
 6    1  0.1014650E-006  0.2706988E+04  0.7818608E-02  0.8332741E-01
         -1   -1    0    0    0  501 -0.00000000000E+00  0.00000000000E+00  0.60026655169E+03  0.60026655169E+03  0.00000000000E+00 0.  1.
          1   -1    0    0  501    0  0.00000000000E+00 -0.00000000000E+00 -0.30518882606E+04  0.30518882606E+04  0.00000000000E+00 0. -1.
         23    2    1    2    0    0  0.11726531806E+04  0.58384745595E+03 -0.77607294338E+03  0.15253127872E+04  0.91085408080E+02 0.  0.
         11    1    3    3    0    0  0.59549728592E+03  0.34707719684E+03 -0.41232897812E+03  0.80317792817E+03  0.00000000000E+00 0. -1.
        -11    1    3    3    0    0  0.57715589472E+03  0.23677025911E+03 -0.36374396526E+03  0.72213485906E+03  0.00000000000E+00 0.  1.
         22    1    1    2    0    0 -0.11726531806E+04 -0.58384745595E+03 -0.16755487655E+04  0.21268420250E+04  0.00000000000E+00 0. -1.
<mgrwt>
<rscale>  0 0.27069883E+04</rscale>
<asrwt>0</asrwt>
<pdfrwt beam="1">  1        1 0.46952127E+00 0.27069883E+04</pdfrwt>
<pdfrwt beam="2">  1       -1 0.92348701E-01 0.27069883E+04</pdfrwt>
<totfact> 0.54493100E-01</totfact>
</mgrwt>
</event>
<event>
 6    1  0.1014650E-006  0.5863345E+03  0.7818608E-02  0.9934170E-01
          1   -1    0    0  501    0  0.00000000000E+00  0.00000000000E+00  0.20045385697E+04  0.20045385697E+04  0.00000000000E+00 0. -1.
         -1   -1    0    0    0  501 -0.00000000000E+00 -0.00000000000E+00 -0.42876225084E+02  0.42876225084E+02  0.00000000000E+00 0.  1.
         23    2    1    2    0    0 -0.22480711174E+02 -0.25105648596E+02  0.19967775736E+04  0.19987449349E+04  0.82005856303E+02 0.  0.
         13    1    3    3    0    0 -0.47813909353E+02 -0.35299844161E+02  0.15451167167E+04  0.15462593305E+04  0.00000000000E+00 0. -1.
        -13    1    3    3    0    0  0.25333198179E+02  0.10194195565E+02  0.45166085682E+03  0.45248560434E+03  0.00000000000E+00 0.  1.
         22    1    1    2    0    0  0.22480711174E+02  0.25105648596E+02 -0.35115228903E+02  0.48669859946E+02  0.00000000000E+00 0.  1.
<mgrwt>
<rscale>  0 0.58633454E+03</rscale>
<asrwt>0</asrwt>
<pdfrwt beam="1">  1        1 0.30839048E+00 0.58633454E+03</pdfrwt>
<pdfrwt beam="2">  1       -1 0.65963439E-02 0.58633454E+03</pdfrwt>
<totfact> 0.37359564E+02</totfact>
</mgrwt>
</event>
<event>
 6    1  0.1014650E-006  0.4043330E+04  0.7818608E-02  0.7995862E-01
         -1   -1    0    0    0  501 -0.00000000000E+00  0.00000000000E+00  0.32036826094E+04  0.32036826094E+04  0.00000000000E+00 0.  1.
          1   -1    0    0  501    0  0.00000000000E+00 -0.00000000000E+00 -0.12757599040E+04  0.12757599040E+04  0.00000000000E+00 0. -1.
         23    2    1    2    0    0 -0.95179098898E+03 -0.17456130472E+04  0.56518223474E+03  0.20690208516E+04  0.91352771520E+02 0.  0.
         13    1    3    3    0    0 -0.68298940883E+03 -0.12214379408E+04  0.43803544386E+03  0.14663765635E+04  0.00000000000E+00 0. -1.
        -13    1    3    3    0    0 -0.26880158015E+03 -0.52417510635E+03  0.12714679087E+03  0.60264428815E+03  0.00000000000E+00 0.  1.
         22    1    1    2    0    0  0.95179098898E+03  0.17456130472E+04  0.13627404707E+04  0.24104216618E+04  0.00000000000E+00 0. -1.
<mgrwt>
<rscale>  0 0.40433302E+04</rscale>
<asrwt>0</asrwt>
<pdfrwt beam="1">  1        1 0.19627076E+00 0.40433302E+04</pdfrwt>
<pdfrwt beam="2">  1       -1 0.49287425E+00 0.40433302E+04</pdfrwt>
<totfact> 0.12189879E-02</totfact>
</mgrwt>
</event>
<event>
 6    1  0.1014650E-006  0.7066890E+03  0.7818608E-02  0.9705861E-01
          1   -1    0    0  501    0  0.00000000000E+00  0.00000000000E+00  0.95140964251E+03  0.95140964251E+03  0.00000000000E+00 0. -1.
         -1   -1    0    0    0  501 -0.00000000000E+00 -0.00000000000E+00 -0.13122878027E+03  0.13122878027E+03  0.00000000000E+00 0.  1.
         23    2    1    2    0    0 -0.14028798379E+03  0.26935933180E+03  0.15803120610E+03  0.35416238670E+03  0.90675057347E+02 0.  0.
         11    1    3    3    0    0 -0.25674835341E+02  0.17647566250E+02 -0.72160534718E+01  0.31979762226E+02  0.00000000000E+00 0. -1.
        -11    1    3    3    0    0 -0.11461314845E+03  0.25171176555E+03  0.16524725957E+03  0.32218262447E+03  0.00000000000E+00 0.  1.
         22    1    1    2    0    0  0.14028798379E+03 -0.26935933180E+03  0.66214965614E+03  0.72847603608E+03  0.00000000000E+00 0. -1.
<mgrwt>
<rscale>  0 0.70668898E+03</rscale>
<asrwt>0</asrwt>
<pdfrwt beam="1">  1        1 0.14637071E+00 0.70668898E+03</pdfrwt>
<pdfrwt beam="2">  1       -1 0.20189044E-01 0.70668898E+03</pdfrwt>
<totfact> 0.33679248E+02</totfact>
</mgrwt>
</event>
<event>
 6    1  0.1014650E-006  0.8769166E+03  0.7818608E-02  0.9454906E-01
          2   -1    0    0  501    0  0.00000000000E+00  0.00000000000E+00  0.66856117780E+03  0.66856117780E+03  0.00000000000E+00 0. -1.
         -2   -1    0    0    0  501 -0.00000000000E+00 -0.00000000000E+00 -0.28755135747E+03  0.28755135747E+03  0.00000000000E+00 0.  1.
         23    2    1    2    0    0  0.18076441921E+03 -0.30162716944E+03 -0.85123844081E+02  0.37221586830E+03  0.87429166675E+02 0.  0.
         13    1    3    3    0    0  0.14406634673E+03 -0.28579465778E+03 -0.88621064531E+02  0.33209545579E+03  0.00000000000E+00 0.  1.
        -13    1    3    3    0    0  0.36698072482E+02 -0.15832511661E+02  0.34972204500E+01  0.40120412514E+02  0.00000000000E+00 0. -1.
         22    1    1    2    0    0 -0.18076441921E+03  0.30162716944E+03  0.46613366441E+03  0.58389666697E+03  0.00000000000E+00 0.  1.
<mgrwt>
<rscale>  0 0.87691658E+03</rscale>
<asrwt>0</asrwt>
<pdfrwt beam="1">  1        2 0.10285557E+00 0.87691658E+03</pdfrwt>
<pdfrwt beam="2">  1       -2 0.44238670E-01 0.87691658E+03</pdfrwt>
<totfact> 0.21116204E+02</totfact>
</mgrwt>
</event>
<event>
 6    1  0.1014650E-006  0.3872534E+04  0.7818608E-02  0.8030766E-01
         -1   -1    0    0    0  501 -0.00000000000E+00  0.00000000000E+00  0.33315423238E+04  0.33315423238E+04  0.00000000000E+00 0.  1.
          1   -1    0    0  501    0  0.00000000000E+00 -0.00000000000E+00 -0.11253436373E+04  0.11253436373E+04  0.00000000000E+00 0. -1.
         23    2    1    2    0    0  0.12537847889E+04 -0.14646136717E+04  0.91295339099E+03  0.21353449000E+04  0.95626584014E+02 0.  0.
         13    1    3    3    0    0  0.55559007784E+03 -0.72231486380E+03  0.42811960322E+03  0.10068294253E+04  0.00000000000E+00 0.  1.
        -13    1    3    3    0    0  0.69819471105E+03 -0.74229880789E+03  0.48483378777E+03  0.11285154746E+04  0.00000000000E+00 0. -1.
         22    1    1    2    0    0 -0.12537847889E+04  0.14646136717E+04  0.12932452956E+04  0.23215410612E+04  0.00000000000E+00 0. -1.
<mgrwt>
<rscale>  0 0.38725340E+04</rscale>
<asrwt>0</asrwt>
<pdfrwt beam="1">  1        1 0.17312979E+00 0.38725340E+04</pdfrwt>
<pdfrwt beam="2">  1       -1 0.51254497E+00 0.38725340E+04</pdfrwt>
<totfact> 0.11908850E-02</totfact>
</mgrwt>
</event>
<event>
 6    1  0.1014650E-006  0.1456034E+04  0.7818608E-02  0.8914228E-01
          2   -1    0    0  501    0  0.00000000000E+00  0.00000000000E+00  0.10317169917E+04  0.10317169917E+04  0.00000000000E+00 0. -1.
         -2   -1    0    0    0  501 -0.00000000000E+00 -0.00000000000E+00 -0.51371515490E+03  0.51371515490E+03  0.00000000000E+00 0.  1.
         23    2    1    2    0    0 -0.56443162375E+03  0.98069801658E+02 -0.21185080754E+03  0.61759292219E+03  0.91320912146E+02 0.  0.
         11    1    3    3    0    0 -0.18344182578E+03  0.73833253952E+02 -0.85875875363E+02  0.21558506164E+03  0.00000000000E+00 0.  1.
        -11    1    3    3    0    0 -0.38098979798E+03  0.24236547705E+02 -0.12597493218E+03  0.40200786055E+03  0.00000000000E+00 0. -1.
         22    1    1    2    0    0  0.56443162375E+03 -0.98069801658E+02  0.72985264437E+03  0.92783922443E+03  0.00000000000E+00 0. -1.
<mgrwt>
<rscale>  0 0.14560339E+04</rscale>
<asrwt>0</asrwt>
<pdfrwt beam="1">  1        2 0.15872569E+00 0.14560339E+04</pdfrwt>
<pdfrwt beam="2">  1       -2 0.79033101E-01 0.14560339E+04</pdfrwt>
<totfact> 0.33112070E+01</totfact>
</mgrwt>
</event>
<event>
 6    1  0.1014650E-006  0.1837626E+04  0.7818608E-02  0.8686542E-01
         -1   -1    0    0    0  501 -0.00000000000E+00  0.00000000000E+00  0.69275879193E+03  0.69275879193E+03  0.00000000000E+00 0.  1.
          1   -1    0    0  501    0  0.00000000000E+00 -0.00000000000E+00 -0.12186311833E+04  0.12186311833E+04  0.00000000000E+00 0. -1.
         23    2    1    2    0    0 -0.77701050431E+03 -0.12771245275E+02 -0.77035432287E+03  0.10967244958E+04  0.73826881272E+02 0.  0.
         13    1    3    3    0    0 -0.34875177312E+03 -0.37336502648E+02 -0.37292133382E+03  0.51194934798E+03  0.00000000000E+00 0.  1.
        -13    1    3    3    0    0 -0.42825873120E+03  0.24565257373E+02 -0.39743298905E+03  0.58477514781E+03  0.00000000000E+00 0. -1.
         22    1    1    2    0    0  0.77701050431E+03  0.12771245275E+02  0.24448193151E+03  0.81466547942E+03  0.00000000000E+00 0.  1.
<mgrwt>
<rscale>  0 0.18376261E+04</rscale>
<asrwt>0</asrwt>
<pdfrwt beam="1">  1        1 0.18748172E+00 0.18376261E+04</pdfrwt>
<pdfrwt beam="2">  1       -1 0.10657828E+00 0.18376261E+04</pdfrwt>
<totfact> 0.80092236E+00</totfact>
</mgrwt>
</event>
<event>
 6    1  0.1014650E-006  0.3282445E+04  0.7818608E-02  0.8167377E-01
          2   -1    0    0  501    0  0.00000000000E+00  0.00000000000E+00  0.24629759248E+04  0.24629759248E+04  0.00000000000E+00 0. -1.
         -2   -1    0    0    0  501 -0.00000000000E+00 -0.00000000000E+00 -0.10936406894E+04  0.10936406894E+04  0.00000000000E+00 0.  1.
         23    2    1    2    0    0  0.62843286900E+03  0.12059843729E+04  0.16782953946E+04  0.21620620049E+04  0.92252389053E+02 0.  0.
         13    1    3    3    0    0  0.46533985787E+03  0.97033598622E+03  0.13434727199E+04  0.17213401925E+04  0.00000000000E+00 0.  1.
        -13    1    3    3    0    0  0.16309301113E+03  0.23564838666E+03  0.33482267471E+03  0.44072181239E+03  0.00000000000E+00 0. -1.
         22    1    1    2    0    0 -0.62843286900E+03 -0.12059843729E+04 -0.30896015914E+03  0.13945546093E+04  0.00000000000E+00 0.  1.
<mgrwt>
<rscale>  0 0.32824446E+04</rscale>
<asrwt>0</asrwt>
<pdfrwt beam="1">  1        2 0.37891937E+00 0.32824446E+04</pdfrwt>
<pdfrwt beam="2">  1       -2 0.16825241E+00 0.32824446E+04</pdfrwt>
<totfact> 0.67086651E-01</totfact>
</mgrwt>
</event>
<event>
 6    1  0.1014650E-006  0.2467279E+04  0.7818608E-02  0.8414736E-01
          2   -1    0    0  501    0  0.00000000000E+00  0.00000000000E+00  0.24114545323E+04  0.24114545323E+04  0.00000000000E+00 0. -1.
         -2   -1    0    0    0  501 -0.00000000000E+00 -0.00000000000E+00 -0.63109893508E+03  0.63109893508E+03  0.00000000000E+00 0.  1.
         23    2    1    2    0    0 -0.69172279403E+03  0.44303784997E+03  0.20234338301E+04  0.21859030208E+04  0.95522725817E+02 0.  0.
         13    1    3    3    0    0 -0.51466037832E+03  0.37385989133E+03  0.15174250555E+04  0.16453647992E+04  0.00000000000E+00 0.  1.
        -13    1    3    3    0    0 -0.17706241571E+03  0.69177958634E+02  0.50600877463E+03  0.54053822161E+03  0.00000000000E+00 0. -1.
         22    1    1    2    0    0  0.69172279403E+03 -0.44303784997E+03 -0.24307823293E+03  0.85665044657E+03  0.00000000000E+00 0.  1.
<mgrwt>
<rscale>  0 0.24672790E+04</rscale>
<asrwt>0</asrwt>
<pdfrwt beam="1">  1        2 0.37099300E+00 0.24672790E+04</pdfrwt>
<pdfrwt beam="2">  1       -2 0.97092146E-01 0.24672790E+04</pdfrwt>
<totfact> 0.31006572E+00</totfact>
</mgrwt>
</event>
<event>
 6    1  0.1014650E-006  0.1944336E+04  0.7818608E-02  0.8633097E-01
         -2   -1    0    0    0  501 -0.00000000000E+00  0.00000000000E+00  0.22638200217E+04  0.22638200217E+04  0.00000000000E+00 0.  1.
          2   -1    0    0  501    0  0.00000000000E+00 -0.00000000000E+00 -0.41748470307E+03  0.41748470307E+03  0.00000000000E+00 0. -1.
         23    2    1    2    0    0  0.28224938571E+03  0.91297684795E+03  0.11558134304E+04  0.15023170578E+04  0.88658985944E+02 0.  0.
         13    1    3    3    0    0  0.19801462153E+03  0.73411820342E+03  0.95188741833E+03  0.12182893680E+04  0.00000000000E+00 0.  1.
        -13    1    3    3    0    0  0.84234764173E+02  0.17885864453E+03  0.20392601203E+03  0.28402768985E+03  0.00000000000E+00 0. -1.
         22    1    1    2    0    0 -0.28224938571E+03 -0.91297684795E+03  0.69052188824E+03  0.11789876669E+04  0.00000000000E+00 0.  1.
<mgrwt>
<rscale>  0 0.19443356E+04</rscale>
<asrwt>0</asrwt>
<pdfrwt beam="1">  1        2 0.64228417E-01 0.19443356E+04</pdfrwt>
<pdfrwt beam="2">  1       -2 0.34828000E+00 0.19443356E+04</pdfrwt>
<totfact> 0.11307757E+00</totfact>
</mgrwt>
</event>
<event>
 6    1  0.1014650E-006  0.2419766E+04  0.7818608E-02  0.8432140E-01
          1   -1    0    0  501    0  0.00000000000E+00  0.00000000000E+00  0.10869333488E+04  0.10869333488E+04  0.00000000000E+00 0. -1.
         -1   -1    0    0    0  501 -0.00000000000E+00 -0.00000000000E+00 -0.13467399604E+04  0.13467399604E+04  0.00000000000E+00 0.  1.
         23    2    1    2    0    0 -0.19895061744E+03 -0.88412126325E+03  0.67355745803E+03  0.11327427797E+04  0.90414596630E+02 0.  0.
         11    1    3    3    0    0 -0.10050019558E+03 -0.45279316721E+03  0.40083693426E+03  0.61301891443E+03  0.00000000000E+00 0. -1.
        -11    1    3    3    0    0 -0.98450421853E+02 -0.43132809604E+03  0.27272052376E+03  0.51972386522E+03  0.00000000000E+00 0.  1.
         22    1    1    2    0    0  0.19895061744E+03  0.88412126325E+03 -0.93336406959E+03  0.13009305296E+04  0.00000000000E+00 0.  1.
<mgrwt>
<rscale>  0 0.24197658E+04</rscale>
<asrwt>0</asrwt>
<pdfrwt beam="1">  1        1 0.16722052E+00 0.24197658E+04</pdfrwt>
<pdfrwt beam="2">  1       -1 0.20719076E+00 0.24197658E+04</pdfrwt>
<totfact> 0.15587917E+00</totfact>
</mgrwt>
</event>
<event>
 6    1  0.1210374E-006  0.2738624E+04  0.7818608E-02  0.8322580E-01
          1   -1    0    0  501    0  0.00000000000E+00  0.00000000000E+00  0.19607929954E+04  0.19607929954E+04  0.00000000000E+00 0. -1.
         -1   -1    0    0    0  501 -0.00000000000E+00 -0.00000000000E+00 -0.95625372690E+03  0.95625372690E+03  0.00000000000E+00 0.  1.
         23    2    1    2    0    0  0.15465944660E+03  0.12337014414E+04  0.11100199148E+04  0.16692226331E+04  0.90670814201E+02 0.  0.
         13    1    3    3    0    0  0.62389229391E+02  0.68056608533E+03  0.55733706557E+03  0.88186575912E+03  0.00000000000E+00 0. -1.
        -13    1    3    3    0    0  0.92270217205E+02  0.55313535608E+03  0.55268284925E+03  0.78735687396E+03  0.00000000000E+00 0.  1.
         22    1    1    2    0    0 -0.15465944660E+03 -0.12337014414E+04 -0.10548064628E+03  0.12478240892E+04  0.00000000000E+00 0.  1.
<mgrwt>
<rscale>  0 0.27386242E+04</rscale>
<asrwt>0</asrwt>
<pdfrwt beam="1">  1        1 0.30166046E+00 0.27386242E+04</pdfrwt>
<pdfrwt beam="2">  1       -1 0.14711596E+00 0.27386242E+04</pdfrwt>
<totfact> 0.10134748E+00</totfact>
</mgrwt>
</event>
<event>
 6    1  0.1014650E-006  0.2865787E+04  0.7818608E-02  0.8283130E-01
         -2   -1    0    0    0  501 -0.00000000000E+00  0.00000000000E+00  0.15329327734E+04  0.15329327734E+04  0.00000000000E+00 0.  1.
          2   -1    0    0  501    0  0.00000000000E+00 -0.00000000000E+00 -0.13393823641E+04  0.13393823641E+04  0.00000000000E+00 0. -1.
         23    2    1    2    0    0 -0.62141143148E+03  0.82652837423E+03 -0.89517266428E+03  0.13707761764E+04  0.91607347976E+02 0.  0.
         11    1    3    3    0    0 -0.14601551982E+03  0.24552497977E+03 -0.28295359329E+03  0.40207683802E+03  0.00000000000E+00 0. -1.
        -11    1    3    3    0    0 -0.47539591166E+03  0.58100339447E+03 -0.61221907100E+03  0.96869933834E+03  0.00000000000E+00 0.  1.
         22    1    1    2    0    0  0.62141143148E+03 -0.82652837423E+03  0.10887230736E+04  0.15015389610E+04  0.00000000000E+00 0.  1.
<mgrwt>
<rscale>  0 0.28657865E+04</rscale>
<asrwt>0</asrwt>
<pdfrwt beam="1">  1        2 0.20605882E+00 0.28657865E+04</pdfrwt>
<pdfrwt beam="2">  1       -2 0.23583581E+00 0.28657865E+04</pdfrwt>
<totfact> 0.10671011E+00</totfact>
</mgrwt>
</event>
<event>
 6    1  0.1014650E-006  0.3837149E+03  0.7818608E-02  0.1049569E+00
         -2   -1    0    0    0  501 -0.00000000000E+00  0.00000000000E+00  0.65342682801E+02  0.65342682801E+02  0.00000000000E+00 0.  1.
          2   -1    0    0  501    0  0.00000000000E+00 -0.00000000000E+00 -0.56332661429E+03  0.56332661429E+03  0.00000000000E+00 0. -1.
         23    2    1    2    0    0 -0.57870782453E+02  0.16864455954E+03 -0.31172881637E+03  0.37083023327E+03  0.92467248402E+02 0.  0.
         13    1    3    3    0    0 -0.35964787414E+02  0.17025358706E+03 -0.24446914680E+03  0.30007484663E+03  0.00000000000E+00 0. -1.
        -13    1    3    3    0    0 -0.21905995039E+02 -0.16090275222E+01 -0.67259669569E+02  0.70755386641E+02  0.00000000000E+00 0.  1.
         22    1    1    2    0    0  0.57870782453E+02 -0.16864455954E+03 -0.18625511512E+03  0.25783906382E+03  0.00000000000E+00 0.  1.
<mgrwt>
<rscale>  0 0.38371485E+03</rscale>
<asrwt>0</asrwt>
<pdfrwt beam="1">  1        2 0.86665632E-01 0.38371485E+03</pdfrwt>
<pdfrwt beam="2">  1       -2 0.10052721E-01 0.38371485E+03</pdfrwt>
<totfact> 0.35929321E+03</totfact>
</mgrwt>
</event>
<event>
 6    1  0.1014650E-006  0.3628113E+04  0.7818608E-02  0.8084082E-01
          2   -1    0    0  501    0  0.00000000000E+00  0.00000000000E+00  0.29278749850E+04  0.29278749850E+04  0.00000000000E+00 0. -1.
         -2   -1    0    0    0  501 -0.00000000000E+00 -0.00000000000E+00 -0.11239551209E+04  0.11239551209E+04  0.00000000000E+00 0.  1.
         23    2    1    2    0    0 -0.16096151278E+04 -0.72646555108E+03  0.44454253178E+03  0.18232611058E+04  0.89721461359E+02 0.  0.
         13    1    3    3    0    0 -0.38261464645E+03 -0.13180115179E+03  0.10745331823E+03  0.41870243239E+03  0.00000000000E+00 0.  1.
        -13    1    3    3    0    0 -0.12270004814E+04 -0.59466439929E+03  0.33708921355E+03  0.14045586734E+04  0.00000000000E+00 0. -1.
         22    1    1    2    0    0  0.16096151278E+04  0.72646555108E+03  0.13593773323E+04  0.22285690001E+04  0.00000000000E+00 0. -1.
<mgrwt>
<rscale>  0 0.36281125E+04</rscale>
<asrwt>0</asrwt>
<pdfrwt beam="1">  1        2 0.45044230E+00 0.36281125E+04</pdfrwt>
<pdfrwt beam="2">  1       -2 0.17291617E+00 0.36281125E+04</pdfrwt>
<totfact> 0.31893600E-01</totfact>
</mgrwt>
</event>
<event>
 6    1  0.1014650E-006  0.2637943E+04  0.7818608E-02  0.8355426E-01
          1   -1    0    0  501    0  0.00000000000E+00  0.00000000000E+00  0.12495718101E+04  0.12495718101E+04  0.00000000000E+00 0. -1.
         -1   -1    0    0    0  501 -0.00000000000E+00 -0.00000000000E+00 -0.13922258623E+04  0.13922258623E+04  0.00000000000E+00 0.  1.
         23    2    1    2    0    0 -0.11824134339E+04 -0.49928080642E+03  0.22604580642E+03  0.13063867101E+04  0.90369671597E+02 0.  0.
         11    1    3    3    0    0 -0.59597394077E+03 -0.25968007581E+03  0.69222489358E+02  0.65376634425E+03  0.00000000000E+00 0.  1.
        -11    1    3    3    0    0 -0.58643949310E+03 -0.23960073061E+03  0.15682331706E+03  0.65262036587E+03  0.00000000000E+00 0. -1.
         22    1    1    2    0    0  0.11824134339E+04  0.49928080642E+03 -0.36869985867E+03  0.13354109622E+04  0.00000000000E+00 0. -1.
<mgrwt>
<rscale>  0 0.26379433E+04</rscale>
<asrwt>0</asrwt>
<pdfrwt beam="1">  1        1 0.19224182E+00 0.26379433E+04</pdfrwt>
<pdfrwt beam="2">  1       -1 0.21418860E+00 0.26379433E+04</pdfrwt>
<totfact> 0.10395874E+00</totfact>
</mgrwt>
</event>
<event>
 6    1  0.1014650E-006  0.1712934E+04  0.7818608E-02  0.8754022E-01
         -1   -1    0    0    0  501 -0.00000000000E+00  0.00000000000E+00  0.10687308647E+04  0.10687308647E+04  0.00000000000E+00 0.  1.
          1   -1    0    0  501    0  0.00000000000E+00 -0.00000000000E+00 -0.68636177806E+03  0.68636177806E+03  0.00000000000E+00 0. -1.
         23    2    1    2    0    0 -0.40790123256E+03 -0.46144700019E+03 -0.41449432778E+03  0.74796402599E+03  0.91257256755E+02 0.  0.
         11    1    3    3    0    0 -0.22878453659E+03 -0.32396222134E+03 -0.27342210779E+03  0.48171935198E+03  0.00000000000E+00 0.  1.
        -11    1    3    3    0    0 -0.17911669597E+03 -0.13748477884E+03 -0.14107221999E+03  0.26624467401E+03  0.00000000000E+00 0. -1.
         22    1    1    2    0    0  0.40790123256E+03  0.46144700019E+03  0.79686341446E+03  0.10071286168E+04  0.00000000000E+00 0.  1.
<mgrwt>
<rscale>  0 0.17129343E+04</rscale>
<asrwt>0</asrwt>
<pdfrwt beam="1">  1        1 0.10559412E+00 0.17129343E+04</pdfrwt>
<pdfrwt beam="2">  1       -1 0.16442013E+00 0.17129343E+04</pdfrwt>
<totfact> 0.72222366E+00</totfact>
</mgrwt>
</event>
<event>
 6    1  0.1014650E-006  0.2219549E+04  0.7818608E-02  0.8510335E-01
          2   -1    0    0  501    0  0.00000000000E+00  0.00000000000E+00  0.15429097970E+04  0.15429097970E+04  0.00000000000E+00 0. -1.
         -2   -1    0    0    0  501 -0.00000000000E+00 -0.00000000000E+00 -0.79823136579E+03  0.79823136579E+03  0.00000000000E+00 0.  1.
         23    2    1    2    0    0  0.84428393768E+03  0.53723800687E+03  0.87425231798E+03  0.13320676097E+04  0.92989019869E+02 0.  0.
         11    1    3    3    0    0  0.65764508787E+03  0.42213188905E+03  0.73151763982E+03  0.10704253597E+04  0.00000000000E+00 0. -1.
        -11    1    3    3    0    0  0.18663884981E+03  0.11510611782E+03  0.14273467816E+03  0.26164224996E+03  0.00000000000E+00 0.  1.
         22    1    1    2    0    0 -0.84428393768E+03 -0.53723800687E+03 -0.12957388678E+03  0.10090735531E+04  0.00000000000E+00 0. -1.
<mgrwt>
<rscale>  0 0.22195486E+04</rscale>
<asrwt>0</asrwt>
<pdfrwt beam="1">  1        2 0.23737074E+00 0.22195486E+04</pdfrwt>
<pdfrwt beam="2">  1       -2 0.12280483E+00 0.22195486E+04</pdfrwt>
<totfact> 0.54928020E+00</totfact>
</mgrwt>
</event>
<event>
 6    1  0.1014650E-006  0.1966587E+04  0.7818608E-02  0.8622404E-01
         -2   -1    0    0    0  501 -0.00000000000E+00  0.00000000000E+00  0.11004936639E+04  0.11004936639E+04  0.00000000000E+00 0.  1.
          2   -1    0    0  501    0  0.00000000000E+00 -0.00000000000E+00 -0.87857448738E+03  0.87857448738E+03  0.00000000000E+00 0. -1.
         23    2    1    2    0    0  0.10728791023E+03  0.90289970865E+03  0.48260772709E+03  0.10331838560E+04  0.88431230763E+02 0.  0.
         11    1    3    3    0    0  0.11480628696E+03  0.66416368411E+03  0.33871529756E+03  0.75433542646E+03  0.00000000000E+00 0.  1.
        -11    1    3    3    0    0 -0.75183767284E+01  0.23873602454E+03  0.14389242954E+03  0.27884842958E+03  0.00000000000E+00 0. -1.
         22    1    1    2    0    0 -0.10728791023E+03 -0.90289970865E+03 -0.26068855059E+03  0.94588429523E+03  0.00000000000E+00 0. -1.
<mgrwt>
<rscale>  0 0.19665865E+04</rscale>
<asrwt>0</asrwt>
<pdfrwt beam="1">  1        2 0.13516531E+00 0.19665865E+04</pdfrwt>
<pdfrwt beam="2">  1       -2 0.16930672E+00 0.19665865E+04</pdfrwt>
<totfact> 0.60876872E+00</totfact>
</mgrwt>
</event>
<event>
 6    1  0.1014650E-006  0.3037684E+04  0.7818608E-02  0.8233051E-01
         -2   -1    0    0    0  501 -0.00000000000E+00  0.00000000000E+00  0.14972627251E+04  0.14972627251E+04  0.00000000000E+00 0.  1.
          2   -1    0    0  501    0  0.00000000000E+00 -0.00000000000E+00 -0.15407318384E+04  0.15407318384E+04  0.00000000000E+00 0. -1.
         23    2    1    2    0    0 -0.11983007942E+04  0.89448923737E+03  0.23670073432E+03  0.15166363109E+04  0.90125871679E+02 0.  0.
         13    1    3    3    0    0 -0.38303421289E+03  0.23443322599E+03  0.69749363612E+02  0.45446575164E+03  0.00000000000E+00 0.  1.
        -13    1    3    3    0    0 -0.81526658131E+03  0.66005601138E+03  0.16695137071E+03  0.10621705592E+04  0.00000000000E+00 0. -1.
         22    1    1    2    0    0  0.11983007942E+04 -0.89448923737E+03 -0.28016984760E+03  0.15213582526E+04  0.00000000000E+00 0.  1.
<mgrwt>
<rscale>  0 0.30376836E+04</rscale>
<asrwt>0</asrwt>
<pdfrwt beam="1">  1        2 0.23703567E+00 0.30376836E+04</pdfrwt>
<pdfrwt beam="2">  1       -2 0.23034811E+00 0.30376836E+04</pdfrwt>
<totfact> 0.87410686E-01</totfact>
</mgrwt>
</event>
<event>
 6    1  0.1014650E-006  0.2857143E+04  0.7818608E-02  0.8285744E-01
         -2   -1    0    0    0  501 -0.00000000000E+00  0.00000000000E+00  0.63002171067E+03  0.63002171067E+03  0.00000000000E+00 0.  1.
          2   -1    0    0  501    0  0.00000000000E+00 -0.00000000000E+00 -0.32392786768E+04  0.32392786768E+04  0.00000000000E+00 0. -1.
         23    2    1    2    0    0 -0.14031683183E+04 -0.16348954100E+03 -0.15780755329E+04  0.21203163087E+04  0.99038891339E+02 0.  0.
         13    1    3    3    0    0 -0.41682695502E+03 -0.72506009569E+01 -0.43692372578E+03  0.60390365440E+03  0.00000000000E+00 0.  1.
        -13    1    3    3    0    0 -0.98634136328E+03 -0.15623894004E+03 -0.11411518071E+04  0.15164126543E+04  0.00000000000E+00 0. -1.
         22    1    1    2    0    0  0.14031683183E+04  0.16348954100E+03 -0.10311814333E+04  0.17489840788E+04  0.00000000000E+00 0. -1.
<mgrwt>
<rscale>  0 0.28571426E+04</rscale>
<asrwt>0</asrwt>
<pdfrwt beam="1">  1        2 0.49835055E+00 0.28571426E+04</pdfrwt>
<pdfrwt beam="2">  1       -2 0.96926419E-01 0.28571426E+04</pdfrwt>
<totfact> 0.94066060E-01</totfact>
</mgrwt>
</event>
<event>
 6    1  0.1014650E-006  0.1723072E+04  0.7818608E-02  0.8748314E-01
         -1   -1    0    0    0  501 -0.00000000000E+00  0.00000000000E+00  0.12755709309E+04  0.12755709309E+04  0.00000000000E+00 0.  1.
          1   -1    0    0  501    0  0.00000000000E+00 -0.00000000000E+00 -0.58189158290E+03  0.58189158290E+03  0.00000000000E+00 0. -1.
         23    2    1    2    0    0 -0.83543426362E+03 -0.12127075441E+03  0.51972234050E+03  0.99553557657E+03  0.91229207471E+02 0.  0.
         13    1    3    3    0    0 -0.37496465921E+03 -0.27265619502E+02  0.18839986804E+03  0.42051922660E+03  0.00000000000E+00 0.  1.
        -13    1    3    3    0    0 -0.46046960441E+03 -0.94005134909E+02  0.33132247247E+03  0.57501634998E+03  0.00000000000E+00 0. -1.
         22    1    1    2    0    0  0.83543426362E+03  0.12127075441E+03  0.17395700753E+03  0.86192693726E+03  0.00000000000E+00 0.  1.
<mgrwt>
<rscale>  0 0.17230717E+04</rscale>
<asrwt>0</asrwt>
<pdfrwt beam="1">  1        1 0.89521782E-01 0.17230717E+04</pdfrwt>
<pdfrwt beam="2">  1       -1 0.19624168E+00 0.17230717E+04</pdfrwt>
<totfact> 0.54320909E+00</totfact>
</mgrwt>
</event>
<event>
 6    1  0.1014650E-006  0.5284591E+04  0.7818608E-02  0.7786046E-01
          1   -1    0    0  501    0  0.00000000000E+00  0.00000000000E+00  0.19416200920E+04  0.19416200920E+04  0.00000000000E+00 0. -1.
         -1   -1    0    0    0  501 -0.00000000000E+00 -0.00000000000E+00 -0.35958243879E+04  0.35958243879E+04  0.00000000000E+00 0.  1.
         23    2    1    2    0    0 -0.21778948717E+04  0.69175686714E+03  0.56110314919E+03  0.23547819606E+04  0.91693523412E+02 0.  0.
         13    1    3    3    0    0 -0.12710611872E+04  0.41569298977E+03  0.28327404990E+03  0.13669825861E+04  0.00000000000E+00 0. -1.
        -13    1    3    3    0    0 -0.90683368452E+03  0.27606387737E+03  0.27782909929E+03  0.98779937446E+03  0.00000000000E+00 0.  1.
         22    1    1    2    0    0  0.21778948717E+04 -0.69175686714E+03 -0.22153074451E+04  0.31826625193E+04  0.00000000000E+00 0.  1.
<mgrwt>
<rscale>  0 0.52845908E+04</rscale>
<asrwt>0</asrwt>
<pdfrwt beam="1">  1        1 0.29871079E+00 0.52845908E+04</pdfrwt>
<pdfrwt beam="2">  1       -1 0.55320374E+00 0.52845908E+04</pdfrwt>
<totfact> 0.16849459E-03</totfact>
</mgrwt>
</event>
<event>
 6    1  0.1014650E-006  0.8198237E+03  0.7818608E-02  0.9531758E-01
          1   -1    0    0  501    0  0.00000000000E+00  0.00000000000E+00  0.37065164518E+03  0.37065164518E+03  0.00000000000E+00 0. -1.
         -1   -1    0    0    0  501 -0.00000000000E+00 -0.00000000000E+00 -0.45333063159E+03  0.45333063159E+03  0.00000000000E+00 0.  1.
         23    2    1    2    0    0  0.30398227529E+03  0.86416243735E+02  0.21226013698E+03  0.39170681208E+03  0.92232694887E+02 0.  0.
         11    1    3    3    0    0  0.98254881164E+02  0.73995140071E+02  0.74501614708E+02  0.14380470445E+03  0.00000000000E+00 0. -1.
        -11    1    3    3    0    0  0.20572739413E+03  0.12421103664E+02  0.13775852227E+03  0.24790210763E+03  0.00000000000E+00 0.  1.
         22    1    1    2    0    0 -0.30398227529E+03 -0.86416243735E+02 -0.29493912339E+03  0.43227546469E+03  0.00000000000E+00 0.  1.
<mgrwt>
<rscale>  0 0.81982375E+03</rscale>
<asrwt>0</asrwt>
<pdfrwt beam="1">  1        1 0.57023330E-01 0.81982375E+03</pdfrwt>
<pdfrwt beam="2">  1       -1 0.69743174E-01 0.81982375E+03</pdfrwt>
<totfact> 0.13964147E+02</totfact>
</mgrwt>
</event>
<event>
 6    1  0.1014650E-006  0.2744030E+04  0.7818608E-02  0.8320859E-01
          1   -1    0    0  501    0  0.00000000000E+00  0.00000000000E+00  0.83232382795E+03  0.83232382795E+03  0.00000000000E+00 0. -1.
         -1   -1    0    0    0  501 -0.00000000000E+00 -0.00000000000E+00 -0.22616499140E+04  0.22616499140E+04  0.00000000000E+00 0.  1.
         23    2    1    2    0    0  0.84963207578E+03 -0.25150280930E+03 -0.18943522073E+04  0.20932851686E+04  0.90245136192E+02 0.  0.
         13    1    3    3    0    0  0.48642160144E+03 -0.14892139106E+03 -0.98178541638E+03  0.11057514001E+04  0.00000000000E+00 0.  1.
        -13    1    3    3    0    0  0.36321047434E+03 -0.10258141823E+03 -0.91256679092E+03  0.98753376850E+03  0.00000000000E+00 0. -1.
         22    1    1    2    0    0 -0.84963207578E+03  0.25150280930E+03  0.46502612127E+03  0.10006885733E+04  0.00000000000E+00 0. -1.
<mgrwt>
<rscale>  0 0.27440300E+04</rscale>
<asrwt>0</asrwt>
<pdfrwt beam="1">  1        1 0.12804982E+00 0.27440300E+04</pdfrwt>
<pdfrwt beam="2">  1       -1 0.34794614E+00 0.27440300E+04</pdfrwt>
<totfact> 0.28912457E-01</totfact>
</mgrwt>
</event>
<event>
 6    1  0.1014650E-006  0.3410877E+04  0.7818608E-02  0.8135242E-01
         -3   -1    0    0    0  501 -0.00000000000E+00  0.00000000000E+00  0.25281731477E+04  0.25281731477E+04  0.00000000000E+00 0.  1.
          3   -1    0    0  501    0  0.00000000000E+00 -0.00000000000E+00 -0.11504437525E+04  0.11504437525E+04  0.00000000000E+00 0. -1.
         23    2    1    2    0    0 -0.43358538355E+03  0.31099917420E+03 -0.10563072620E+04  0.11867799835E+04  0.89134315238E+02 0.  0.
         13    1    3    3    0    0 -0.31650088729E+03  0.26806274102E+03 -0.84791243568E+03  0.94392051750E+03  0.00000000000E+00 0. -1.
        -13    1    3    3    0    0 -0.11708449626E+03  0.42936433180E+02 -0.20839482636E+03  0.24285946597E+03  0.00000000000E+00 0.  1.
         22    1    1    2    0    0  0.43358538355E+03 -0.31099917420E+03  0.24340366572E+04  0.24918369168E+04  0.00000000000E+00 0.  1.
<mgrwt>
<rscale>  0 0.34108773E+04</rscale>
<asrwt>0</asrwt>
<pdfrwt beam="1">  1        3 0.17699135E+00 0.34108773E+04</pdfrwt>
<pdfrwt beam="2">  1       -3 0.38894971E+00 0.34108773E+04</pdfrwt>
<totfact> 0.54204694E-03</totfact>
</mgrwt>
</event>
<event>
 6    1  0.1014650E-006  0.1204508E+04  0.7818608E-02  0.9108920E-01
         -2   -1    0    0    0  501 -0.00000000000E+00  0.00000000000E+00  0.22426528007E+03  0.22426528007E+03  0.00000000000E+00 0.  1.
          2   -1    0    0  501    0  0.00000000000E+00 -0.00000000000E+00 -0.16173260320E+04  0.16173260320E+04  0.00000000000E+00 0. -1.
         23    2    1    2    0    0 -0.13602059252E+02 -0.56152247962E+03 -0.38439156788E+03  0.68707581457E+03  0.93935011472E+02 0.  0.
         13    1    3    3    0    0  0.13025506566E+02 -0.44980197041E+03 -0.26896774254E+03  0.52424719640E+03  0.00000000000E+00 0.  1.
        -13    1    3    3    0    0 -0.26627565818E+02 -0.11172050920E+03 -0.11542382535E+03  0.16282861817E+03  0.00000000000E+00 0. -1.
         22    1    1    2    0    0  0.13602059252E+02  0.56152247962E+03 -0.10086691840E+04  0.11545154975E+04  0.00000000000E+00 0. -1.
<mgrwt>
<rscale>  0 0.12045083E+04</rscale>
<asrwt>0</asrwt>
<pdfrwt beam="1">  1        2 0.24881939E+00 0.12045083E+04</pdfrwt>
<pdfrwt beam="2">  1       -2 0.34502351E-01 0.12045083E+04</pdfrwt>
<totfact> 0.84672503E+01</totfact>
</mgrwt>
</event>
<event>
 6    1  0.1014650E-006  0.1049084E+04  0.7818608E-02  0.9256290E-01
          1   -1    0    0  501    0  0.00000000000E+00  0.00000000000E+00  0.78619518420E+03  0.78619518420E+03  0.00000000000E+00 0. -1.
         -1   -1    0    0    0  501 -0.00000000000E+00 -0.00000000000E+00 -0.34996954129E+03  0.34996954129E+03  0.00000000000E+00 0.  1.
         23    2    1    2    0    0  0.21178299564E+03  0.17944987032E+03 -0.25644893829E+03  0.38993931139E+03  0.96084938535E+02 0.  0.
         13    1    3    3    0    0  0.17551950400E+03  0.11452991729E+03 -0.14093769376E+03  0.25256213446E+03  0.00000000000E+00 0.  1.
        -13    1    3    3    0    0  0.36263491638E+02  0.64919953032E+02 -0.11551124454E+03  0.13737717693E+03  0.00000000000E+00 0. -1.
         22    1    1    2    0    0 -0.21178299564E+03 -0.17944987032E+03  0.69267458121E+03  0.74622541410E+03  0.00000000000E+00 0. -1.
<mgrwt>
<rscale>  0 0.10490841E+04</rscale>
<asrwt>0</asrwt>
<pdfrwt beam="1">  1        1 0.12095310E+00 0.10490841E+04</pdfrwt>
<pdfrwt beam="2">  1       -1 0.53841468E-01 0.10490841E+04</pdfrwt>
<totfact> 0.79124440E+01</totfact>
</mgrwt>
</event>
<event>
 6    1  0.1014650E-006  0.1678939E+04  0.7818608E-02  0.8773468E-01
         -1   -1    0    0    0  501 -0.00000000000E+00  0.00000000000E+00  0.38953043086E+03  0.38953043086E+03  0.00000000000E+00 0.  1.
          1   -1    0    0  501    0  0.00000000000E+00 -0.00000000000E+00 -0.18091239539E+04  0.18091239539E+04  0.00000000000E+00 0. -1.
         23    2    1    2    0    0  0.18932036090E+03 -0.30684049790E+03  0.27731769448E+03  0.46386305138E+03  0.90942490375E+02 0.  0.
         11    1    3    3    0    0  0.99948118129E+02 -0.15303139186E+03  0.84012104293E+02  0.20116228990E+03  0.00000000000E+00 0. -1.
        -11    1    3    3    0    0  0.89372242775E+02 -0.15380910604E+03  0.19330559019E+03  0.26270076147E+03  0.00000000000E+00 0.  1.
         22    1    1    2    0    0 -0.18932036090E+03  0.30684049790E+03 -0.16969112176E+04  0.17347913334E+04  0.00000000000E+00 0. -1.
<mgrwt>
<rscale>  0 0.16789388E+04</rscale>
<asrwt>0</asrwt>
<pdfrwt beam="1">  1        1 0.27832677E+00 0.16789388E+04</pdfrwt>
<pdfrwt beam="2">  1       -1 0.59927757E-01 0.16789388E+04</pdfrwt>
<totfact> 0.10809891E+01</totfact>
</mgrwt>
</event>
<event>
 6    1  0.1014650E-006  0.2262580E+04  0.7818608E-02  0.8492823E-01
          1   -1    0    0  501    0  0.00000000000E+00  0.00000000000E+00  0.12824356050E+04  0.12824356050E+04  0.00000000000E+00 0. -1.
         -1   -1    0    0    0  501 -0.00000000000E+00 -0.00000000000E+00 -0.99795807879E+03  0.99795807879E+03  0.00000000000E+00 0.  1.
         23    2    1    2    0    0 -0.40355386688E+03  0.58812583119E+03  0.10251666540E+04  0.12521096273E+04  0.89800521024E+02 0.  0.
         13    1    3    3    0    0 -0.26928256082E+03  0.32749278605E+03  0.56302489681E+03  0.70481320710E+03  0.00000000000E+00 0.  1.
        -13    1    3    3    0    0 -0.13427130606E+03  0.26063304514E+03  0.46214175715E+03  0.54729642019E+03  0.00000000000E+00 0. -1.
         22    1    1    2    0    0  0.40355386688E+03 -0.58812583119E+03 -0.74068912778E+03  0.10282840565E+04  0.00000000000E+00 0.  1.
<mgrwt>
<rscale>  0 0.22625799E+04</rscale>
<asrwt>0</asrwt>
<pdfrwt beam="1">  1        1 0.19729778E+00 0.22625799E+04</pdfrwt>
<pdfrwt beam="2">  1       -1 0.15353201E+00 0.22625799E+04</pdfrwt>
<totfact> 0.27659549E+00</totfact>
</mgrwt>
</event>
<event>
 6    1  0.1014650E-006  0.1904321E+04  0.7818608E-02  0.8652708E-01
         -1   -1    0    0    0  501 -0.00000000000E+00  0.00000000000E+00  0.33300287290E+03  0.33300287290E+03  0.00000000000E+00 0.  1.
          1   -1    0    0  501    0  0.00000000000E+00 -0.00000000000E+00 -0.27225289747E+04  0.27225289747E+04  0.00000000000E+00 0. -1.
         23    2    1    2    0    0  0.46766277362E+03 -0.54357191390E+03 -0.21971606649E+04  0.23131146086E+04  0.93836612854E+02 0.  0.
         11    1    3    3    0    0  0.37973434523E+03 -0.41849246016E+03 -0.18338803544E+04  0.19189714084E+04  0.00000000000E+00 0. -1.
        -11    1    3    3    0    0  0.87928428391E+02 -0.12507945374E+03 -0.36328031050E+03  0.39414320020E+03  0.00000000000E+00 0.  1.
         22    1    1    2    0    0 -0.46766277362E+03  0.54357191390E+03 -0.19236543691E+03  0.74241723897E+03  0.00000000000E+00 0.  1.
<mgrwt>
<rscale>  0 0.19043214E+04</rscale>
<asrwt>0</asrwt>
<pdfrwt beam="1">  1        1 0.41885060E+00 0.19043214E+04</pdfrwt>
<pdfrwt beam="2">  1       -1 0.51231212E-01 0.19043214E+04</pdfrwt>
<totfact> 0.33947702E+00</totfact>
</mgrwt>
</event>
<event>
 6    1  0.1014650E-006  0.1026923E+04  0.7818608E-02  0.9279499E-01
          1   -1    0    0  501    0  0.00000000000E+00  0.00000000000E+00  0.29564012332E+03  0.29564012332E+03  0.00000000000E+00 0. -1.
         -1   -1    0    0    0  501 -0.00000000000E+00 -0.00000000000E+00 -0.89176890777E+03  0.89176890777E+03  0.00000000000E+00 0.  1.
         23    2    1    2    0    0 -0.34325743291E+03  0.36353235569E+03 -0.18912734981E+03  0.54271405927E+03  0.93744102731E+02 0.  0.
         11    1    3    3    0    0 -0.24472794556E+03  0.31488502390E+03 -0.14722543384E+03  0.42511136657E+03  0.00000000000E+00 0. -1.
        -11    1    3    3    0    0 -0.98529487355E+02  0.48647331789E+02 -0.41901915970E+02  0.11760269270E+03  0.00000000000E+00 0.  1.
         22    1    1    2    0    0  0.34325743291E+03 -0.36353235569E+03 -0.40700143464E+03  0.64469497181E+03  0.00000000000E+00 0.  1.
<mgrwt>
<rscale>  0 0.10269229E+04</rscale>
<asrwt>0</asrwt>
<pdfrwt beam="1">  1        1 0.45483097E-01 0.10269229E+04</pdfrwt>
<pdfrwt beam="2">  1       -1 0.13719521E+00 0.10269229E+04</pdfrwt>
<totfact> 0.39540137E+01</totfact>
</mgrwt>
</event>
<event>
 6    1  0.1014650E-006  0.2535104E+04  0.7818608E-02  0.8390585E-01
         -2   -1    0    0    0  501 -0.00000000000E+00  0.00000000000E+00  0.16224483560E+04  0.16224483560E+04  0.00000000000E+00 0.  1.
          2   -1    0    0  501    0  0.00000000000E+00 -0.00000000000E+00 -0.99028625808E+03  0.99028625808E+03  0.00000000000E+00 0. -1.
         23    2    1    2    0    0 -0.31844527469E+03  0.17219421651E+03 -0.93369981310E+03  0.10055688586E+04  0.91187429303E+02 0.  0.
         13    1    3    3    0    0 -0.14318230935E+03  0.12670596334E+03 -0.44158385748E+03  0.48119837702E+03  0.00000000000E+00 0.  1.
        -13    1    3    3    0    0 -0.17526296534E+03  0.45488253170E+02 -0.49211595562E+03  0.52437048160E+03  0.00000000000E+00 0. -1.
         22    1    1    2    0    0  0.31844527469E+03 -0.17219421651E+03  0.15658619110E+04  0.16071657555E+04  0.00000000000E+00 0.  1.
<mgrwt>
<rscale>  0 0.25351042E+04</rscale>
<asrwt>0</asrwt>
<pdfrwt beam="1">  1        2 0.15235173E+00 0.25351042E+04</pdfrwt>
<pdfrwt beam="2">  1       -2 0.24960744E+00 0.25351042E+04</pdfrwt>
<totfact> 0.14683844E+00</totfact>
</mgrwt>
</event>
<event>
 6    1  0.1014650E-006  0.2448421E+04  0.7818608E-02  0.8421595E-01
         -1   -1    0    0    0  501 -0.00000000000E+00  0.00000000000E+00  0.66652011727E+03  0.66652011727E+03  0.00000000000E+00 0.  1.
          1   -1    0    0  501    0  0.00000000000E+00 -0.00000000000E+00 -0.22485304156E+04  0.22485304156E+04  0.00000000000E+00 0. -1.
         23    2    1    2    0    0 -0.80644569870E+03 -0.43588203418E+03  0.17083504754E+03  0.93696696051E+03  0.91513162752E+02 0.  0.
         13    1    3    3    0    0 -0.53491403312E+03 -0.24580619520E+03  0.87019636341E+02  0.59508497338E+03  0.00000000000E+00 0.  1.
        -13    1    3    3    0    0 -0.27153166558E+03 -0.19007583898E+03  0.83815411201E+02  0.34188198714E+03  0.00000000000E+00 0. -1.
         22    1    1    2    0    0  0.80644569870E+03  0.43588203418E+03 -0.17528453459E+04  0.19780835724E+04  0.00000000000E+00 0. -1.
<mgrwt>
<rscale>  0 0.24484205E+04</rscale>
<asrwt>0</asrwt>
<pdfrwt beam="1">  1        1 0.34592775E+00 0.24484205E+04</pdfrwt>
<pdfrwt beam="2">  1       -1 0.10254156E+00 0.24484205E+04</pdfrwt>
<totfact> 0.16198488E+00</totfact>
</mgrwt>
</event>
<event>
 6    1  0.1014650E-006  0.1207148E+04  0.7818608E-02  0.9106622E-01
          2   -1    0    0  501    0  0.00000000000E+00  0.00000000000E+00  0.62386016335E+03  0.62386016335E+03  0.00000000000E+00 0. -1.
         -2   -1    0    0    0  501 -0.00000000000E+00 -0.00000000000E+00 -0.58394791393E+03  0.58394791393E+03  0.00000000000E+00 0.  1.
         23    2    1    2    0    0  0.21478937151E+01 -0.58868506840E+03 -0.96839723511E+02  0.60344409315E+03  0.90620738847E+02 0.  0.
         13    1    3    3    0    0  0.26621091706E+02 -0.17782942562E+03  0.33467784642E+01  0.17984211983E+03  0.00000000000E+00 0. -1.
        -13    1    3    3    0    0 -0.24473197991E+02 -0.41085564278E+03 -0.10018650197E+03  0.42360197332E+03  0.00000000000E+00 0.  1.
         22    1    1    2    0    0 -0.21478937151E+01  0.58868506840E+03  0.13675197293E+03  0.60436398412E+03  0.00000000000E+00 0. -1.
<mgrwt>
<rscale>  0 0.12071484E+04</rscale>
<asrwt>0</asrwt>
<pdfrwt beam="1">  1        2 0.95978487E-01 0.12071484E+04</pdfrwt>
<pdfrwt beam="2">  1       -2 0.89838140E-01 0.12071484E+04</pdfrwt>
<totfact> 0.49522880E+01</totfact>
</mgrwt>
</event>
<event>
 6    1  0.1014650E-006  0.1025892E+04  0.7818608E-02  0.9280594E-01
         -1   -1    0    0    0  501 -0.00000000000E+00  0.00000000000E+00  0.12231461225E+04  0.12231461225E+04  0.00000000000E+00 0.  1.
          1   -1    0    0  501    0  0.00000000000E+00 -0.00000000000E+00 -0.21511203235E+03  0.21511203235E+03  0.00000000000E+00 0. -1.
         23    2    1    2    0    0  0.14309694636E+03  0.11044754616E+03  0.11759077846E+04  0.11915660921E+04  0.66296586999E+02 0.  0.
         13    1    3    3    0    0  0.45523960255E+02  0.69525667141E+02  0.63422032546E+03  0.63964182991E+03  0.00000000000E+00 0. -1.
        -13    1    3    3    0    0  0.97572986100E+02  0.40921879015E+02  0.54168745913E+03  0.55192426218E+03  0.00000000000E+00 0.  1.
         22    1    1    2    0    0 -0.14309694636E+03 -0.11044754616E+03 -0.16787369448E+03  0.24669206272E+03  0.00000000000E+00 0. -1.
<mgrwt>
<rscale>  0 0.10258917E+04</rscale>
<asrwt>0</asrwt>
<pdfrwt beam="1">  1        1 0.33094160E-01 0.10258917E+04</pdfrwt>
<pdfrwt beam="2">  1       -1 0.18817632E+00 0.10258917E+04</pdfrwt>
<totfact> 0.24674097E+01</totfact>
</mgrwt>
</event>
<event>
 6    1  0.1014650E-006  0.1432113E+04  0.7818608E-02  0.8930896E-01
          2   -1    0    0  501    0  0.00000000000E+00  0.00000000000E+00  0.27274024403E+04  0.27274024403E+04  0.00000000000E+00 0. -1.
         -2   -1    0    0    0  501 -0.00000000000E+00 -0.00000000000E+00 -0.18799459439E+03  0.18799459439E+03  0.00000000000E+00 0.  1.
         23    2    1    2    0    0  0.10727845940E+03  0.65155432726E+02  0.27039946886E+04  0.27084121872E+04  0.90307261964E+02 0.  0.
         11    1    3    3    0    0  0.10441029708E+03  0.19549420204E+02  0.16398883674E+04  0.16433251496E+04  0.00000000000E+00 0. -1.
        -11    1    3    3    0    0  0.28681623207E+01  0.45606012522E+02  0.10641063212E+04  0.10650870376E+04  0.00000000000E+00 0.  1.
         22    1    1    2    0    0 -0.10727845940E+03 -0.65155432726E+02 -0.16458684274E+03  0.20698484744E+03  0.00000000000E+00 0.  1.
<mgrwt>
<rscale>  0 0.14321130E+04</rscale>
<asrwt>0</asrwt>
<pdfrwt beam="1">  1        2 0.41960035E+00 0.14321130E+04</pdfrwt>
<pdfrwt beam="2">  1       -2 0.28922247E-01 0.14321130E+04</pdfrwt>
<totfact> 0.27408616E+01</totfact>
</mgrwt>
</event>
<event>
 6    1  0.1622085E-006  0.4357739E+04  0.7818608E-02  0.7936027E-01
          1   -1    0    0  501    0  0.00000000000E+00  0.00000000000E+00  0.21753981615E+04  0.21753981615E+04  0.00000000000E+00 0. -1.
         -1   -1    0    0    0  501 -0.00000000000E+00 -0.00000000000E+00 -0.21823468146E+04  0.21823468146E+04  0.00000000000E+00 0.  1.
         23    2    1    2    0    0  0.45127097215E+03  0.20315924005E+03  0.21174676865E+04  0.21764462916E+04  0.91268229820E+02 0.  0.
         11    1    3    3    0    0  0.27941855094E+03  0.16604980544E+03  0.14723659504E+04  0.15078158894E+04  0.00000000000E+00 0. -1.
        -11    1    3    3    0    0  0.17185242120E+03  0.37109434603E+02  0.64510173610E+03  0.66863040218E+03  0.00000000000E+00 0.  1.
         22    1    1    2    0    0 -0.45127097215E+03 -0.20315924005E+03 -0.21244163395E+04  0.21812986845E+04  0.00000000000E+00 0.  1.
<mgrwt>
<rscale>  0 0.43577394E+04</rscale>
<asrwt>0</asrwt>
<pdfrwt beam="1">  1        1 0.33467664E+00 0.43577394E+04</pdfrwt>
<pdfrwt beam="2">  1       -1 0.33574567E+00 0.43577394E+04</pdfrwt>
<totfact> 0.33217450E-02</totfact>
</mgrwt>
</event>
<event>
 6    1  0.1014650E-006  0.2757239E+04  0.7818608E-02  0.8316668E-01
          2   -1    0    0  501    0  0.00000000000E+00  0.00000000000E+00  0.14887778194E+04  0.14887778194E+04  0.00000000000E+00 0. -1.
         -2   -1    0    0    0  501 -0.00000000000E+00 -0.00000000000E+00 -0.12766124380E+04  0.12766124380E+04  0.00000000000E+00 0.  1.
         23    2    1    2    0    0 -0.38401777177E+03 -0.10463829570E+04 -0.70496051327E+03  0.13219544782E+04  0.90594567074E+02 0.  0.
         11    1    3    3    0    0 -0.64247212402E+02 -0.15864993179E+03 -0.71662997875E+02  0.18556155427E+03  0.00000000000E+00 0. -1.
        -11    1    3    3    0    0 -0.31977055937E+03 -0.88773302518E+03 -0.63329751540E+03  0.11363929240E+04  0.00000000000E+00 0.  1.
         22    1    1    2    0    0  0.38401777177E+03  0.10463829570E+04  0.91712589471E+03  0.14434357791E+04  0.00000000000E+00 0. -1.
<mgrwt>
<rscale>  0 0.27572394E+04</rscale>
<asrwt>0</asrwt>
<pdfrwt beam="1">  1        2 0.22904274E+00 0.27572394E+04</pdfrwt>
<pdfrwt beam="2">  1       -2 0.19640191E+00 0.27572394E+04</pdfrwt>
<totfact> 0.15801658E+00</totfact>
</mgrwt>
</event>
<event>
 6    1  0.1014650E-006  0.1941836E+04  0.7818608E-02  0.8634308E-01
         -2   -1    0    0    0  501 -0.00000000000E+00  0.00000000000E+00  0.63204211263E+03  0.63204211263E+03  0.00000000000E+00 0.  1.
          2   -1    0    0  501    0  0.00000000000E+00 -0.00000000000E+00 -0.14914849785E+04  0.14914849785E+04  0.00000000000E+00 0. -1.
         23    2    1    2    0    0 -0.16598561870E+03  0.36748167833E+03 -0.13935128079E+04  0.14543300255E+04  0.10297508365E+03 0.  0.
         11    1    3    3    0    0 -0.36903255922E+02  0.15228899057E+03 -0.68492233861E+03  0.70261824405E+03  0.00000000000E+00 0. -1.
        -11    1    3    3    0    0 -0.12908236278E+03  0.21519268776E+03 -0.70859046928E+03  0.75171178147E+03  0.00000000000E+00 0.  1.
         22    1    1    2    0    0  0.16598561870E+03 -0.36748167833E+03  0.53406994207E+03  0.66919706555E+03  0.00000000000E+00 0.  1.
<mgrwt>
<rscale>  0 0.19418355E+04</rscale>
<asrwt>0</asrwt>
<pdfrwt beam="1">  1        2 0.22945923E+00 0.19418355E+04</pdfrwt>
<pdfrwt beam="2">  1       -2 0.97237248E-01 0.19418355E+04</pdfrwt>
<totfact> 0.10573945E+01</totfact>
</mgrwt>
</event>
<event>
 6    1  0.1014650E-006  0.3445793E+04  0.7818608E-02  0.8126758E-01
          1   -1    0    0  501    0  0.00000000000E+00  0.00000000000E+00  0.15351722287E+04  0.15351722287E+04  0.00000000000E+00 0. -1.
         -1   -1    0    0    0  501 -0.00000000000E+00 -0.00000000000E+00 -0.19335757596E+04  0.19335757596E+04  0.00000000000E+00 0.  1.
         23    2    1    2    0    0 -0.45777966829E+03  0.71332048515E+03  0.13092996911E+04  0.15622751631E+04  0.89719925385E+02 0.  0.
         11    1    3    3    0    0 -0.43855725637E+02  0.99102191885E+02  0.12502897662E+03  0.16545940319E+03  0.00000000000E+00 0.  1.
        -11    1    3    3    0    0 -0.41392394265E+03  0.61421829327E+03  0.11842707144E+04  0.13968157599E+04  0.00000000000E+00 0. -1.
         22    1    1    2    0    0  0.45777966829E+03 -0.71332048515E+03 -0.17077032219E+04  0.19064728252E+04  0.00000000000E+00 0.  1.
<mgrwt>
<rscale>  0 0.34457927E+04</rscale>
<asrwt>0</asrwt>
<pdfrwt beam="1">  1        1 0.23618034E+00 0.34457927E+04</pdfrwt>
<pdfrwt beam="2">  1       -1 0.29747319E+00 0.34457927E+04</pdfrwt>
<totfact> 0.17380965E-01</totfact>
</mgrwt>
</event>
<event>
 6    1  0.1014650E-006  0.3055973E+04  0.7818608E-02  0.8227926E-01
         -2   -1    0    0    0  501 -0.00000000000E+00  0.00000000000E+00  0.68910508158E+03  0.68910508158E+03  0.00000000000E+00 0.  1.
          2   -1    0    0  501    0  0.00000000000E+00 -0.00000000000E+00 -0.33880803127E+04  0.33880803127E+04  0.00000000000E+00 0. -1.
         23    2    1    2    0    0 -0.89648493750E+03 -0.60405415426E+01 -0.29992632614E+04  0.31317253833E+04  0.91662606861E+02 0.  0.
         13    1    3    3    0    0 -0.55651852896E+03 -0.47751503692E+02 -0.18364598136E+04  0.19195253909E+04  0.00000000000E+00 0.  1.
        -13    1    3    3    0    0 -0.33996640854E+03  0.41710962149E+02 -0.11628034478E+04  0.12121999924E+04  0.00000000000E+00 0. -1.
         22    1    1    2    0    0  0.89648493750E+03  0.60405415426E+01  0.30028803030E+03  0.94546001103E+03  0.00000000000E+00 0.  1.
<mgrwt>
<rscale>  0 0.30559734E+04</rscale>
<asrwt>0</asrwt>
<pdfrwt beam="1">  1        2 0.52124311E+00 0.30559734E+04</pdfrwt>
<pdfrwt beam="2">  1       -2 0.10601617E+00 0.30559734E+04</pdfrwt>
<totfact> 0.59399435E-01</totfact>
</mgrwt>
</event>
<event>
 6    1  0.1338539E-006  0.4790045E+04  0.7818608E-02  0.7861737E-01
         -2   -1    0    0    0  501 -0.00000000000E+00  0.00000000000E+00  0.20286697808E+04  0.20286697808E+04  0.00000000000E+00 0.  1.
          2   -1    0    0  501    0  0.00000000000E+00 -0.00000000000E+00 -0.28275334608E+04  0.28275334608E+04  0.00000000000E+00 0. -1.
         23    2    1    2    0    0 -0.38013796375E+03  0.43955868417E+03  0.19550289853E+04  0.20416621565E+04  0.92354315200E+02 0.  0.
         11    1    3    3    0    0 -0.10966758004E+03  0.18598806171E+03  0.64478878789E+03  0.67997876305E+03  0.00000000000E+00 0.  1.
        -11    1    3    3    0    0 -0.27047038371E+03  0.25357062245E+03  0.13102401974E+04  0.13616833934E+04  0.00000000000E+00 0. -1.
         22    1    1    2    0    0  0.38013796375E+03 -0.43955868417E+03 -0.27538926653E+04  0.28145410852E+04  0.00000000000E+00 0. -1.
<mgrwt>
<rscale>  0 0.47900445E+04</rscale>
<asrwt>0</asrwt>
<pdfrwt beam="1">  1        2 0.43500515E+00 0.47900445E+04</pdfrwt>
<pdfrwt beam="2">  1       -2 0.31210304E+00 0.47900445E+04</pdfrwt>
<totfact> 0.44108873E-02</totfact>
</mgrwt>
</event>
<event>
 6    1  0.1014650E-006  0.1231068E+04  0.7818608E-02  0.9086089E-01
          2   -1    0    0  501    0  0.00000000000E+00  0.00000000000E+00  0.13869257152E+04  0.13869257152E+04  0.00000000000E+00 0. -1.
         -2   -1    0    0    0  501 -0.00000000000E+00 -0.00000000000E+00 -0.27318114788E+03  0.27318114788E+03  0.00000000000E+00 0.  1.
         23    2    1    2    0    0 -0.51782588091E+03 -0.27999298930E+03  0.33536221756E+03  0.68418739950E+03  0.95419409234E+02 0.  0.
         11    1    3    3    0    0 -0.21208182972E+03 -0.10456332585E+03  0.82748249015E+02  0.25051839119E+03  0.00000000000E+00 0.  1.
        -11    1    3    3    0    0 -0.30574405120E+03 -0.17542966345E+03  0.25261396854E+03  0.43366900831E+03  0.00000000000E+00 0. -1.
         22    1    1    2    0    0  0.51782588091E+03  0.27999298930E+03  0.77838234978E+03  0.97591946361E+03  0.00000000000E+00 0. -1.
<mgrwt>
<rscale>  0 0.12310678E+04</rscale>
<asrwt>0</asrwt>
<pdfrwt beam="1">  1        2 0.21337318E+00 0.12310678E+04</pdfrwt>
<pdfrwt beam="2">  1       -2 0.42027870E-01 0.12310678E+04</pdfrwt>
<totfact> 0.77748093E+01</totfact>
</mgrwt>
</event>
<event>
 6    1  0.1014650E-006  0.1040927E+04  0.7818608E-02  0.9264762E-01
          2   -1    0    0  501    0  0.00000000000E+00  0.00000000000E+00  0.81252365566E+03  0.81252365566E+03  0.00000000000E+00 0. -1.
         -2   -1    0    0    0  501 -0.00000000000E+00 -0.00000000000E+00 -0.33338362579E+03  0.33338362579E+03  0.00000000000E+00 0.  1.
         23    2    1    2    0    0 -0.19232088276E+03 -0.54107816431E+02 -0.28309251922E+03  0.35792667469E+03  0.89750500109E+02 0.  0.
         11    1    3    3    0    0 -0.12809119406E+03 -0.15208173739E+00 -0.12509896473E+03  0.17904504489E+03  0.00000000000E+00 0.  1.
        -11    1    3    3    0    0 -0.64229688703E+02 -0.53955734694E+02 -0.15799355449E+03  0.17888162980E+03  0.00000000000E+00 0. -1.
         22    1    1    2    0    0  0.19232088276E+03  0.54107816431E+02  0.76223254909E+03  0.78798060677E+03  0.00000000000E+00 0. -1.
<mgrwt>
<rscale>  0 0.10409267E+04</rscale>
<asrwt>0</asrwt>
<pdfrwt beam="1">  1        2 0.12500364E+00 0.10409267E+04</pdfrwt>
<pdfrwt beam="2">  1       -2 0.51289789E-01 0.10409267E+04</pdfrwt>
<totfact> 0.12072906E+02</totfact>
</mgrwt>
</event>
<event>
 6    1  0.1014650E-006  0.2364259E+04  0.7818608E-02  0.8453007E-01
          2   -1    0    0  501    0  0.00000000000E+00  0.00000000000E+00  0.26163254241E+04  0.26163254241E+04  0.00000000000E+00 0. -1.
         -2   -1    0    0    0  501 -0.00000000000E+00 -0.00000000000E+00 -0.53411926778E+03  0.53411926778E+03  0.00000000000E+00 0.  1.
         23    2    1    2    0    0  0.78203338050E+03  0.77466794194E+03  0.47466633556E+03  0.12021452016E+04  0.90323458258E+02 0.  0.
         11    1    3    3    0    0  0.16288955163E+03  0.11584077186E+03  0.99840491388E+02  0.22342832000E+03  0.00000000000E+00 0. -1.
        -11    1    3    3    0    0  0.61914382887E+03  0.65882717008E+03  0.37482584417E+03  0.97871688160E+03  0.00000000000E+00 0.  1.
         22    1    1    2    0    0 -0.78203338050E+03 -0.77466794194E+03  0.16075398208E+04  0.19482994903E+04  0.00000000000E+00 0. -1.
<mgrwt>
<rscale>  0 0.23642587E+04</rscale>
<asrwt>0</asrwt>
<pdfrwt beam="1">  1        2 0.40251160E+00 0.23642587E+04</pdfrwt>
<pdfrwt beam="2">  1       -2 0.82172196E-01 0.23642587E+04</pdfrwt>
<totfact> 0.34930489E+00</totfact>
</mgrwt>
</event>
<event>
 6    1  0.1014650E-006  0.8421182E+03  0.7818608E-02  0.9500977E-01
          1   -1    0    0  501    0  0.00000000000E+00  0.00000000000E+00  0.10037890326E+04  0.10037890326E+04  0.00000000000E+00 0. -1.
         -1   -1    0    0    0  501 -0.00000000000E+00 -0.00000000000E+00 -0.17662154740E+03  0.17662154740E+03  0.00000000000E+00 0.  1.
         23    2    1    2    0    0 -0.13204674356E+03 -0.17874776329E+03 -0.74691351908E+02  0.25157449788E+03  0.91234996407E+02 0.  0.
         11    1    3    3    0    0 -0.12508449102E+02  0.46257481461E+01 -0.23112569200E+02  0.26684259403E+02  0.00000000000E+00 0.  1.
        -11    1    3    3    0    0 -0.11953829445E+03 -0.18337351144E+03 -0.51578782708E+02  0.22489023848E+03  0.00000000000E+00 0. -1.
         22    1    1    2    0    0  0.13204674356E+03  0.17874776329E+03  0.90185883708E+03  0.92883608209E+03  0.00000000000E+00 0. -1.
<mgrwt>
<rscale>  0 0.84211822E+03</rscale>
<asrwt>0</asrwt>
<pdfrwt beam="1">  1        1 0.15442908E+00 0.84211822E+03</pdfrwt>
<pdfrwt beam="2">  1       -1 0.27172546E-01 0.84211822E+03</pdfrwt>
<totfact> 0.18382891E+02</totfact>
</mgrwt>
</event>
<event>
 6    1  0.1014650E-006  0.2320416E+04  0.7818608E-02  0.8469915E-01
         -2   -1    0    0    0  501 -0.00000000000E+00  0.00000000000E+00  0.78150597402E+03  0.78150597402E+03  0.00000000000E+00 0.  1.
          2   -1    0    0  501    0  0.00000000000E+00 -0.00000000000E+00 -0.17224212487E+04  0.17224212487E+04  0.00000000000E+00 0. -1.
         23    2    1    2    0    0 -0.58252435156E+03  0.80231626020E+03 -0.11177832744E+04  0.14967885576E+04  0.88828689875E+02 0.  0.
         11    1    3    3    0    0 -0.40268700624E+03  0.49526158417E+03 -0.75399724959E+03  0.98790319067E+03  0.00000000000E+00 0.  1.
        -11    1    3    3    0    0 -0.17983734532E+03  0.30705467603E+03 -0.36378602477E+03  0.50888536691E+03  0.00000000000E+00 0. -1.
         22    1    1    2    0    0  0.58252435156E+03 -0.80231626020E+03  0.17686799965E+03  0.10071386652E+04  0.00000000000E+00 0. -1.
<mgrwt>
<rscale>  0 0.23204159E+04</rscale>
<asrwt>0</asrwt>
<pdfrwt beam="1">  1        2 0.26498788E+00 0.23204159E+04</pdfrwt>
<pdfrwt beam="2">  1       -2 0.12023169E+00 0.23204159E+04</pdfrwt>
<totfact> 0.45583962E+00</totfact>
</mgrwt>
</event>
<event>
 6    1  0.1014650E-006  0.2384019E+04  0.7818608E-02  0.8445511E-01
         -1   -1    0    0    0  501 -0.00000000000E+00  0.00000000000E+00  0.85122015655E+03  0.85122015655E+03  0.00000000000E+00 0.  1.
          1   -1    0    0  501    0  0.00000000000E+00 -0.00000000000E+00 -0.16692346473E+04  0.16692346473E+04  0.00000000000E+00 0. -1.
         23    2    1    2    0    0  0.46950535547E+03 -0.10207108681E+04  0.70554436980E+01  0.11265300025E+04  0.82061637457E+02 0.  0.
         11    1    3    3    0    0  0.13575417194E+03 -0.34751817108E+03  0.34190772769E+02  0.37465595334E+03  0.00000000000E+00 0.  1.
        -11    1    3    3    0    0  0.33375118353E+03 -0.67319269697E+03 -0.27135329071E+02  0.75187404919E+03  0.00000000000E+00 0. -1.
         22    1    1    2    0    0 -0.46950535547E+03  0.10207108681E+04 -0.82506993441E+03  0.13939248013E+04  0.00000000000E+00 0.  1.
<mgrwt>
<rscale>  0 0.23840186E+04</rscale>
<asrwt>0</asrwt>
<pdfrwt beam="1">  1        1 0.25680533E+00 0.23840186E+04</pdfrwt>
<pdfrwt beam="2">  1       -1 0.13095695E+00 0.23840186E+04</pdfrwt>
<totfact> 0.22345513E+00</totfact>
</mgrwt>
</event>
<event>
 6    1  0.1014650E-006  0.9576417E+03  0.7818608E-02  0.9356263E-01
          3   -1    0    0  501    0  0.00000000000E+00  0.00000000000E+00  0.90559506819E+03  0.90559506819E+03  0.00000000000E+00 0. -1.
         -3   -1    0    0    0  501 -0.00000000000E+00 -0.00000000000E+00 -0.25316991111E+03  0.25316991111E+03  0.00000000000E+00 0.  1.
         23    2    1    2    0    0 -0.21350037389E+03 -0.18167289857E+03  0.79279271210E+03  0.84525181813E+03  0.85690722798E+02 0.  0.
         11    1    3    3    0    0 -0.14683355196E+03 -0.10636351055E+03  0.61285356909E+03  0.63911093364E+03  0.00000000000E+00 0.  1.
        -11    1    3    3    0    0 -0.66666821934E+02 -0.75309388027E+02  0.17993914301E+03  0.20614088449E+03  0.00000000000E+00 0. -1.
         22    1    1    2    0    0  0.21350037389E+03  0.18167289857E+03 -0.14036755502E+03  0.31351316117E+03  0.00000000000E+00 0.  1.
<mgrwt>
<rscale>  0 0.95764173E+03</rscale>
<asrwt>0</asrwt>
<pdfrwt beam="1">  1        3 0.13932232E+00 0.95764173E+03</pdfrwt>
<pdfrwt beam="2">  1       -3 0.38949218E-01 0.95764173E+03</pdfrwt>
<totfact> 0.67174967E+00</totfact>
</mgrwt>
</event>
<event>
 6    1  0.1014650E-006  0.2144691E+04  0.7818608E-02  0.8541808E-01
          1   -1    0    0  501    0  0.00000000000E+00  0.00000000000E+00  0.56305428009E+03  0.56305428009E+03  0.00000000000E+00 0. -1.
         -1   -1    0    0    0  501 -0.00000000000E+00 -0.00000000000E+00 -0.20422978181E+04  0.20422978181E+04  0.00000000000E+00 0.  1.
         23    2    1    2    0    0 -0.94210503515E+03  0.12257470395E+02 -0.13576934707E+04  0.16553591710E+04  0.95761588073E+02 0.  0.
         11    1    3    3    0    0 -0.70220611657E+03  0.62911516171E+00 -0.93688196015E+03  0.11708294637E+04  0.00000000000E+00 0.  1.
        -11    1    3    3    0    0 -0.23989891859E+03  0.11628355234E+02 -0.42081151056E+03  0.48452970725E+03  0.00000000000E+00 0. -1.
         22    1    1    2    0    0  0.94210503515E+03 -0.12257470395E+02 -0.12155006729E+03  0.94999292718E+03  0.00000000000E+00 0. -1.
<mgrwt>
<rscale>  0 0.21446907E+04</rscale>
<asrwt>0</asrwt>
<pdfrwt beam="1">  1        1 0.86623734E-01 0.21446907E+04</pdfrwt>
<pdfrwt beam="2">  1       -1 0.31419967E+00 0.21446907E+04</pdfrwt>
<totfact> 0.91841844E-01</totfact>
</mgrwt>
</event>
<event>
 6    1  0.1014650E-006  0.1630564E+04  0.7818608E-02  0.8801988E-01
          1   -1    0    0  501    0  0.00000000000E+00  0.00000000000E+00  0.18626058996E+04  0.18626058996E+04  0.00000000000E+00 0. -1.
         -1   -1    0    0    0  501 -0.00000000000E+00 -0.00000000000E+00 -0.35685763516E+03  0.35685763516E+03  0.00000000000E+00 0.  1.
         23    2    1    2    0    0 -0.32994306911E+03 -0.33177037825E+03 -0.14941397810E+03  0.49943561003E+03  0.90428861418E+02 0.  0.
         11    1    3    3    0    0 -0.15853128482E+03 -0.20839346115E+03 -0.11273694244E+03  0.28507827189E+03  0.00000000000E+00 0.  1.
        -11    1    3    3    0    0 -0.17141178430E+03 -0.12337691710E+03 -0.36677035661E+02  0.21435733814E+03  0.00000000000E+00 0. -1.
         22    1    1    2    0    0  0.32994306911E+03  0.33177037825E+03  0.16551622426E+04  0.17200279248E+04  0.00000000000E+00 0. -1.
<mgrwt>
<rscale>  0 0.16305645E+04</rscale>
<asrwt>0</asrwt>
<pdfrwt beam="1">  1        1 0.28655475E+00 0.16305645E+04</pdfrwt>
<pdfrwt beam="2">  1       -1 0.54901176E-01 0.16305645E+04</pdfrwt>
<totfact> 0.11855572E+01</totfact>
</mgrwt>
</event>
<event>
 6    1  0.1014650E-006  0.5002355E+04  0.7818608E-02  0.7828144E-01
         -2   -1    0    0    0  501 -0.00000000000E+00  0.00000000000E+00  0.20314000924E+04  0.20314000924E+04  0.00000000000E+00 0.  1.
          2   -1    0    0  501    0  0.00000000000E+00 -0.00000000000E+00 -0.30795950493E+04  0.30795950493E+04  0.00000000000E+00 0. -1.
         23    2    1    2    0    0 -0.19797443437E+04 -0.21915270113E+03  0.10195860984E+04  0.22399092729E+04  0.10110472660E+03 0.  0.
         13    1    3    3    0    0 -0.13949933100E+04 -0.17352822867E+03  0.76613536756E+03  0.16009627673E+04  0.00000000000E+00 0. -1.
        -13    1    3    3    0    0 -0.58475103378E+03 -0.45624472457E+02  0.25345073088E+03  0.63894650557E+03  0.00000000000E+00 0.  1.
         22    1    1    2    0    0  0.19797443437E+04  0.21915270113E+03 -0.20677810554E+04  0.28710858688E+04  0.00000000000E+00 0. -1.
<mgrwt>
<rscale>  0 0.50023553E+04</rscale>
<asrwt>0</asrwt>
<pdfrwt beam="1">  1        2 0.47378385E+00 0.50023553E+04</pdfrwt>
<pdfrwt beam="2">  1       -2 0.31252309E+00 0.50023553E+04</pdfrwt>
<totfact> 0.30033713E-02</totfact>
</mgrwt>
</event>
<event>
 6    1  0.1014650E-006  0.3449449E+04  0.7818608E-02  0.8125876E-01
          2   -1    0    0  501    0  0.00000000000E+00  0.00000000000E+00  0.30160778436E+04  0.30160778436E+04  0.00000000000E+00 0. -1.
         -2   -1    0    0    0  501 -0.00000000000E+00 -0.00000000000E+00 -0.98627229787E+03  0.98627229787E+03  0.00000000000E+00 0.  1.
         23    2    1    2    0    0 -0.12869419330E+04  0.53154811266E+03  0.21940731942E+04  0.26002992168E+04  0.93999470148E+02 0.  0.
         11    1    3    3    0    0 -0.57676717073E+03  0.26304119353E+03  0.92266374276E+03  0.11194460331E+04  0.00000000000E+00 0. -1.
        -11    1    3    3    0    0 -0.71017476232E+03  0.26850691913E+03  0.12714094514E+04  0.14808531837E+04  0.00000000000E+00 0.  1.
         22    1    1    2    0    0  0.12869419330E+04 -0.53154811266E+03 -0.16426764841E+03  0.14020509247E+04  0.00000000000E+00 0.  1.
<mgrwt>
<rscale>  0 0.34494487E+04</rscale>
<asrwt>0</asrwt>
<pdfrwt beam="1">  1        2 0.46401197E+00 0.34494487E+04</pdfrwt>
<pdfrwt beam="2">  1       -2 0.15173420E+00 0.34494487E+04</pdfrwt>
<totfact> 0.40758461E-01</totfact>
</mgrwt>
</event>
<event>
 6    1  0.1014650E-006  0.8664028E+03  0.7818608E-02  0.9468582E-01
         -2   -1    0    0    0  501 -0.00000000000E+00  0.00000000000E+00  0.13055689820E+03  0.13055689820E+03  0.00000000000E+00 0.  1.
          2   -1    0    0  501    0  0.00000000000E+00 -0.00000000000E+00 -0.14374073480E+04  0.14374073480E+04  0.00000000000E+00 0. -1.
         23    2    1    2    0    0 -0.27351381444E+03 -0.29669083882E+03 -0.92018641941E+03  0.10090865020E+04  0.93151819998E+02 0.  0.
         13    1    3    3    0    0 -0.16629645585E+03 -0.23172138906E+03 -0.57528659693E+03  0.64210901098E+03  0.00000000000E+00 0. -1.
        -13    1    3    3    0    0 -0.10721735859E+03 -0.64969449768E+02 -0.34489982249E+03  0.36697749105E+03  0.00000000000E+00 0.  1.
         22    1    1    2    0    0  0.27351381444E+03  0.29669083882E+03 -0.38666403035E+03  0.55887774414E+03  0.00000000000E+00 0.  1.
<mgrwt>
<rscale>  0 0.86640278E+03</rscale>
<asrwt>0</asrwt>
<pdfrwt beam="1">  1        2 0.22113960E+00 0.86640278E+03</pdfrwt>
<pdfrwt beam="2">  1       -2 0.20085676E-01 0.86640278E+03</pdfrwt>
<totfact> 0.29332134E+02</totfact>
</mgrwt>
</event>
<event>
 6    1  0.1014650E-006  0.8786686E+03  0.7818608E-02  0.9452647E-01
         -2   -1    0    0    0  501 -0.00000000000E+00  0.00000000000E+00  0.97306996761E+03  0.97306996761E+03  0.00000000000E+00 0.  1.
          2   -1    0    0  501    0  0.00000000000E+00 -0.00000000000E+00 -0.19835638583E+03  0.19835638583E+03  0.00000000000E+00 0. -1.
         23    2    1    2    0    0  0.28456247317E+03  0.90423382196E+02 -0.29422189199E+02  0.31364635405E+03  0.91412149140E+02 0.  0.
         13    1    3    3    0    0  0.10043735059E+03  0.25171420113E+02 -0.53969415691E+02  0.11676454776E+03  0.00000000000E+00 0. -1.
        -13    1    3    3    0    0  0.18412512258E+03  0.65251962083E+02  0.24547226492E+02  0.19688180629E+03  0.00000000000E+00 0.  1.
         22    1    1    2    0    0 -0.28456247317E+03 -0.90423382196E+02  0.80413577098E+03  0.85777999939E+03  0.00000000000E+00 0.  1.
<mgrwt>
<rscale>  0 0.87866863E+03</rscale>
<asrwt>0</asrwt>
<pdfrwt beam="1">  1        2 0.30516368E-01 0.87866863E+03</pdfrwt>
<pdfrwt beam="2">  1       -2 0.14970307E+00 0.87866863E+03</pdfrwt>
<totfact> 0.52803862E+01</totfact>
</mgrwt>
</event>
<event>
 6    1  0.1014650E-006  0.4269877E+04  0.7818608E-02  0.7952212E-01
          2   -1    0    0  501    0  0.00000000000E+00  0.00000000000E+00  0.17540582649E+04  0.17540582649E+04  0.00000000000E+00 0. -1.
         -2   -1    0    0    0  501 -0.00000000000E+00 -0.00000000000E+00 -0.25985235425E+04  0.25985235425E+04  0.00000000000E+00 0.  1.
         23    2    1    2    0    0 -0.50090466393E+03  0.76673524378E+03  0.15422683430E+04  0.17961613036E+04  0.93890202975E+02 0.  0.
         13    1    3    3    0    0 -0.34492908558E+03  0.49709981209E+03  0.10962148457E+04  0.12521067387E+04  0.00000000000E+00 0. -1.
        -13    1    3    3    0    0 -0.15597557835E+03  0.26963543169E+03  0.44605349739E+03  0.54405456491E+03  0.00000000000E+00 0.  1.
         22    1    1    2    0    0  0.50090466393E+03 -0.76673524378E+03 -0.23867336207E+04  0.25564205038E+04  0.00000000000E+00 0.  1.
<mgrwt>
<rscale>  0 0.42698767E+04</rscale>
<asrwt>0</asrwt>
<pdfrwt beam="1">  1        2 0.26985512E+00 0.42698767E+04</pdfrwt>
<pdfrwt beam="2">  1       -2 0.39977285E+00 0.42698767E+04</pdfrwt>
<totfact> 0.52600220E-02</totfact>
</mgrwt>
</event>
<event>
 6    1  0.1014650E-006  0.6038003E+04  0.7818608E-02  0.7685708E-01
         -2   -1    0    0    0  501 -0.00000000000E+00  0.00000000000E+00  0.31709997911E+04  0.31709997911E+04  0.00000000000E+00 0.  1.
          2   -1    0    0  501    0  0.00000000000E+00 -0.00000000000E+00 -0.28742893530E+04  0.28742893530E+04  0.00000000000E+00 0. -1.
         23    2    1    2    0    0 -0.23658134020E+04 -0.70004589476E+03 -0.15923211423E+04  0.29379466108E+04  0.94373512933E+02 0.  0.
         13    1    3    3    0    0 -0.12167586069E+04 -0.32424721972E+03 -0.77385082807E+03  0.14779996181E+04  0.00000000000E+00 0.  1.
        -13    1    3    3    0    0 -0.11490547951E+04 -0.37579867504E+03 -0.81847031419E+03  0.14599469927E+04  0.00000000000E+00 0. -1.
         22    1    1    2    0    0  0.23658134020E+04  0.70004589476E+03  0.18890315803E+04  0.31073425333E+04  0.00000000000E+00 0.  1.
<mgrwt>
<rscale>  0 0.60380033E+04</rscale>
<asrwt>0</asrwt>
<pdfrwt beam="1">  1        2 0.44219836E+00 0.60380033E+04</pdfrwt>
<pdfrwt beam="2">  1       -2 0.48784612E+00 0.60380033E+04</pdfrwt>
<totfact> 0.27767072E-03</totfact>
</mgrwt>
</event>
<event>
 6    1  0.1014650E-006  0.2625187E+04  0.7818608E-02  0.8359696E-01
          3   -1    0    0  501    0  0.00000000000E+00  0.00000000000E+00  0.16922090922E+04  0.16922090922E+04  0.00000000000E+00 0. -1.
         -3   -1    0    0    0  501 -0.00000000000E+00 -0.00000000000E+00 -0.10181372235E+04  0.10181372235E+04  0.00000000000E+00 0.  1.
         23    2    1    2    0    0 -0.82073797975E+03 -0.41658987523E+03 -0.62649443187E+03  0.11170382295E+04  0.90117575332E+02 0.  0.
         11    1    3    3    0    0 -0.27171297751E+03 -0.16408883109E+03 -0.25977496573E+03  0.41016596574E+03  0.00000000000E+00 0. -1.
        -11    1    3    3    0    0 -0.54902500225E+03 -0.25250104414E+03 -0.36671946615E+03  0.70687226373E+03  0.00000000000E+00 0.  1.
         22    1    1    2    0    0  0.82073797975E+03  0.41658987523E+03  0.13005663006E+04  0.15933080863E+04  0.00000000000E+00 0. -1.
<mgrwt>
<rscale>  0 0.26251865E+04</rscale>
<asrwt>0</asrwt>
<pdfrwt beam="1">  1        3 0.26033986E+00 0.26251865E+04</pdfrwt>
<pdfrwt beam="2">  1       -3 0.15663650E+00 0.26251865E+04</pdfrwt>
<totfact> 0.42646414E-02</totfact>
</mgrwt>
</event>
<event>
 6    1  0.1014650E-006  0.4321072E+04  0.7818608E-02  0.7942733E-01
          2   -1    0    0  501    0  0.00000000000E+00  0.00000000000E+00  0.28484379164E+04  0.28484379164E+04  0.00000000000E+00 0. -1.
         -2   -1    0    0    0  501 -0.00000000000E+00 -0.00000000000E+00 -0.16387634551E+04  0.16387634551E+04  0.00000000000E+00 0.  1.
         23    2    1    2    0    0  0.11034784413E+04 -0.63841214608E+03 -0.12048696992E+04  0.17567694932E+04  0.96401874000E+02 0.  0.
         13    1    3    3    0    0  0.82211327352E+03 -0.44472337294E+03 -0.92713779520E+03  0.13165233018E+04  0.00000000000E+00 0.  1.
        -13    1    3    3    0    0  0.28136516779E+03 -0.19368877314E+03 -0.27773190405E+03  0.44024619137E+03  0.00000000000E+00 0. -1.
         22    1    1    2    0    0 -0.11034784413E+04  0.63841214608E+03  0.24145441605E+04  0.27304318783E+04  0.00000000000E+00 0. -1.
<mgrwt>
<rscale>  0 0.43210721E+04</rscale>
<asrwt>0</asrwt>
<pdfrwt beam="1">  1        2 0.43822122E+00 0.43210721E+04</pdfrwt>
<pdfrwt beam="2">  1       -2 0.25211746E+00 0.43210721E+04</pdfrwt>
<totfact> 0.10355691E-01</totfact>
</mgrwt>
</event>
<event>
 6    1  0.1014650E-006  0.3848097E+04  0.7818608E-02  0.8035911E-01
         -2   -1    0    0    0  501 -0.00000000000E+00  0.00000000000E+00  0.11187357546E+04  0.11187357546E+04  0.00000000000E+00 0.  1.
          2   -1    0    0  501    0  0.00000000000E+00 -0.00000000000E+00 -0.33090589079E+04  0.33090589079E+04  0.00000000000E+00 0. -1.
         23    2    1    2    0    0 -0.91153527086E+03  0.37048713852E+03  0.80517562450E+03  0.12748325319E+04  0.93450137205E+02 0.  0.
         13    1    3    3    0    0 -0.55222581140E+03  0.22110374349E+03  0.42719655709E+03  0.73235040148E+03  0.00000000000E+00 0. -1.
        -13    1    3    3    0    0 -0.35930945946E+03  0.14938339504E+03  0.37797906741E+03  0.54248213037E+03  0.00000000000E+00 0.  1.
         22    1    1    2    0    0  0.91153527086E+03 -0.37048713852E+03 -0.29954987778E+04  0.31529621307E+04  0.00000000000E+00 0. -1.
<mgrwt>
<rscale>  0 0.38480969E+04</rscale>
<asrwt>0</asrwt>
<pdfrwt beam="1">  1        2 0.50908599E+00 0.38480969E+04</pdfrwt>
<pdfrwt beam="2">  1       -2 0.17211319E+00 0.38480969E+04</pdfrwt>
<totfact> 0.18040005E-01</totfact>
</mgrwt>
</event>
<event>
 6    1  0.1014650E-006  0.1163721E+04  0.7818608E-02  0.9145218E-01
         -1   -1    0    0    0  501 -0.00000000000E+00  0.00000000000E+00  0.16143298054E+03  0.16143298054E+03  0.00000000000E+00 0.  1.
          1   -1    0    0  501    0  0.00000000000E+00 -0.00000000000E+00 -0.20972278746E+04  0.20972278746E+04  0.00000000000E+00 0. -1.
         23    2    1    2    0    0  0.76275768651E+02 -0.57338226028E+03 -0.95815050477E+03  0.11227146587E+04  0.88603644265E+02 0.  0.
         13    1    3    3    0    0  0.80615825868E+02 -0.42501671113E+03 -0.76844857885E+03  0.88184541415E+03  0.00000000000E+00 0. -1.
        -13    1    3    3    0    0 -0.43400572169E+01 -0.14836554916E+03 -0.18970192592E+03  0.24086924455E+03  0.00000000000E+00 0.  1.
         22    1    1    2    0    0 -0.76275768651E+02  0.57338226028E+03 -0.97764438925E+03  0.11359461964E+04  0.00000000000E+00 0. -1.
<mgrwt>
<rscale>  0 0.11637212E+04</rscale>
<asrwt>0</asrwt>
<pdfrwt beam="1">  1        1 0.32265042E+00 0.11637212E+04</pdfrwt>
<pdfrwt beam="2">  1       -1 0.24835845E-01 0.11637212E+04</pdfrwt>
<totfact> 0.36085998E+01</totfact>
</mgrwt>
</event>
<event>
 6    1  0.1014650E-006  0.2843698E+04  0.7818608E-02  0.8289829E-01
         -2   -1    0    0    0  501 -0.00000000000E+00  0.00000000000E+00  0.21004847094E+04  0.21004847094E+04  0.00000000000E+00 0.  1.
          2   -1    0    0  501    0  0.00000000000E+00 -0.00000000000E+00 -0.96247016975E+03  0.96247016975E+03  0.00000000000E+00 0. -1.
         23    2    1    2    0    0  0.22489044294E+03  0.84013008168E+03 -0.63997470380E+03  0.10836519677E+04  0.91321958462E+02 0.  0.
         11    1    3    3    0    0  0.27237235445E+02  0.14597995146E+03 -0.15154012337E+03  0.21217073836E+03  0.00000000000E+00 0. -1.
        -11    1    3    3    0    0  0.19765320750E+03  0.69415013022E+03 -0.48843458043E+03  0.87148122933E+03  0.00000000000E+00 0.  1.
         22    1    1    2    0    0 -0.22489044294E+03 -0.84013008168E+03  0.17779892435E+04  0.19793029115E+04  0.00000000000E+00 0.  1.
<mgrwt>
<rscale>  0 0.28436975E+04</rscale>
<asrwt>0</asrwt>
<pdfrwt beam="1">  1        2 0.14807233E+00 0.28436975E+04</pdfrwt>
<pdfrwt beam="2">  1       -2 0.32315149E+00 0.28436975E+04</pdfrwt>
<totfact> 0.52880985E-01</totfact>
</mgrwt>
</event>
<event>
 6    1  0.1014650E-006  0.3410729E+04  0.7818608E-02  0.8135278E-01
         -2   -1    0    0    0  501 -0.00000000000E+00  0.00000000000E+00  0.15433945012E+04  0.15433945012E+04  0.00000000000E+00 0.  1.
          2   -1    0    0  501    0  0.00000000000E+00 -0.00000000000E+00 -0.18843318711E+04  0.18843318711E+04  0.00000000000E+00 0. -1.
         23    2    1    2    0    0 -0.10308506440E+03  0.12458756212E+04 -0.13342826668E+04  0.18309898652E+04  0.96855860248E+02 0.  0.
         13    1    3    3    0    0  0.87222326624E+01  0.36538850285E+03 -0.35928640391E+03  0.51251493187E+03  0.00000000000E+00 0. -1.
        -13    1    3    3    0    0 -0.11180729706E+03  0.88048711839E+03 -0.97499626285E+03  0.13184749334E+04  0.00000000000E+00 0.  1.
         22    1    1    2    0    0  0.10308506440E+03 -0.12458756212E+04  0.99334529683E+03  0.15967365070E+04  0.00000000000E+00 0.  1.
<mgrwt>
<rscale>  0 0.34107286E+04</rscale>
<asrwt>0</asrwt>
<pdfrwt beam="1">  1        2 0.28989721E+00 0.34107286E+04</pdfrwt>
<pdfrwt beam="2">  1       -2 0.23744531E+00 0.34107286E+04</pdfrwt>
<totfact> 0.49268541E-01</totfact>
</mgrwt>
</event>
<event>
 6    1  0.1014650E-006  0.1707795E+04  0.7818608E-02  0.8756931E-01
          2   -1    0    0  501    0  0.00000000000E+00  0.00000000000E+00  0.41211067282E+03  0.41211067282E+03  0.00000000000E+00 0. -1.
         -2   -1    0    0    0  501 -0.00000000000E+00 -0.00000000000E+00 -0.17692834832E+04  0.17692834832E+04  0.00000000000E+00 0.  1.
         23    2    1    2    0    0 -0.66305677747E+03 -0.48460612448E+03 -0.39457886632E+03  0.91605843489E+03  0.94779683228E+02 0.  0.
         13    1    3    3    0    0 -0.37289125218E+03 -0.32984107996E+03 -0.24112990956E+03  0.55316060711E+03  0.00000000000E+00 0. -1.
        -13    1    3    3    0    0 -0.29016552529E+03 -0.15476504453E+03 -0.15344895677E+03  0.36289782778E+03  0.00000000000E+00 0.  1.
         22    1    1    2    0    0  0.66305677747E+03  0.48460612448E+03 -0.96259394404E+03  0.12653357211E+04  0.00000000000E+00 0.  1.
<mgrwt>
<rscale>  0 0.17077946E+04</rscale>
<asrwt>0</asrwt>
<pdfrwt beam="1">  1        2 0.63401641E-01 0.17077946E+04</pdfrwt>
<pdfrwt beam="2">  1       -2 0.27219746E+00 0.17077946E+04</pdfrwt>
<totfact> 0.34387152E+00</totfact>
</mgrwt>
</event>
<event>
 6    1  0.1014650E-006  0.2669610E+04  0.7818608E-02  0.8344933E-01
         -2   -1    0    0    0  501 -0.00000000000E+00  0.00000000000E+00  0.73204040587E+03  0.73204040587E+03  0.00000000000E+00 0.  1.
          2   -1    0    0  501    0  0.00000000000E+00 -0.00000000000E+00 -0.24338875919E+04  0.24338875919E+04  0.00000000000E+00 0. -1.
         23    2    1    2    0    0 -0.92848803383E+03 -0.62063248391E+03  0.11494739954E+02  0.11207347882E+04  0.92949596338E+02 0.  0.
         13    1    3    3    0    0 -0.31100333044E+03 -0.25377035360E+03  0.27171399647E+02  0.40231921265E+03  0.00000000000E+00 0.  1.
        -13    1    3    3    0    0 -0.61748470339E+03 -0.36686213031E+03 -0.15676659692E+02  0.71841557558E+03  0.00000000000E+00 0. -1.
         22    1    1    2    0    0  0.92848803383E+03  0.62063248391E+03 -0.17133419260E+04  0.20451932095E+04  0.00000000000E+00 0. -1.
<mgrwt>
<rscale>  0 0.26696098E+04</rscale>
<asrwt>0</asrwt>
<pdfrwt beam="1">  1        2 0.37444424E+00 0.26696098E+04</pdfrwt>
<pdfrwt beam="2">  1       -2 0.11262160E+00 0.26696098E+04</pdfrwt>
<totfact> 0.20739097E+00</totfact>
</mgrwt>
</event>
<event>
 6    1  0.1014650E-006  0.1561317E+04  0.7818608E-02  0.8844671E-01
         -4   -1    0    0    0  501 -0.00000000000E+00  0.00000000000E+00  0.92385538182E+03  0.92385538182E+03  0.00000000000E+00 0.  1.
          4   -1    0    0  501    0  0.00000000000E+00 -0.00000000000E+00 -0.65965736851E+03  0.65965736851E+03  0.00000000000E+00 0. -1.
         23    2    1    2    0    0  0.60616286546E+03 -0.24912924935E+03 -0.29284302099E+03  0.72340024825E+03  0.89733393271E+02 0.  0.
         11    1    3    3    0    0  0.43854286348E+03 -0.22219072746E+03 -0.22278303498E+03  0.53974145955E+03  0.00000000000E+00 0.  1.
        -11    1    3    3    0    0  0.16762000198E+03 -0.26938521895E+02 -0.70059986017E+02  0.18365878870E+03  0.00000000000E+00 0. -1.
         22    1    1    2    0    0 -0.60616286546E+03  0.24912924935E+03  0.55704103430E+03  0.86011250209E+03  0.00000000000E+00 0.  1.
<mgrwt>
<rscale>  0 0.15613174E+04</rscale>
<asrwt>0</asrwt>
<pdfrwt beam="1">  1        4 0.10148575E+00 0.15613174E+04</pdfrwt>
<pdfrwt beam="2">  1       -4 0.14213160E+00 0.15613174E+04</pdfrwt>
<totfact> 0.52664164E-01</totfact>
</mgrwt>
</event>
<event>
 6    1  0.1014650E-006  0.2944672E+04  0.7818608E-02  0.8259709E-01
          2   -1    0    0  501    0  0.00000000000E+00  0.00000000000E+00  0.12896325055E+04  0.12896325055E+04  0.00000000000E+00 0. -1.
         -2   -1    0    0    0  501 -0.00000000000E+00 -0.00000000000E+00 -0.16809230543E+04  0.16809230543E+04  0.00000000000E+00 0.  1.
         23    2    1    2    0    0 -0.88876938403E+01 -0.66791198060E+03 -0.15178100702E+04  0.16608870379E+04  0.92805917359E+02 0.  0.
         11    1    3    3    0    0  0.38682517131E+01 -0.27167174278E+03 -0.73061059018E+03  0.77949492216E+03  0.00000000000E+00 0. -1.
        -11    1    3    3    0    0 -0.12755945553E+02 -0.39624023782E+03 -0.78719948006E+03  0.88139211570E+03  0.00000000000E+00 0.  1.
         22    1    1    2    0    0  0.88876938403E+01  0.66791198060E+03  0.11265195215E+04  0.13096685219E+04  0.00000000000E+00 0. -1.
<mgrwt>
<rscale>  0 0.29446718E+04</rscale>
<asrwt>0</asrwt>
<pdfrwt beam="1">  1        2 0.19840500E+00 0.29446718E+04</pdfrwt>
<pdfrwt beam="2">  1       -2 0.25860355E+00 0.29446718E+04</pdfrwt>
<totfact> 0.82025750E-01</totfact>
</mgrwt>
</event>
<event>
 6    1  0.1014650E-006  0.1654414E+04  0.7818608E-02  0.8787799E-01
         -2   -1    0    0    0  501 -0.00000000000E+00  0.00000000000E+00  0.21624476908E+03  0.21624476908E+03  0.00000000000E+00 0.  1.
          2   -1    0    0  501    0  0.00000000000E+00 -0.00000000000E+00 -0.31643384901E+04  0.31643384901E+04  0.00000000000E+00 0. -1.
         23    2    1    2    0    0 -0.44623045141E+03  0.47854403441E+03 -0.45248228329E+03  0.80062154304E+03  0.90158914411E+02 0.  0.
         11    1    3    3    0    0 -0.42424214725E+03  0.43739971525E+03 -0.44209838739E+03  0.75282859572E+03  0.00000000000E+00 0. -1.
        -11    1    3    3    0    0 -0.21988304166E+02  0.41144319157E+02 -0.10383895897E+02  0.47792947314E+02  0.00000000000E+00 0.  1.
         22    1    1    2    0    0  0.44623045141E+03 -0.47854403441E+03 -0.24956114378E+04  0.25799617162E+04  0.00000000000E+00 0. -1.
<mgrwt>
<rscale>  0 0.16544143E+04</rscale>
<asrwt>0</asrwt>
<pdfrwt beam="1">  1        2 0.48682128E+00 0.16544143E+04</pdfrwt>
<pdfrwt beam="2">  1       -2 0.33268428E-01 0.16544143E+04</pdfrwt>
<totfact> 0.11100571E+01</totfact>
</mgrwt>
</event>
<event>
 6    1  0.1014650E-006  0.8416888E+03  0.7818608E-02  0.9501560E-01
          1   -1    0    0  501    0  0.00000000000E+00  0.00000000000E+00  0.10039485770E+04  0.10039485770E+04  0.00000000000E+00 0. -1.
         -1   -1    0    0    0  501 -0.00000000000E+00 -0.00000000000E+00 -0.17641344502E+03  0.17641344502E+03  0.00000000000E+00 0.  1.
         23    2    1    2    0    0  0.20390125242E+02 -0.23317259974E+03  0.90074671529E+03  0.93511693151E+03  0.91180107597E+02 0.  0.
         11    1    3    3    0    0 -0.20686847418E+01 -0.10438476243E+03  0.56977580995E+03  0.57926240314E+03  0.00000000000E+00 0. -1.
        -11    1    3    3    0    0  0.22458809984E+02 -0.12878783731E+03  0.33097090534E+03  0.35585452837E+03  0.00000000000E+00 0.  1.
         22    1    1    2    0    0 -0.20390125242E+02  0.23317259974E+03 -0.73211583330E+02  0.24524509049E+03  0.00000000000E+00 0.  1.
<mgrwt>
<rscale>  0 0.84168884E+03</rscale>
<asrwt>0</asrwt>
<pdfrwt beam="1">  1        1 0.15445362E+00 0.84168884E+03</pdfrwt>
<pdfrwt beam="2">  1       -1 0.27140531E-01 0.84168884E+03</pdfrwt>
<totfact> 0.18415524E+02</totfact>
</mgrwt>
</event>
<event>
 6    1  0.1014650E-006  0.8188933E+03  0.7818608E-02  0.9533065E-01
          2   -1    0    0  501    0  0.00000000000E+00  0.00000000000E+00  0.12865826248E+04  0.12865826248E+04  0.00000000000E+00 0. -1.
         -2   -1    0    0    0  501 -0.00000000000E+00 -0.00000000000E+00 -0.13030376172E+03  0.13030376172E+03  0.00000000000E+00 0.  1.
         23    2    1    2    0    0 -0.31470405639E+03 -0.20217013202E+03  0.83664203755E+03  0.92487103552E+03  0.12451958866E+03 0.  0.
         11    1    3    3    0    0 -0.80610903102E+02 -0.12457901011E+02  0.28330691783E+03  0.29481541121E+03  0.00000000000E+00 0. -1.
        -11    1    3    3    0    0 -0.23409315329E+03 -0.18971223101E+03  0.55333511972E+03  0.63005562431E+03  0.00000000000E+00 0.  1.
         22    1    1    2    0    0  0.31470405639E+03  0.20217013202E+03  0.31963682553E+03  0.49201535101E+03  0.00000000000E+00 0.  1.
<mgrwt>
<rscale>  0 0.81889329E+03</rscale>
<asrwt>0</asrwt>
<pdfrwt beam="1">  1        2 0.19793578E+00 0.81889329E+03</pdfrwt>
<pdfrwt beam="2">  1       -2 0.20046733E-01 0.81889329E+03</pdfrwt>
<totfact> 0.35989876E+02</totfact>
</mgrwt>
</event>
<event>
 6    1  0.1014650E-006  0.2101882E+04  0.7818608E-02  0.8560415E-01
          2   -1    0    0  501    0  0.00000000000E+00  0.00000000000E+00  0.78082000022E+03  0.78082000022E+03  0.00000000000E+00 0. -1.
         -2   -1    0    0    0  501 -0.00000000000E+00 -0.00000000000E+00 -0.14145096620E+04  0.14145096620E+04  0.00000000000E+00 0.  1.
         23    2    1    2    0    0 -0.75177085611E+03 -0.61250712023E+02  0.44399505299E+03  0.87991512137E+03  0.90597703737E+02 0.  0.
         13    1    3    3    0    0 -0.64547813512E+03 -0.22246436514E+02  0.38997926018E+03  0.75446719626E+03  0.00000000000E+00 0.  1.
        -13    1    3    3    0    0 -0.10629272099E+03 -0.39004275509E+02  0.54015792809E+02  0.12544792512E+03  0.00000000000E+00 0. -1.
         22    1    1    2    0    0  0.75177085611E+03  0.61250712023E+02 -0.10776847148E+04  0.13154145408E+04  0.00000000000E+00 0.  1.
<mgrwt>
<rscale>  0 0.21018824E+04</rscale>
<asrwt>0</asrwt>
<pdfrwt beam="1">  1        2 0.12012615E+00 0.21018824E+04</pdfrwt>
<pdfrwt beam="2">  1       -2 0.21761687E+00 0.21018824E+04</pdfrwt>
<totfact> 0.33529589E+00</totfact>
</mgrwt>
</event>
<event>
 6    1  0.1014650E-006  0.1585635E+04  0.7818608E-02  0.8829422E-01
          2   -1    0    0  501    0  0.00000000000E+00  0.00000000000E+00  0.34593926881E+03  0.34593926881E+03  0.00000000000E+00 0. -1.
         -2   -1    0    0    0  501 -0.00000000000E+00 -0.00000000000E+00 -0.18169655958E+04  0.18169655958E+04  0.00000000000E+00 0.  1.
         23    2    1    2    0    0 -0.32698635495E+03 -0.47307824118E+03 -0.14765718224E+04  0.15877928310E+04  0.10049193494E+03 0.  0.
         13    1    3    3    0    0 -0.17022195486E+03 -0.17894174791E+03 -0.54364436165E+03  0.59711377058E+03  0.00000000000E+00 0. -1.
        -13    1    3    3    0    0 -0.15676440009E+03 -0.29413649327E+03 -0.93292746075E+03  0.99067906046E+03  0.00000000000E+00 0.  1.
         22    1    1    2    0    0  0.32698635495E+03  0.47307824118E+03  0.55454954331E+01  0.57511203354E+03  0.00000000000E+00 0. -1.
<mgrwt>
<rscale>  0 0.15856352E+04</rscale>
<asrwt>0</asrwt>
<pdfrwt beam="1">  1        2 0.53221426E-01 0.15856352E+04</pdfrwt>
<pdfrwt beam="2">  1       -2 0.27953317E+00 0.15856352E+04</pdfrwt>
<totfact> 0.38168116E+00</totfact>
</mgrwt>
</event>
<event>
 6    1  0.1014650E-006  0.1197892E+04  0.7818608E-02  0.9114704E-01
          1   -1    0    0  501    0  0.00000000000E+00  0.00000000000E+00  0.92438802275E+03  0.92438802275E+03  0.00000000000E+00 0. -1.
         -1   -1    0    0    0  501 -0.00000000000E+00 -0.00000000000E+00 -0.38807974362E+03  0.38807974362E+03  0.00000000000E+00 0.  1.
         23    2    1    2    0    0  0.17207152371E+03 -0.29586619117E+03  0.80336569757E+03  0.87834211969E+03  0.94567556977E+02 0.  0.
         13    1    3    3    0    0  0.87547960693E+02 -0.15070708073E+03  0.29162843069E+03  0.33974168303E+03  0.00000000000E+00 0.  1.
        -13    1    3    3    0    0  0.84523563019E+02 -0.14515911045E+03  0.51173726688E+03  0.53860043666E+03  0.00000000000E+00 0. -1.
         22    1    1    2    0    0 -0.17207152371E+03  0.29586619117E+03 -0.26705741845E+03  0.43412564667E+03  0.00000000000E+00 0.  1.
<mgrwt>
<rscale>  0 0.11978919E+04</rscale>
<asrwt>0</asrwt>
<pdfrwt beam="1">  1        1 0.14221354E+00 0.11978919E+04</pdfrwt>
<pdfrwt beam="2">  1       -1 0.59704576E-01 0.11978919E+04</pdfrwt>
<totfact> 0.48936661E+01</totfact>
</mgrwt>
</event>
<event>
 6    1  0.1014650E-006  0.7624053E+03  0.7818608E-02  0.9616087E-01
         -2   -1    0    0    0  501 -0.00000000000E+00  0.00000000000E+00  0.11479137699E+03  0.11479137699E+03  0.00000000000E+00 0.  1.
          2   -1    0    0  501    0  0.00000000000E+00 -0.00000000000E+00 -0.12659090772E+04  0.12659090772E+04  0.00000000000E+00 0. -1.
         23    2    1    2    0    0 -0.96862483620E+02 -0.33317490522E+03 -0.32352017680E+03  0.48331228904E+03  0.92399165268E+02 0.  0.
         11    1    3    3    0    0 -0.50700117369E+02 -0.28491602587E+03 -0.28523962680E+03  0.40633642268E+03  0.00000000000E+00 0.  1.
        -11    1    3    3    0    0 -0.46162366251E+02 -0.48258879346E+02 -0.38280549995E+02  0.76975866358E+02  0.00000000000E+00 0. -1.
         22    1    1    2    0    0  0.96862483620E+02  0.33317490522E+03 -0.82759752338E+03  0.89738816512E+03  0.00000000000E+00 0. -1.
<mgrwt>
<rscale>  0 0.76240526E+03</rscale>
<asrwt>0</asrwt>
<pdfrwt beam="1">  1        2 0.19475526E+00 0.76240526E+03</pdfrwt>
<pdfrwt beam="2">  1       -2 0.17660210E-01 0.76240526E+03</pdfrwt>
<totfact> 0.46248530E+02</totfact>
</mgrwt>
</event>
<event>
 6    1  0.1014650E-006  0.3998951E+04  0.7818608E-02  0.8004758E-01
         -2   -1    0    0    0  501 -0.00000000000E+00  0.00000000000E+00  0.21528785182E+04  0.21528785182E+04  0.00000000000E+00 0.  1.
          2   -1    0    0  501    0  0.00000000000E+00 -0.00000000000E+00 -0.18570029009E+04  0.18570029009E+04  0.00000000000E+00 0. -1.
         23    2    1    2    0    0  0.49300616575E+03  0.86338403654E+03 -0.15903153293E+04  0.18776986499E+04  0.90345443768E+02 0.  0.
         11    1    3    3    0    0  0.43206696476E+03  0.77416037737E+03 -0.14635302883E+04  0.17111186565E+04  0.00000000000E+00 0. -1.
        -11    1    3    3    0    0  0.60939200997E+02  0.89223659162E+02 -0.12678504102E+03  0.16657999339E+03  0.00000000000E+00 0.  1.
         22    1    1    2    0    0 -0.49300616575E+03 -0.86338403654E+03  0.18861909466E+04  0.21321827692E+04  0.00000000000E+00 0.  1.
<mgrwt>
<rscale>  0 0.39989507E+04</rscale>
<asrwt>0</asrwt>
<pdfrwt beam="1">  1        2 0.28569275E+00 0.39989507E+04</pdfrwt>
<pdfrwt beam="2">  1       -2 0.33121208E+00 0.39989507E+04</pdfrwt>
<totfact> 0.12910942E-01</totfact>
</mgrwt>
</event>
<event>
 6    1  0.1014650E-006  0.1343333E+04  0.7818608E-02  0.8995890E-01
          2   -1    0    0  501    0  0.00000000000E+00  0.00000000000E+00  0.52918356086E+03  0.52918356086E+03  0.00000000000E+00 0. -1.
         -2   -1    0    0    0  501 -0.00000000000E+00 -0.00000000000E+00 -0.85251338856E+03  0.85251338856E+03  0.00000000000E+00 0.  1.
         23    2    1    2    0    0  0.41635947992E+03 -0.70841652731E+02  0.37111422978E+03  0.56890773612E+03  0.86928041479E+02 0.  0.
         13    1    3    3    0    0  0.14889430309E+03 -0.65785806942E+02  0.12272858805E+03  0.20386169873E+03  0.00000000000E+00 0.  1.
        -13    1    3    3    0    0  0.26746517684E+03 -0.50558457894E+01  0.24838564173E+03  0.36504603739E+03  0.00000000000E+00 0. -1.
         22    1    1    2    0    0 -0.41635947992E+03  0.70841652731E+02 -0.69444405748E+03  0.81278921330E+03  0.00000000000E+00 0.  1.
<mgrwt>
<rscale>  0 0.13433333E+04</rscale>
<asrwt>0</asrwt>
<pdfrwt beam="1">  1        2 0.81412857E-01 0.13433333E+04</pdfrwt>
<pdfrwt beam="2">  1       -2 0.13115590E+00 0.13433333E+04</pdfrwt>
<totfact> 0.23899738E+01</totfact>
</mgrwt>
</event>
<event>
 6    1  0.1014650E-006  0.2150999E+04  0.7818608E-02  0.8539105E-01
         -2   -1    0    0    0  501 -0.00000000000E+00  0.00000000000E+00  0.66700513913E+03  0.66700513913E+03  0.00000000000E+00 0.  1.
          2   -1    0    0  501    0  0.00000000000E+00 -0.00000000000E+00 -0.17341689103E+04  0.17341689103E+04  0.00000000000E+00 0. -1.
         23    2    1    2    0    0 -0.10255015064E+04 -0.17364308690E+03 -0.83159335424E+03  0.13347319822E+04  0.90314429655E+02 0.  0.
         11    1    3    3    0    0 -0.11288310064E+03  0.14248965390E+01 -0.11607772611E+03  0.16192178124E+03  0.00000000000E+00 0.  1.
        -11    1    3    3    0    0 -0.91261840581E+03 -0.17506798344E+03 -0.71551562814E+03  0.11728102010E+04  0.00000000000E+00 0. -1.
         22    1    1    2    0    0  0.10255015064E+04  0.17364308690E+03 -0.23557041693E+03  0.10664420672E+04  0.00000000000E+00 0.  1.
<mgrwt>
<rscale>  0 0.21509994E+04</rscale>
<asrwt>0</asrwt>
<pdfrwt beam="1">  1        2 0.26679521E+00 0.21509994E+04</pdfrwt>
<pdfrwt beam="2">  1       -2 0.10261618E+00 0.21509994E+04</pdfrwt>
<totfact> 0.66910417E+00</totfact>
</mgrwt>
</event>
<event>
 6    1  0.1014650E-006  0.2645718E+04  0.7818608E-02  0.8352836E-01
          1   -1    0    0  501    0  0.00000000000E+00  0.00000000000E+00  0.25569230373E+04  0.25569230373E+04  0.00000000000E+00 0. -1.
         -1   -1    0    0    0  501 -0.00000000000E+00 -0.00000000000E+00 -0.68439907829E+03  0.68439907829E+03  0.00000000000E+00 0.  1.
         23    2    1    2    0    0 -0.11161138708E+04 -0.62999834946E+03  0.54352776638E+03  0.13950179768E+04  0.89691861069E+02 0.  0.
         13    1    3    3    0    0 -0.73512089820E+03 -0.38120153230E+03  0.38452296554E+03  0.91300342509E+03  0.00000000000E+00 0. -1.
        -13    1    3    3    0    0 -0.38099297257E+03 -0.24879681716E+03  0.15900480084E+03  0.48201455172E+03  0.00000000000E+00 0.  1.
         22    1    1    2    0    0  0.11161138708E+04  0.62999834946E+03  0.13289961926E+04  0.18463041388E+04  0.00000000000E+00 0. -1.
<mgrwt>
<rscale>  0 0.26457179E+04</rscale>
<asrwt>0</asrwt>
<pdfrwt beam="1">  1        1 0.39337277E+00 0.26457179E+04</pdfrwt>
<pdfrwt beam="2">  1       -1 0.10529217E+00 0.26457179E+04</pdfrwt>
<totfact> 0.91723354E-01</totfact>
</mgrwt>
</event>
<event>
 6    1  0.1014650E-006  0.1960510E+04  0.7818608E-02  0.8625309E-01
          1   -1    0    0  501    0  0.00000000000E+00  0.00000000000E+00  0.21678199900E+04  0.21678199900E+04  0.00000000000E+00 0. -1.
         -1   -1    0    0    0  501 -0.00000000000E+00 -0.00000000000E+00 -0.44325649365E+03  0.44325649365E+03  0.00000000000E+00 0.  1.
         23    2    1    2    0    0 -0.27215925816E+03 -0.54784940115E+02  0.21133492261E+04  0.21333460208E+04  0.88590301736E+02 0.  0.
         13    1    3    3    0    0 -0.13539889603E+03 -0.62265235864E+02  0.89508149077E+03  0.90740327075E+03  0.00000000000E+00 0. -1.
        -13    1    3    3    0    0 -0.13676036213E+03  0.74802957488E+01  0.12182677353E+04  0.12259427500E+04  0.00000000000E+00 0.  1.
         22    1    1    2    0    0  0.27215925816E+03  0.54784940115E+02 -0.38878572976E+03  0.47773046284E+03  0.00000000000E+00 0.  1.
<mgrwt>
<rscale>  0 0.19605104E+04</rscale>
<asrwt>0</asrwt>
<pdfrwt beam="1">  1        1 0.33351076E+00 0.19605104E+04</pdfrwt>
<pdfrwt beam="2">  1       -1 0.68193308E-01 0.19605104E+04</pdfrwt>
<totfact> 0.46433942E+00</totfact>
</mgrwt>
</event>
<event>
 6    1  0.1014650E-006  0.2204965E+04  0.7818608E-02  0.8516364E-01
          2   -1    0    0  501    0  0.00000000000E+00  0.00000000000E+00  0.29029071370E+04  0.29029071370E+04  0.00000000000E+00 0. -1.
         -2   -1    0    0    0  501 -0.00000000000E+00 -0.00000000000E+00 -0.41870699760E+03  0.41870699760E+03  0.00000000000E+00 0.  1.
         23    2    1    2    0    0  0.10363134772E+04 -0.28613076285E+03  0.15988158664E+04  0.19288751974E+04  0.92362957289E+02 0.  0.
         11    1    3    3    0    0  0.17840011234E+03 -0.86200441072E+02  0.29735064812E+03  0.35731572043E+03  0.00000000000E+00 0.  1.
        -11    1    3    3    0    0  0.85791336486E+03 -0.19993032178E+03  0.13014652183E+04  0.15715594770E+04  0.00000000000E+00 0. -1.
         22    1    1    2    0    0 -0.10363134772E+04  0.28613076285E+03  0.88538427300E+03  0.13927389373E+04  0.00000000000E+00 0. -1.
<mgrwt>
<rscale>  0 0.22049649E+04</rscale>
<asrwt>0</asrwt>
<pdfrwt beam="1">  1        2 0.44660108E+00 0.22049649E+04</pdfrwt>
<pdfrwt beam="2">  1       -2 0.64416463E-01 0.22049649E+04</pdfrwt>
<totfact> 0.40727830E+00</totfact>
</mgrwt>
</event>
<event>
 6    1  0.1014650E-006  0.5298125E+04  0.7818608E-02  0.7784095E-01
          2   -1    0    0  501    0  0.00000000000E+00  0.00000000000E+00  0.48919148068E+04  0.48919148068E+04  0.00000000000E+00 0. -1.
         -2   -1    0    0    0  501 -0.00000000000E+00 -0.00000000000E+00 -0.14345162600E+04  0.14345162600E+04  0.00000000000E+00 0.  1.
         23    2    1    2    0    0 -0.10672893423E+04 -0.21164488208E+04  0.31395115415E+04  0.39348804611E+04  0.91045990064E+02 0.  0.
         11    1    3    3    0    0 -0.70756830602E+03 -0.14828220555E+04  0.21385400132E+04  0.26968069164E+04  0.00000000000E+00 0. -1.
        -11    1    3    3    0    0 -0.35972103629E+03 -0.63362676529E+03  0.10009715283E+04  0.12380735447E+04  0.00000000000E+00 0.  1.
         22    1    1    2    0    0  0.10672893423E+04  0.21164488208E+04  0.31788700533E+03  0.23915506057E+04  0.00000000000E+00 0. -1.
<mgrwt>
<rscale>  0 0.52981247E+04</rscale>
<asrwt>0</asrwt>
<pdfrwt beam="1">  1        2 0.75260227E+00 0.52981247E+04</pdfrwt>
<pdfrwt beam="2">  1       -2 0.22069481E+00 0.52981247E+04</pdfrwt>
<totfact> 0.31869008E-03</totfact>
</mgrwt>
</event>
<event>
 6    1  0.1014650E-006  0.2426810E+04  0.7818608E-02  0.8429534E-01
         -2   -1    0    0    0  501 -0.00000000000E+00  0.00000000000E+00  0.81847804646E+03  0.81847804646E+03  0.00000000000E+00 0.  1.
          2   -1    0    0  501    0  0.00000000000E+00 -0.00000000000E+00 -0.17988896126E+04  0.17988896126E+04  0.00000000000E+00 0. -1.
         23    2    1    2    0    0 -0.15154345320E+03 -0.11901157659E+04 -0.67427540080E+03  0.13791995339E+04  0.90570876306E+02 0.  0.
         11    1    3    3    0    0 -0.58186124965E+02 -0.54915972481E+03 -0.36044844741E+03  0.65945819559E+03  0.00000000000E+00 0.  1.
        -11    1    3    3    0    0 -0.93357328236E+02 -0.64095604109E+03 -0.31382695339E+03  0.71974133827E+03  0.00000000000E+00 0. -1.
         22    1    1    2    0    0  0.15154345320E+03  0.11901157659E+04 -0.30613616530E+03  0.12381681252E+04  0.00000000000E+00 0.  1.
<mgrwt>
<rscale>  0 0.24268100E+04</rscale>
<asrwt>0</asrwt>
<pdfrwt beam="1">  1        2 0.27675224E+00 0.24268100E+04</pdfrwt>
<pdfrwt beam="2">  1       -2 0.12591970E+00 0.24268100E+04</pdfrwt>
<totfact> 0.36499985E+00</totfact>
</mgrwt>
</event>
<event>
 6    1  0.1014650E-006  0.5916864E+03  0.7818608E-02  0.9922806E-01
          1   -1    0    0  501    0  0.00000000000E+00  0.00000000000E+00  0.46554311500E+03  0.46554311500E+03  0.00000000000E+00 0. -1.
         -1   -1    0    0    0  501 -0.00000000000E+00 -0.00000000000E+00 -0.18800231748E+03  0.18800231748E+03  0.00000000000E+00 0.  1.
         23    2    1    2    0    0 -0.10972287217E+03  0.11084323570E+03 -0.12641731074E+03  0.22052408796E+03  0.91237083126E+02 0.  0.
         11    1    3    3    0    0 -0.10190591800E+03  0.46566474996E+02 -0.10138590896E+03  0.15110378967E+03  0.00000000000E+00 0. -1.
        -11    1    3    3    0    0 -0.78169541713E+01  0.64276760707E+02 -0.25031401778E+02  0.69420298289E+02  0.00000000000E+00 0.  1.
         22    1    1    2    0    0  0.10972287217E+03 -0.11084323570E+03  0.40395810826E+03  0.43302134452E+03  0.00000000000E+00 0. -1.
<mgrwt>
<rscale>  0 0.59168635E+03</rscale>
<asrwt>0</asrwt>
<pdfrwt beam="1">  1        1 0.71622018E-01 0.59168635E+03</pdfrwt>
<pdfrwt beam="2">  1       -1 0.28923433E-01 0.59168635E+03</pdfrwt>
<totfact> 0.53721959E+02</totfact>
</mgrwt>
</event>
<event>
 6    1  0.1014650E-006  0.1110902E+04  0.7818608E-02  0.9194631E-01
          2   -1    0    0  501    0  0.00000000000E+00  0.00000000000E+00  0.42175736990E+03  0.42175736990E+03  0.00000000000E+00 0. -1.
         -2   -1    0    0    0  501 -0.00000000000E+00 -0.00000000000E+00 -0.73152471156E+03  0.73152471156E+03  0.00000000000E+00 0.  1.
         23    2    1    2    0    0 -0.40381588191E+03  0.36317025822E+03 -0.55272446043E+02  0.55350916206E+03  0.91419069440E+02 0.  0.
         13    1    3    3    0    0 -0.21529358401E+03  0.17587731771E+03 -0.72215053242E+02  0.28722669116E+03  0.00000000000E+00 0. -1.
        -13    1    3    3    0    0 -0.18852229790E+03  0.18729294051E+03  0.16942607199E+02  0.26628247090E+03  0.00000000000E+00 0.  1.
         22    1    1    2    0    0  0.40381588191E+03 -0.36317025822E+03 -0.25449489562E+03  0.59977291939E+03  0.00000000000E+00 0. -1.
<mgrwt>
<rscale>  0 0.11109022E+04</rscale>
<asrwt>0</asrwt>
<pdfrwt beam="1">  1        2 0.64885750E-01 0.11109022E+04</pdfrwt>
<pdfrwt beam="2">  1       -2 0.11254226E+00 0.11109022E+04</pdfrwt>
<totfact> 0.46177533E+01</totfact>
</mgrwt>
</event>
<event>
 6    1  0.1014650E-006  0.2426020E+04  0.7818608E-02  0.8429826E-01
          2   -1    0    0  501    0  0.00000000000E+00  0.00000000000E+00  0.85195621433E+03  0.85195621433E+03  0.00000000000E+00 0. -1.
         -2   -1    0    0    0  501 -0.00000000000E+00 -0.00000000000E+00 -0.17270767153E+04  0.17270767153E+04  0.00000000000E+00 0.  1.
         23    2    1    2    0    0  0.56203752907E+02  0.11395866036E+04 -0.58333257722E+01  0.11446422291E+04  0.91407417713E+02 0.  0.
         13    1    3    3    0    0  0.27552169442E+01  0.51482698186E+03  0.36835395575E+02  0.51615042269E+03  0.00000000000E+00 0. -1.
        -13    1    3    3    0    0  0.53448535963E+02  0.62475962170E+03 -0.42668721347E+02  0.62849180638E+03  0.00000000000E+00 0.  1.
         22    1    1    2    0    0 -0.56203752907E+02 -0.11395866036E+04 -0.86928717515E+03  0.14343907005E+04  0.00000000000E+00 0.  1.
<mgrwt>
<rscale>  0 0.24260204E+04</rscale>
<asrwt>0</asrwt>
<pdfrwt beam="1">  1        2 0.13107019E+00 0.24260204E+04</pdfrwt>
<pdfrwt beam="2">  1       -2 0.26570411E+00 0.24260204E+04</pdfrwt>
<totfact> 0.14616518E+00</totfact>
</mgrwt>
</event>
<event>
 6    1  0.1014650E-006  0.2525743E+04  0.7818608E-02  0.8393872E-01
         -1   -1    0    0    0  501 -0.00000000000E+00  0.00000000000E+00  0.85464690263E+03  0.85464690263E+03  0.00000000000E+00 0.  1.
          1   -1    0    0  501    0  0.00000000000E+00 -0.00000000000E+00 -0.18660851168E+04  0.18660851168E+04  0.00000000000E+00 0. -1.
         23    2    1    2    0    0 -0.12081829968E+04 -0.21126845404E+02 -0.89531776393E+03  0.15067977312E+04  0.93236295901E+02 0.  0.
         13    1    3    3    0    0 -0.81752062286E+03 -0.11866953204E+02 -0.65901368495E+03  0.10501332441E+04  0.00000000000E+00 0.  1.
        -13    1    3    3    0    0 -0.39066237393E+03 -0.92598922002E+01 -0.23630407898E+03  0.45666448707E+03  0.00000000000E+00 0. -1.
         22    1    1    2    0    0  0.12081829968E+04  0.21126845404E+02 -0.11612045027E+03  0.12139342883E+04  0.00000000000E+00 0.  1.
<mgrwt>
<rscale>  0 0.25257426E+04</rscale>
<asrwt>0</asrwt>
<pdfrwt beam="1">  1        1 0.28709001E+00 0.25257426E+04</pdfrwt>
<pdfrwt beam="2">  1       -1 0.13148414E+00 0.25257426E+04</pdfrwt>
<totfact> 0.16045329E+00</totfact>
</mgrwt>
</event>
<event>
 6    1  0.1014650E-006  0.1782805E+04  0.7818608E-02  0.8715497E-01
          2   -1    0    0  501    0  0.00000000000E+00  0.00000000000E+00  0.33969736021E+04  0.33969736021E+04  0.00000000000E+00 0. -1.
         -2   -1    0    0    0  501 -0.00000000000E+00 -0.00000000000E+00 -0.23391366512E+03  0.23391366512E+03  0.00000000000E+00 0.  1.
         23    2    1    2    0    0  0.18732073977E+03 -0.59592015032E+03  0.28740611306E+04  0.29426066593E+04  0.92177458147E+02 0.  0.
         11    1    3    3    0    0  0.71240380228E+02 -0.32108361382E+03  0.16752096675E+04  0.17071898866E+04  0.00000000000E+00 0.  1.
        -11    1    3    3    0    0  0.11608035954E+03 -0.27483653650E+03  0.11988514631E+04  0.12354167727E+04  0.00000000000E+00 0. -1.
         22    1    1    2    0    0 -0.18732073977E+03  0.59592015032E+03  0.28899880630E+03  0.68828060785E+03  0.00000000000E+00 0.  1.
<mgrwt>
<rscale>  0 0.17828051E+04</rscale>
<asrwt>0</asrwt>
<pdfrwt beam="1">  1        2 0.52261129E+00 0.17828051E+04</pdfrwt>
<pdfrwt beam="2">  1       -2 0.35986720E-01 0.17828051E+04</pdfrwt>
<totfact> 0.66262117E+00</totfact>
</mgrwt>
</event>
<event>
 6    1  0.1014650E-006  0.3767535E+04  0.7818608E-02  0.8053158E-01
          2   -1    0    0  501    0  0.00000000000E+00  0.00000000000E+00  0.29678135783E+04  0.29678135783E+04  0.00000000000E+00 0. -1.
         -2   -1    0    0    0  501 -0.00000000000E+00 -0.00000000000E+00 -0.11956883069E+04  0.11956883069E+04  0.00000000000E+00 0.  1.
         23    2    1    2    0    0 -0.50956160675E+03 -0.52109000262E+03  0.28048486812E+04  0.28994981418E+04  0.93410537222E+02 0.  0.
         11    1    3    3    0    0 -0.64603337417E+02 -0.93453308090E+02  0.55721864821E+03  0.56868245437E+03  0.00000000000E+00 0.  1.
        -11    1    3    3    0    0 -0.44495826933E+03 -0.42763669453E+03  0.22476300329E+04  0.23308156875E+04  0.00000000000E+00 0. -1.
         22    1    1    2    0    0  0.50956160675E+03  0.52109000262E+03 -0.10327234098E+04  0.12640037433E+04  0.00000000000E+00 0.  1.
<mgrwt>
<rscale>  0 0.37675350E+04</rscale>
<asrwt>0</asrwt>
<pdfrwt beam="1">  1        2 0.45658670E+00 0.37675350E+04</pdfrwt>
<pdfrwt beam="2">  1       -2 0.18395205E+00 0.37675350E+04</pdfrwt>
<totfact> 0.24959343E-01</totfact>
</mgrwt>
</event>
<event>
 6    1  0.1014650E-006  0.2173378E+04  0.7818608E-02  0.8529591E-01
          1   -1    0    0  501    0  0.00000000000E+00  0.00000000000E+00  0.15670886010E+04  0.15670886010E+04  0.00000000000E+00 0. -1.
         -1   -1    0    0    0  501 -0.00000000000E+00 -0.00000000000E+00 -0.75355882642E+03  0.75355882642E+03  0.00000000000E+00 0.  1.
         23    2    1    2    0    0  0.42748688528E+03 -0.53397027495E+03 -0.49149923524E+03  0.84722623575E+03  0.91386567355E+02 0.  0.
         11    1    3    3    0    0  0.10043026480E+03 -0.90616258681E+02 -0.62730004858E+02  0.14910599563E+03  0.00000000000E+00 0.  1.
        -11    1    3    3    0    0  0.32705662048E+03 -0.44335401626E+03 -0.42876923038E+03  0.69812024011E+03  0.00000000000E+00 0. -1.
         22    1    1    2    0    0 -0.42748688528E+03  0.53397027495E+03  0.13050290098E+04  0.14734211917E+04  0.00000000000E+00 0. -1.
<mgrwt>
<rscale>  0 0.21733784E+04</rscale>
<asrwt>0</asrwt>
<pdfrwt beam="1">  1        1 0.24109055E+00 0.21733784E+04</pdfrwt>
<pdfrwt beam="2">  1       -1 0.11593213E+00 0.21733784E+04</pdfrwt>
<totfact> 0.36165394E+00</totfact>
</mgrwt>
</event>
<event>
 6    1  0.1014650E-006  0.1905524E+04  0.7818608E-02  0.8652112E-01
         -2   -1    0    0    0  501 -0.00000000000E+00  0.00000000000E+00  0.16673004102E+04  0.16673004102E+04  0.00000000000E+00 0.  1.
          2   -1    0    0  501    0  0.00000000000E+00 -0.00000000000E+00 -0.54444606763E+03  0.54444606763E+03  0.00000000000E+00 0. -1.
         23    2    1    2    0    0 -0.91608606783E+03  0.10019203889E+03  0.29158987015E+03  0.97067728093E+03  0.89093226515E+02 0.  0.
         11    1    3    3    0    0 -0.47493064290E+03  0.51327046744E+02  0.19776753615E+03  0.51701603422E+03  0.00000000000E+00 0. -1.
        -11    1    3    3    0    0 -0.44115542494E+03  0.48864992149E+02  0.93822333997E+02  0.45366124671E+03  0.00000000000E+00 0.  1.
         22    1    1    2    0    0  0.91608606783E+03 -0.10019203889E+03  0.83126447239E+03  0.12410691969E+04  0.00000000000E+00 0.  1.
<mgrwt>
<rscale>  0 0.19055237E+04</rscale>
<asrwt>0</asrwt>
<pdfrwt beam="1">  1        2 0.83760934E-01 0.19055237E+04</pdfrwt>
<pdfrwt beam="2">  1       -2 0.25650775E+00 0.19055237E+04</pdfrwt>
<totfact> 0.30571489E+00</totfact>
</mgrwt>
</event>
<event>
 6    1  0.1014650E-006  0.1592306E+04  0.7818608E-02  0.8825289E-01
         -1   -1    0    0    0  501 -0.00000000000E+00  0.00000000000E+00  0.39222395791E+03  0.39222395791E+03  0.00000000000E+00 0.  1.
          1   -1    0    0  501    0  0.00000000000E+00 -0.00000000000E+00 -0.16160651983E+04  0.16160651983E+04  0.00000000000E+00 0. -1.
         23    2    1    2    0    0  0.14736051167E+03  0.50703410669E+03 -0.13611284761E+04  0.14627192790E+04  0.89879113421E+02 0.  0.
         11    1    3    3    0    0  0.39419927809E+01  0.49840882478E+02 -0.20953850248E+03  0.21542060462E+03  0.00000000000E+00 0. -1.
        -11    1    3    3    0    0  0.14341851889E+03  0.45719322421E+03 -0.11515899736E+04  0.12472986744E+04  0.00000000000E+00 0.  1.
         22    1    1    2    0    0 -0.14736051167E+03 -0.50703410669E+03  0.13728723576E+03  0.54556987715E+03  0.00000000000E+00 0.  1.
<mgrwt>
<rscale>  0 0.15923059E+04</rscale>
<asrwt>0</asrwt>
<pdfrwt beam="1">  1        1 0.24862541E+00 0.15923059E+04</pdfrwt>
<pdfrwt beam="2">  1       -1 0.60342149E-01 0.15923059E+04</pdfrwt>
<totfact> 0.14546039E+01</totfact>
</mgrwt>
</event>
<event>
 6    1  0.1014650E-006  0.1863509E+04  0.7818608E-02  0.8673237E-01
          2   -1    0    0  501    0  0.00000000000E+00  0.00000000000E+00  0.31520953332E+04  0.31520953332E+04  0.00000000000E+00 0. -1.
         -2   -1    0    0    0  501 -0.00000000000E+00 -0.00000000000E+00 -0.27542505357E+03  0.27542505357E+03  0.00000000000E+00 0.  1.
         23    2    1    2    0    0 -0.54590349172E+03 -0.49872031473E+03  0.24778089382E+04  0.25873876923E+04  0.91133757713E+02 0.  0.
         11    1    3    3    0    0 -0.32361736725E+03 -0.28893370716E+03  0.16054230011E+04  0.16630074864E+04  0.00000000000E+00 0.  1.
        -11    1    3    3    0    0 -0.22228612447E+03 -0.20978660757E+03  0.87238593709E+03  0.92438020591E+03  0.00000000000E+00 0. -1.
         22    1    1    2    0    0  0.54590349172E+03  0.49872031473E+03  0.39886134152E+03  0.84013269449E+03  0.00000000000E+00 0.  1.
<mgrwt>
<rscale>  0 0.18635085E+04</rscale>
<asrwt>0</asrwt>
<pdfrwt beam="1">  1        2 0.48493772E+00 0.18635085E+04</pdfrwt>
<pdfrwt beam="2">  1       -2 0.42373087E-01 0.18635085E+04</pdfrwt>
<totfact> 0.69383803E+00</totfact>
</mgrwt>
</event>
<event>
 6    1  0.1014650E-006  0.3024560E+04  0.7818608E-02  0.8236752E-01
          2   -1    0    0  501    0  0.00000000000E+00  0.00000000000E+00  0.15517354043E+04  0.15517354043E+04  0.00000000000E+00 0. -1.
         -2   -1    0    0    0  501 -0.00000000000E+00 -0.00000000000E+00 -0.14738276225E+04  0.14738276225E+04  0.00000000000E+00 0.  1.
         23    2    1    2    0    0 -0.47383254441E+03  0.23599346066E+03  0.14546138470E+04  0.15505953039E+04  0.90742265583E+02 0.  0.
         11    1    3    3    0    0 -0.22891232800E+03  0.16456941566E+03  0.75708745062E+03  0.80787706637E+03  0.00000000000E+00 0.  1.
        -11    1    3    3    0    0 -0.24492021641E+03  0.71424045003E+02  0.69752639640E+03  0.74271823748E+03  0.00000000000E+00 0. -1.
         22    1    1    2    0    0  0.47383254441E+03 -0.23599346066E+03 -0.13767060652E+04  0.14749677229E+04  0.00000000000E+00 0.  1.
<mgrwt>
<rscale>  0 0.30245598E+04</rscale>
<asrwt>0</asrwt>
<pdfrwt beam="1">  1        2 0.23872853E+00 0.30245598E+04</pdfrwt>
<pdfrwt beam="2">  1       -2 0.22674271E+00 0.30245598E+04</pdfrwt>
<totfact> 0.90875466E-01</totfact>
</mgrwt>
</event>
<event>
 6    1  0.1014650E-006  0.9554950E+03  0.7818608E-02  0.9358751E-01
         -1   -1    0    0    0  501 -0.00000000000E+00  0.00000000000E+00  0.20543288331E+03  0.20543288331E+03  0.00000000000E+00 0.  1.
          1   -1    0    0  501    0  0.00000000000E+00 -0.00000000000E+00 -0.11110327115E+04  0.11110327115E+04  0.00000000000E+00 0. -1.
         23    2    1    2    0    0 -0.31298196275E+03  0.28342921376E+03 -0.75193983179E+03  0.86713139545E+03  0.90628461973E+02 0.  0.
         11    1    3    3    0    0 -0.14968354968E+03  0.11134008958E+03 -0.41552746377E+03  0.45548309929E+03  0.00000000000E+00 0. -1.
        -11    1    3    3    0    0 -0.16329841307E+03  0.17208912418E+03 -0.33641236802E+03  0.41164829616E+03  0.00000000000E+00 0.  1.
         22    1    1    2    0    0  0.31298196275E+03 -0.28342921376E+03 -0.15365999640E+03  0.44933419936E+03  0.00000000000E+00 0.  1.
<mgrwt>
<rscale>  0 0.95549496E+03</rscale>
<asrwt>0</asrwt>
<pdfrwt beam="1">  1        1 0.17092811E+00 0.95549496E+03</pdfrwt>
<pdfrwt beam="2">  1       -1 0.31605059E-01 0.95549496E+03</pdfrwt>
<totfact> 0.11620802E+02</totfact>
</mgrwt>
</event>
<event>
 6    1  0.1014650E-006  0.3063156E+04  0.7818608E-02  0.8225923E-01
         -1   -1    0    0    0  501 -0.00000000000E+00  0.00000000000E+00  0.10809738588E+04  0.10809738588E+04  0.00000000000E+00 0.  1.
          1   -1    0    0  501    0  0.00000000000E+00 -0.00000000000E+00 -0.21700171662E+04  0.21700171662E+04  0.00000000000E+00 0. -1.
         23    2    1    2    0    0 -0.77666558019E+03  0.86673049609E+03  0.50945835953E+03  0.12737103784E+04  0.91428286905E+02 0.  0.
         11    1    3    3    0    0 -0.13947494060E+03  0.19408091401E+03  0.13391208875E+03  0.27395822264E+03  0.00000000000E+00 0. -1.
        -11    1    3    3    0    0 -0.63719063959E+03  0.67264958208E+03  0.37554627079E+03  0.99975215577E+03  0.00000000000E+00 0.  1.
         22    1    1    2    0    0  0.77666558019E+03 -0.86673049609E+03 -0.15985016669E+04  0.19772806466E+04  0.00000000000E+00 0. -1.
<mgrwt>
<rscale>  0 0.30631564E+04</rscale>
<asrwt>0</asrwt>
<pdfrwt beam="1">  1        1 0.33384879E+00 0.30631564E+04</pdfrwt>
<pdfrwt beam="2">  1       -1 0.16630367E+00 0.30631564E+04</pdfrwt>
<totfact> 0.50649964E-01</totfact>
</mgrwt>
</event>
<event>
 6    1  0.1014650E-006  0.1581872E+04  0.7818608E-02  0.8831763E-01
         -2   -1    0    0    0  501 -0.00000000000E+00  0.00000000000E+00  0.36323576140E+03  0.36323576140E+03  0.00000000000E+00 0.  1.
          2   -1    0    0  501    0  0.00000000000E+00 -0.00000000000E+00 -0.17222410427E+04  0.17222410427E+04  0.00000000000E+00 0. -1.
         23    2    1    2    0    0 -0.50494448668E+03 -0.55594338829E+03 -0.99626562126E+03  0.12514372088E+04  0.97508531820E+02 0.  0.
         11    1    3    3    0    0 -0.37498199859E+03 -0.42911655177E+03 -0.81829691748E+03  0.99717719560E+03  0.00000000000E+00 0. -1.
        -11    1    3    3    0    0 -0.12996248808E+03 -0.12682683651E+03 -0.17796870378E+03  0.25426001317E+03  0.00000000000E+00 0.  1.
         22    1    1    2    0    0  0.50494448668E+03  0.55594338829E+03 -0.36273966002E+03  0.83403959532E+03  0.00000000000E+00 0. -1.
<mgrwt>
<rscale>  0 0.15818717E+04</rscale>
<asrwt>0</asrwt>
<pdfrwt beam="1">  1        2 0.26496016E+00 0.15818717E+04</pdfrwt>
<pdfrwt beam="2">  1       -2 0.55882425E-01 0.15818717E+04</pdfrwt>
<totfact> 0.27523285E+01</totfact>
</mgrwt>
</event>
<event>
 6    1  0.1498608E-006  0.3800595E+04  0.7818608E-02  0.8046027E-01
          2   -1    0    0  501    0  0.00000000000E+00  0.00000000000E+00  0.21398978662E+04  0.21398978662E+04  0.00000000000E+00 0. -1.
         -2   -1    0    0    0  501 -0.00000000000E+00 -0.00000000000E+00 -0.16875246325E+04  0.16875246325E+04  0.00000000000E+00 0.  1.
         23    2    1    2    0    0 -0.35422525322E+03 -0.82147817253E+03 -0.14608610567E+04  0.17153696186E+04  0.89866475557E+02 0.  0.
         13    1    3    3    0    0 -0.26243695505E+03 -0.53010531897E+03 -0.10177861011E+04  0.11771887496E+04  0.00000000000E+00 0.  1.
        -13    1    3    3    0    0 -0.91788298169E+02 -0.29137285357E+03 -0.44307495564E+03  0.53818086903E+03  0.00000000000E+00 0. -1.
         22    1    1    2    0    0  0.35422525322E+03  0.82147817253E+03  0.19132342905E+04  0.21120528801E+04  0.00000000000E+00 0. -1.
<mgrwt>
<rscale>  0 0.38005949E+04</rscale>
<asrwt>0</asrwt>
<pdfrwt beam="1">  1        2 0.32921506E+00 0.38005949E+04</pdfrwt>
<pdfrwt beam="2">  1       -2 0.25961917E+00 0.38005949E+04</pdfrwt>
<totfact> 0.25103077E-01</totfact>
</mgrwt>
</event>
<event>
 6    1  0.1014650E-006  0.1944261E+04  0.7818608E-02  0.8633133E-01
         -1   -1    0    0    0  501 -0.00000000000E+00  0.00000000000E+00  0.58266167527E+03  0.58266167527E+03  0.00000000000E+00 0.  1.
          1   -1    0    0  501    0  0.00000000000E+00 -0.00000000000E+00 -0.16219324435E+04  0.16219324435E+04  0.00000000000E+00 0. -1.
         23    2    1    2    0    0  0.44078191964E+03  0.69471068289E+03  0.61678877651E+02  0.83018451594E+03  0.92143436847E+02 0.  0.
         11    1    3    3    0    0  0.23726496224E+03  0.29949735907E+03  0.51369958152E+02  0.38552847236E+03  0.00000000000E+00 0. -1.
        -11    1    3    3    0    0  0.20351695740E+03  0.39521332382E+03  0.10308919499E+02  0.44465604359E+03  0.00000000000E+00 0.  1.
         22    1    1    2    0    0 -0.44078191964E+03 -0.69471068289E+03 -0.11009496459E+04  0.13744096029E+04  0.00000000000E+00 0. -1.
<mgrwt>
<rscale>  0 0.19442612E+04</rscale>
<asrwt>0</asrwt>
<pdfrwt beam="1">  1        1 0.24952807E+00 0.19442612E+04</pdfrwt>
<pdfrwt beam="2">  1       -1 0.89640258E-01 0.19442612E+04</pdfrwt>
<totfact> 0.61220068E+00</totfact>
</mgrwt>
</event>
<event>
 6    1  0.1014650E-006  0.2125914E+04  0.7818608E-02  0.8549913E-01
          2   -1    0    0  501    0  0.00000000000E+00  0.00000000000E+00  0.15944773948E+04  0.15944773948E+04  0.00000000000E+00 0. -1.
         -2   -1    0    0    0  501 -0.00000000000E+00 -0.00000000000E+00 -0.70861952698E+03  0.70861952698E+03  0.00000000000E+00 0.  1.
         23    2    1    2    0    0  0.59709766010E+03 -0.84575559494E+03  0.69489689804E+03  0.12503413784E+04  0.92971617226E+02 0.  0.
         11    1    3    3    0    0  0.17941211736E+03 -0.24560406722E+03  0.25590670354E+03  0.39749000818E+03  0.00000000000E+00 0.  1.
        -11    1    3    3    0    0  0.41768554274E+03 -0.60015152773E+03  0.43899019449E+03  0.85285137023E+03  0.00000000000E+00 0. -1.
         22    1    1    2    0    0 -0.59709766010E+03  0.84575559494E+03  0.19096096977E+03  0.10527555433E+04  0.00000000000E+00 0.  1.
<mgrwt>
<rscale>  0 0.21259142E+04</rscale>
<asrwt>0</asrwt>
<pdfrwt beam="1">  1        2 0.24530421E+00 0.21259142E+04</pdfrwt>
<pdfrwt beam="2">  1       -2 0.10901839E+00 0.21259142E+04</pdfrwt>
<totfact> 0.69358131E+00</totfact>
</mgrwt>
</event>
<event>
 6    1  0.1014650E-006  0.1044434E+04  0.7818608E-02  0.9261109E-01
          2   -1    0    0  501    0  0.00000000000E+00  0.00000000000E+00  0.17813278781E+04  0.17813278781E+04  0.00000000000E+00 0. -1.
         -2   -1    0    0    0  501 -0.00000000000E+00 -0.00000000000E+00 -0.15309400425E+03  0.15309400425E+03  0.00000000000E+00 0.  1.
         23    2    1    2    0    0  0.19581822200E+03 -0.40452320530E+03  0.12973745416E+04  0.13763433059E+04  0.95689053651E+02 0.  0.
         13    1    3    3    0    0  0.92206813286E+02 -0.94302189021E+02  0.34318611438E+03  0.36765705266E+03  0.00000000000E+00 0. -1.
        -13    1    3    3    0    0  0.10361140871E+03 -0.31022101628E+03  0.95418842719E+03  0.10086862533E+04  0.00000000000E+00 0.  1.
         22    1    1    2    0    0 -0.19581822200E+03  0.40452320530E+03  0.33085933225E+03  0.55807857640E+03  0.00000000000E+00 0.  1.
<mgrwt>
<rscale>  0 0.10444340E+04</rscale>
<asrwt>0</asrwt>
<pdfrwt beam="1">  1        2 0.27405043E+00 0.10444340E+04</pdfrwt>
<pdfrwt beam="2">  1       -2 0.23552925E-01 0.10444340E+04</pdfrwt>
<totfact> 0.14075377E+02</totfact>
</mgrwt>
</event>
<event>
 6    1  0.1014650E-006  0.8977204E+03  0.7818608E-02  0.9428435E-01
         -1   -1    0    0    0  501 -0.00000000000E+00  0.00000000000E+00  0.11763640549E+03  0.11763640549E+03  0.00000000000E+00 0.  1.
          1   -1    0    0  501    0  0.00000000000E+00 -0.00000000000E+00 -0.17126967634E+04  0.17126967634E+04  0.00000000000E+00 0. -1.
         23    2    1    2    0    0  0.13489036352E+03 -0.42187596278E+03 -0.86202542772E+03  0.97387829732E+03  0.95793328725E+02 0.  0.
         11    1    3    3    0    0  0.96420023017E+02 -0.20344277361E+03 -0.51458886417E+03  0.56168272370E+03  0.00000000000E+00 0. -1.
        -11    1    3    3    0    0  0.38470340506E+02 -0.21843318917E+03 -0.34743656355E+03  0.41219557362E+03  0.00000000000E+00 0.  1.
         22    1    1    2    0    0 -0.13489036352E+03  0.42187596278E+03 -0.73303493020E+03  0.85645487157E+03  0.00000000000E+00 0. -1.
<mgrwt>
<rscale>  0 0.89772043E+03</rscale>
<asrwt>0</asrwt>
<pdfrwt beam="1">  1        1 0.26349179E+00 0.89772043E+03</pdfrwt>
<pdfrwt beam="2">  1       -1 0.18097910E-01 0.89772043E+03</pdfrwt>
<totfact> 0.11418892E+02</totfact>
</mgrwt>
</event>
<event>
 6    1  0.1014650E-006  0.1500507E+04  0.7818608E-02  0.8884116E-01
          2   -1    0    0  501    0  0.00000000000E+00  0.00000000000E+00  0.63411257080E+03  0.63411257080E+03  0.00000000000E+00 0. -1.
         -2   -1    0    0    0  501 -0.00000000000E+00 -0.00000000000E+00 -0.88766641292E+03  0.88766641292E+03  0.00000000000E+00 0.  1.
         23    2    1    2    0    0 -0.36438711793E+03 -0.59767194919E+03 -0.39190461347E+03  0.80824505566E+03  0.98392648987E+02 0.  0.
         13    1    3    3    0    0 -0.20890859286E+03 -0.37796976688E+03 -0.19014344305E+03  0.47186700858E+03  0.00000000000E+00 0.  1.
        -13    1    3    3    0    0 -0.15547852507E+03 -0.21970218230E+03 -0.20176117042E+03  0.33637804708E+03  0.00000000000E+00 0. -1.
         22    1    1    2    0    0  0.36438711793E+03  0.59767194919E+03  0.13835077136E+03  0.71353392806E+03  0.00000000000E+00 0. -1.
<mgrwt>
<rscale>  0 0.15005072E+04</rscale>
<asrwt>0</asrwt>
<pdfrwt beam="1">  1        2 0.97555780E-01 0.15005072E+04</pdfrwt>
<pdfrwt beam="2">  1       -2 0.13656406E+00 0.15005072E+04</pdfrwt>
<totfact> 0.17147691E+01</totfact>
</mgrwt>
</event>
<event>
 6    1  0.1014650E-006  0.2718061E+04  0.7818608E-02  0.8329168E-01
          1   -1    0    0  501    0  0.00000000000E+00  0.00000000000E+00  0.25863316796E+04  0.25863316796E+04  0.00000000000E+00 0. -1.
         -1   -1    0    0    0  501 -0.00000000000E+00 -0.00000000000E+00 -0.71412500978E+03  0.71412500978E+03  0.00000000000E+00 0.  1.
         23    2    1    2    0    0 -0.26978376615E+03 -0.80936023830E+03  0.22193216435E+04  0.23794050727E+04  0.91283442029E+02 0.  0.
         13    1    3    3    0    0 -0.16479288655E+03 -0.41744004419E+03  0.10582151655E+04  0.11494486602E+04  0.00000000000E+00 0.  1.
        -13    1    3    3    0    0 -0.10499087960E+03 -0.39192019411E+03  0.11611064779E+04  0.12299564124E+04  0.00000000000E+00 0. -1.
         22    1    1    2    0    0  0.26978376615E+03  0.80936023830E+03 -0.34711497361E+03  0.92105161676E+03  0.00000000000E+00 0.  1.
<mgrwt>
<rscale>  0 0.27180612E+04</rscale>
<asrwt>0</asrwt>
<pdfrwt beam="1">  1        1 0.39789718E+00 0.27180612E+04</pdfrwt>
<pdfrwt beam="2">  1       -1 0.10986539E+00 0.27180612E+04</pdfrwt>
<totfact> 0.78670007E-01</totfact>
</mgrwt>
</event>
<event>
 6    1  0.1014650E-006  0.2447280E+04  0.7818608E-02  0.8422012E-01
          2   -1    0    0  501    0  0.00000000000E+00  0.00000000000E+00  0.68501916927E+03  0.68501916927E+03  0.00000000000E+00 0. -1.
         -2   -1    0    0    0  501 -0.00000000000E+00 -0.00000000000E+00 -0.21857714292E+04  0.21857714292E+04  0.00000000000E+00 0.  1.
         23    2    1    2    0    0 -0.54424467490E+02  0.34288632972E+03 -0.21257864578E+04  0.21558075173E+04  0.89470274465E+02 0.  0.
         11    1    3    3    0    0 -0.35006006452E+02  0.11362732399E+03 -0.97693305996E+03  0.98414165285E+03  0.00000000000E+00 0.  1.
        -11    1    3    3    0    0 -0.19418461038E+02  0.22925900573E+03 -0.11488533978E+04  0.11716658645E+04  0.00000000000E+00 0. -1.
         22    1    1    2    0    0  0.54424467490E+02 -0.34288632972E+03  0.62503419787E+03  0.71498308111E+03  0.00000000000E+00 0. -1.
<mgrwt>
<rscale>  0 0.24472804E+04</rscale>
<asrwt>0</asrwt>
<pdfrwt beam="1">  1        2 0.10538756E+00 0.24472804E+04</pdfrwt>
<pdfrwt beam="2">  1       -2 0.33627253E+00 0.24472804E+04</pdfrwt>
<totfact> 0.71600500E-01</totfact>
</mgrwt>
</event>
<event>
 6    1  0.1014650E-006  0.4859481E+04  0.7818608E-02  0.7850557E-01
          2   -1    0    0  501    0  0.00000000000E+00  0.00000000000E+00  0.24640307759E+04  0.24640307759E+04  0.00000000000E+00 0. -1.
         -2   -1    0    0    0  501 -0.00000000000E+00 -0.00000000000E+00 -0.23959278447E+04  0.23959278447E+04  0.00000000000E+00 0.  1.
         23    2    1    2    0    0 -0.45832450143E+03  0.94988582633E+03 -0.21542154286E+04  0.24000717688E+04  0.85766841620E+02 0.  0.
         11    1    3    3    0    0 -0.75216690962E+02  0.11779347703E+03 -0.23437240254E+03  0.27287960147E+03  0.00000000000E+00 0.  1.
        -11    1    3    3    0    0 -0.38310781047E+03  0.83209234930E+03 -0.19198430260E+04  0.21271921673E+04  0.00000000000E+00 0. -1.
         22    1    1    2    0    0  0.45832450143E+03 -0.94988582633E+03  0.22223183597E+04  0.24598868518E+04  0.00000000000E+00 0. -1.
<mgrwt>
<rscale>  0 0.48594814E+04</rscale>
<asrwt>0</asrwt>
<pdfrwt beam="1">  1        2 0.37908166E+00 0.48594814E+04</pdfrwt>
<pdfrwt beam="2">  1       -2 0.36860428E+00 0.48594814E+04</pdfrwt>
<totfact> 0.31868775E-02</totfact>
</mgrwt>
</event>
<event>
 6    1  0.1014650E-006  0.2274144E+04  0.7818608E-02  0.8488186E-01
          1   -1    0    0  501    0  0.00000000000E+00  0.00000000000E+00  0.15519294637E+04  0.15519294637E+04  0.00000000000E+00 0. -1.
         -1   -1    0    0    0  501 -0.00000000000E+00 -0.00000000000E+00 -0.83311278614E+03  0.83311278614E+03  0.00000000000E+00 0.  1.
         23    2    1    2    0    0 -0.89413268754E+03 -0.44197867285E+03  0.92856869614E+03  0.13658198406E+04  0.91682078217E+02 0.  0.
         11    1    3    3    0    0 -0.46228282072E+03 -0.17746695622E+03  0.46274757984E+03  0.67774276059E+03  0.00000000000E+00 0. -1.
        -11    1    3    3    0    0 -0.43184986682E+03 -0.26451171663E+03  0.46582111630E+03  0.68807708006E+03  0.00000000000E+00 0.  1.
         22    1    1    2    0    0  0.89413268754E+03  0.44197867285E+03 -0.20975201854E+03  0.10192224092E+04  0.00000000000E+00 0.  1.
<mgrwt>
<rscale>  0 0.22741436E+04</rscale>
<asrwt>0</asrwt>
<pdfrwt beam="1">  1        1 0.23875838E+00 0.22741436E+04</pdfrwt>
<pdfrwt beam="2">  1       -1 0.12817120E+00 0.22741436E+04</pdfrwt>
<totfact> 0.28673646E+00</totfact>
</mgrwt>
</event>
<event>
 6    1  0.1014650E-006  0.1094185E+04  0.7818608E-02  0.9210878E-01
         -2   -1    0    0    0  501 -0.00000000000E+00  0.00000000000E+00  0.22514138844E+03  0.22514138844E+03  0.00000000000E+00 0.  1.
          2   -1    0    0  501    0  0.00000000000E+00 -0.00000000000E+00 -0.13294331697E+04  0.13294331697E+04  0.00000000000E+00 0. -1.
         23    2    1    2    0    0 -0.29343125952E+03  0.12744050835E+03  0.67676551517E+02  0.33972775287E+03  0.92151197590E+02 0.  0.
         11    1    3    3    0    0 -0.20904343729E+02  0.37762845439E+02  0.24393166069E+02  0.49578731663E+02  0.00000000000E+00 0. -1.
        -11    1    3    3    0    0 -0.27252691579E+03  0.89677662915E+02  0.43283385447E+02  0.29014902121E+03  0.00000000000E+00 0.  1.
         22    1    1    2    0    0  0.29343125952E+03 -0.12744050835E+03 -0.11719683328E+04  0.12148468053E+04  0.00000000000E+00 0. -1.
<mgrwt>
<rscale>  0 0.10941854E+04</rscale>
<asrwt>0</asrwt>
<pdfrwt beam="1">  1        2 0.20452818E+00 0.10941854E+04</pdfrwt>
<pdfrwt beam="2">  1       -2 0.34637137E-01 0.10941854E+04</pdfrwt>
<totfact> 0.12323317E+02</totfact>
</mgrwt>
</event>
<event>
 6    1  0.1014650E-006  0.3536829E+04  0.7818608E-02  0.8105117E-01
          2   -1    0    0  501    0  0.00000000000E+00  0.00000000000E+00  0.33963922650E+04  0.33963922650E+04  0.00000000000E+00 0. -1.
         -2   -1    0    0    0  501 -0.00000000000E+00 -0.00000000000E+00 -0.92076809901E+03  0.92076809901E+03  0.00000000000E+00 0.  1.
         23    2    1    2    0    0  0.52587896910E+03 -0.96440877893E+03 -0.45104359563E+03  0.11911377841E+04  0.93466103864E+02 0.  0.
         11    1    3    3    0    0  0.38295082611E+03 -0.63958003216E+03 -0.33956487080E+03  0.81915703881E+03  0.00000000000E+00 0. -1.
        -11    1    3    3    0    0  0.14292814299E+03 -0.32482874678E+03 -0.11147872484E+03  0.37198074531E+03  0.00000000000E+00 0.  1.
         22    1    1    2    0    0 -0.52587896910E+03  0.96440877893E+03  0.29266677616E+04  0.31260225799E+04  0.00000000000E+00 0. -1.
<mgrwt>
<rscale>  0 0.35368289E+04</rscale>
<asrwt>0</asrwt>
<pdfrwt beam="1">  1        2 0.52252188E+00 0.35368289E+04</pdfrwt>
<pdfrwt beam="2">  1       -2 0.14165663E+00 0.35368289E+04</pdfrwt>
<totfact> 0.27322169E-01</totfact>
</mgrwt>
</event>
<event>
 6    1  0.1014650E-006  0.3825452E+04  0.7818608E-02  0.8040715E-01
          2   -1    0    0  501    0  0.00000000000E+00  0.00000000000E+00  0.21182930816E+04  0.21182930816E+04  0.00000000000E+00 0. -1.
         -2   -1    0    0    0  501 -0.00000000000E+00 -0.00000000000E+00 -0.17271078801E+04  0.17271078801E+04  0.00000000000E+00 0.  1.
         23    2    1    2    0    0 -0.28215280055E+03 -0.18634004499E+04 -0.12635932192E+03  0.18909895994E+04  0.89462545985E+02 0.  0.
         13    1    3    3    0    0 -0.24326958251E+03 -0.15188546230E+04 -0.13520604719E+03  0.15441438181E+04  0.00000000000E+00 0.  1.
        -13    1    3    3    0    0 -0.38883218039E+02 -0.34454582687E+03  0.88467252704E+01  0.34684578130E+03  0.00000000000E+00 0. -1.
         22    1    1    2    0    0  0.28215280055E+03  0.18634004499E+04  0.51754452349E+03  0.19544113623E+04  0.00000000000E+00 0. -1.
<mgrwt>
<rscale>  0 0.38254520E+04</rscale>
<asrwt>0</asrwt>
<pdfrwt beam="1">  1        2 0.32589124E+00 0.38254520E+04</pdfrwt>
<pdfrwt beam="2">  1       -2 0.26570890E+00 0.38254520E+04</pdfrwt>
<totfact> 0.23643335E-01</totfact>
</mgrwt>
</event>
<event>
 6    1  0.1014650E-006  0.1998314E+04  0.7818608E-02  0.8607409E-01
          2   -1    0    0  501    0  0.00000000000E+00  0.00000000000E+00  0.85605722756E+03  0.85605722756E+03  0.00000000000E+00 0. -1.
         -2   -1    0    0    0  501 -0.00000000000E+00 -0.00000000000E+00 -0.11661775383E+04  0.11661775383E+04  0.00000000000E+00 0.  1.
         23    2    1    2    0    0  0.90237487775E+03  0.39723177919E+03 -0.55898329163E+01  0.99033732989E+03  0.93076712205E+02 0.  0.
         11    1    3    3    0    0  0.26674443510E+03  0.12257082764E+03 -0.44009474371E+02  0.29683839927E+03  0.00000000000E+00 0. -1.
        -11    1    3    3    0    0  0.63563044265E+03  0.27466095156E+03  0.38419641455E+02  0.69349893063E+03  0.00000000000E+00 0.  1.
         22    1    1    2    0    0 -0.90237487775E+03 -0.39723177919E+03 -0.30453047779E+03  0.10318974359E+04  0.00000000000E+00 0.  1.
<mgrwt>
<rscale>  0 0.19983140E+04</rscale>
<asrwt>0</asrwt>
<pdfrwt beam="1">  1        2 0.13170111E+00 0.19983140E+04</pdfrwt>
<pdfrwt beam="2">  1       -2 0.17941193E+00 0.19983140E+04</pdfrwt>
<totfact> 0.53434087E+00</totfact>
</mgrwt>
</event>
<event>
 6    1  0.1014650E-006  0.1749613E+04  0.7818608E-02  0.8733563E-01
         -2   -1    0    0    0  501 -0.00000000000E+00  0.00000000000E+00  0.65442644234E+03  0.65442644234E+03  0.00000000000E+00 0.  1.
          2   -1    0    0  501    0  0.00000000000E+00 -0.00000000000E+00 -0.11694002268E+04  0.11694002268E+04  0.00000000000E+00 0. -1.
         23    2    1    2    0    0 -0.82800999325E+03  0.17424295109E+03 -0.48036784132E+03  0.97697442335E+03  0.88117001632E+02 0.  0.
         11    1    3    3    0    0 -0.76608523690E+03  0.15537087200E+03 -0.46798703339E+03  0.91106452104E+03  0.00000000000E+00 0.  1.
        -11    1    3    3    0    0 -0.61924756344E+02  0.18872079090E+02 -0.12380807923E+02  0.65909902309E+02  0.00000000000E+00 0. -1.
         22    1    1    2    0    0  0.82800999325E+03 -0.17424295109E+03 -0.34605943154E+02  0.84685224581E+03  0.00000000000E+00 0. -1.
<mgrwt>
<rscale>  0 0.17496130E+04</rscale>
<asrwt>0</asrwt>
<pdfrwt beam="1">  1        2 0.17990772E+00 0.17496130E+04</pdfrwt>
<pdfrwt beam="2">  1       -2 0.10068099E+00 0.17496130E+04</pdfrwt>
<totfact> 0.15226074E+01</totfact>
</mgrwt>
</event>
<event>
 6    1  0.1014650E-006  0.4685525E+04  0.7818608E-02  0.7878938E-01
          2   -1    0    0  501    0  0.00000000000E+00  0.00000000000E+00  0.50302745050E+04  0.50302745050E+04  0.00000000000E+00 0. -1.
         -2   -1    0    0    0  501 -0.00000000000E+00 -0.00000000000E+00 -0.10911007673E+04  0.10911007673E+04  0.00000000000E+00 0.  1.
         23    2    1    2    0    0  0.76048580272E+03 -0.10155963838E+04 -0.60137928527E+03  0.14068873441E+04  0.88883537979E+02 0.  0.
         13    1    3    3    0    0  0.52601278227E+03 -0.75872247103E+03 -0.45964023594E+03  0.10313187585E+04  0.00000000000E+00 0.  1.
        -13    1    3    3    0    0  0.23447302045E+03 -0.25687391275E+03 -0.14173904933E+03  0.37556858559E+03  0.00000000000E+00 0. -1.
         22    1    1    2    0    0 -0.76048580272E+03  0.10155963838E+04  0.45405530230E+04  0.47144879283E+04  0.00000000000E+00 0. -1.
<mgrwt>
<rscale>  0 0.46855251E+04</rscale>
<asrwt>0</asrwt>
<pdfrwt beam="1">  1        2 0.77388837E+00 0.46855251E+04</pdfrwt>
<pdfrwt beam="2">  1       -2 0.16786166E+00 0.46855251E+04</pdfrwt>
<totfact> 0.50911043E-03</totfact>
</mgrwt>
</event>
<event>
 6    1  0.1014650E-006  0.2860460E+04  0.7818608E-02  0.8284740E-01
         -2   -1    0    0    0  501 -0.00000000000E+00  0.00000000000E+00  0.10226857921E+04  0.10226857921E+04  0.00000000000E+00 0.  1.
          2   -1    0    0  501    0  0.00000000000E+00 -0.00000000000E+00 -0.20001826684E+04  0.20001826684E+04  0.00000000000E+00 0. -1.
         23    2    1    2    0    0  0.35335818993E+03 -0.59322923033E+03  0.83269155106E+03  0.10854565083E+04  0.89764592747E+02 0.  0.
         13    1    3    3    0    0  0.29706973974E+02 -0.14134513250E+02  0.38402371075E+02  0.50567092775E+02  0.00000000000E+00 0.  1.
        -13    1    3    3    0    0  0.32365121595E+03 -0.57909471708E+03  0.79428917998E+03  0.10348894155E+04  0.00000000000E+00 0. -1.
         22    1    1    2    0    0 -0.35335818993E+03  0.59322923033E+03 -0.18101884273E+04  0.19374119522E+04  0.00000000000E+00 0. -1.
<mgrwt>
<rscale>  0 0.28604604E+04</rscale>
<asrwt>0</asrwt>
<pdfrwt beam="1">  1        2 0.30772041E+00 0.28604604E+04</pdfrwt>
<pdfrwt beam="2">  1       -2 0.15733627E+00 0.28604604E+04</pdfrwt>
<totfact> 0.15249833E+00</totfact>
</mgrwt>
</event>
<event>
 6    1  0.1411695E-006  0.2308486E+04  0.7818608E-02  0.8474583E-01
          2   -1    0    0  501    0  0.00000000000E+00  0.00000000000E+00  0.15924338373E+04  0.15924338373E+04  0.00000000000E+00 0. -1.
         -2   -1    0    0    0  501 -0.00000000000E+00 -0.00000000000E+00 -0.83662967782E+03  0.83662967782E+03  0.00000000000E+00 0.  1.
         23    2    1    2    0    0  0.60917116732E+03  0.20086862263E+03  0.13859281210E+04  0.15299006147E+04  0.91440798650E+02 0.  0.
         11    1    3    3    0    0  0.25360929839E+03  0.98647410531E+02  0.69051996892E+03  0.74220402539E+03  0.00000000000E+00 0.  1.
        -11    1    3    3    0    0  0.35556186892E+03  0.10222121210E+03  0.69540815208E+03  0.78769658931E+03  0.00000000000E+00 0. -1.
         22    1    1    2    0    0 -0.60917116732E+03 -0.20086862263E+03 -0.63012396150E+03  0.89916290043E+03  0.00000000000E+00 0.  1.
<mgrwt>
<rscale>  0 0.23084864E+04</rscale>
<asrwt>0</asrwt>
<pdfrwt beam="1">  1        2 0.24498982E+00 0.23084864E+04</pdfrwt>
<pdfrwt beam="2">  1       -2 0.12871226E+00 0.23084864E+04</pdfrwt>
<totfact> 0.45447997E+00</totfact>
</mgrwt>
</event>
<event>
 6    1  0.1014650E-006  0.8725620E+04  0.7818608E-02  0.7421678E-01
          1   -1    0    0  501    0  0.00000000000E+00  0.00000000000E+00  0.38946471633E+04  0.38946471633E+04  0.00000000000E+00 0. -1.
         -1   -1    0    0    0  501 -0.00000000000E+00 -0.00000000000E+00 -0.48872493417E+04  0.48872493417E+04  0.00000000000E+00 0.  1.
         23    2    1    2    0    0 -0.39506343985E+04 -0.17789405846E+03 -0.23495893689E+04  0.46009190258E+04  0.93419657379E+02 0.  0.
         11    1    3    3    0    0 -0.25295309094E+04 -0.15246685063E+03 -0.14786049236E+04  0.29339470483E+04  0.00000000000E+00 0.  1.
        -11    1    3    3    0    0 -0.14211034891E+04 -0.25427207822E+02 -0.87098444527E+03  0.16669719775E+04  0.00000000000E+00 0. -1.
         22    1    1    2    0    0  0.39506343985E+04  0.17789405846E+03  0.13569871904E+04  0.41809774793E+04  0.00000000000E+00 0. -1.
<mgrwt>
<rscale>  0 0.87256202E+04</rscale>
<asrwt>0</asrwt>
<pdfrwt beam="1">  1        1 0.59917649E+00 0.87256202E+04</pdfrwt>
<pdfrwt beam="2">  1       -1 0.75188451E+00 0.87256202E+04</pdfrwt>
<totfact> 0.82905723E-06</totfact>
</mgrwt>
</event>
<event>
 6    1  0.1014650E-006  0.2498105E+04  0.7818608E-02  0.8403661E-01
          2   -1    0    0  501    0  0.00000000000E+00  0.00000000000E+00  0.24266148163E+04  0.24266148163E+04  0.00000000000E+00 0. -1.
         -2   -1    0    0    0  501 -0.00000000000E+00 -0.00000000000E+00 -0.64292522737E+03  0.64292522737E+03  0.00000000000E+00 0.  1.
         23    2    1    2    0    0 -0.11346768688E+04  0.22940576478E+03  0.14640316737E+04  0.18685821825E+04  0.89955708555E+02 0.  0.
         11    1    3    3    0    0 -0.92546485157E+03  0.15307260884E+03  0.12017563365E+04  0.15245113012E+04  0.00000000000E+00 0.  1.
        -11    1    3    3    0    0 -0.20921201728E+03  0.76333155939E+02  0.26227533718E+03  0.34407088131E+03  0.00000000000E+00 0. -1.
         22    1    1    2    0    0  0.11346768688E+04 -0.22940576478E+03  0.31965791525E+03  0.12009578612E+04  0.00000000000E+00 0.  1.
<mgrwt>
<rscale>  0 0.24981048E+04</rscale>
<asrwt>0</asrwt>
<pdfrwt beam="1">  1        2 0.37332535E+00 0.24981048E+04</pdfrwt>
<pdfrwt beam="2">  1       -2 0.98911575E-01 0.24981048E+04</pdfrwt>
<totfact> 0.29015849E+00</totfact>
</mgrwt>
</event>
<event>
 6    1  0.1014650E-006  0.3682271E+04  0.7818608E-02  0.8071902E-01
          1   -1    0    0  501    0  0.00000000000E+00  0.00000000000E+00  0.20312631703E+04  0.20312631703E+04  0.00000000000E+00 0. -1.
         -1   -1    0    0    0  501 -0.00000000000E+00 -0.00000000000E+00 -0.16688039490E+04  0.16688039490E+04  0.00000000000E+00 0.  1.
         23    2    1    2    0    0  0.16892215407E+04 -0.42376398710E+03 -0.41330840389E+03  0.17935360447E+04  0.11358862936E+03 0.  0.
         13    1    3    3    0    0  0.10137362588E+04 -0.29456242145E+03 -0.20961659506E+03  0.10762747509E+04  0.00000000000E+00 0. -1.
        -13    1    3    3    0    0  0.67548528187E+03 -0.12920156566E+03 -0.20369180884E+03  0.71726129379E+03  0.00000000000E+00 0.  1.
         22    1    1    2    0    0 -0.16892215407E+04  0.42376398710E+03  0.77576762516E+03  0.19065310746E+04  0.00000000000E+00 0. -1.
<mgrwt>
<rscale>  0 0.36822710E+04</rscale>
<asrwt>0</asrwt>
<pdfrwt beam="1">  1        1 0.31250202E+00 0.36822710E+04</pdfrwt>
<pdfrwt beam="2">  1       -1 0.25673907E+00 0.36822710E+04</pdfrwt>
<totfact> 0.14367960E-01</totfact>
</mgrwt>
</event>
<event>
 6    1  0.1014650E-006  0.4617610E+04  0.7818608E-02  0.7890364E-01
         -3   -1    0    0    0  501 -0.00000000000E+00  0.00000000000E+00  0.40821497066E+04  0.40821497066E+04  0.00000000000E+00 0.  1.
          3   -1    0    0  501    0  0.00000000000E+00 -0.00000000000E+00 -0.13058269145E+04  0.13058269145E+04  0.00000000000E+00 0. -1.
         23    2    1    2    0    0  0.33156431957E+03  0.22232584611E+04  0.77842310396E+03  0.23805830241E+04  0.91760137734E+02 0.  0.
         11    1    3    3    0    0  0.20339130478E+03  0.16234558975E+04  0.58120123641E+03  0.17363098661E+04  0.00000000000E+00 0. -1.
        -11    1    3    3    0    0  0.12817301478E+03  0.59980256362E+03  0.19722186755E+03  0.64427315797E+03  0.00000000000E+00 0.  1.
         22    1    1    2    0    0 -0.33156431957E+03 -0.22232584611E+04  0.19978996881E+04  0.30073935969E+04  0.00000000000E+00 0.  1.
<mgrwt>
<rscale>  0 0.46176102E+04</rscale>
<asrwt>0</asrwt>
<pdfrwt beam="1">  1        3 0.20089645E+00 0.46176102E+04</pdfrwt>
<pdfrwt beam="2">  1       -3 0.62802302E+00 0.46176102E+04</pdfrwt>
<totfact> 0.17853120E-04</totfact>
</mgrwt>
</event>
<event>
 6    1  0.1014650E-006  0.3164732E+04  0.7818608E-02  0.8198194E-01
         -3   -1    0    0    0  501 -0.00000000000E+00  0.00000000000E+00  0.11846932751E+04  0.11846932751E+04  0.00000000000E+00 0.  1.
          3   -1    0    0  501    0  0.00000000000E+00 -0.00000000000E+00 -0.21135281711E+04  0.21135281711E+04  0.00000000000E+00 0. -1.
         23    2    1    2    0    0 -0.16970172810E+03 -0.86789580218E+03 -0.18309038342E+04  0.20349834760E+04  0.83108949345E+02 0.  0.
         13    1    3    3    0    0 -0.11521272565E+03 -0.53038721108E+03 -0.12107034381E+04  0.13267959078E+04  0.00000000000E+00 0.  1.
        -13    1    3    3    0    0 -0.54489002447E+02 -0.33750859110E+03 -0.62020039609E+03  0.70818756821E+03  0.00000000000E+00 0. -1.
         22    1    1    2    0    0  0.16970172810E+03  0.86789580218E+03  0.90206893826E+03  0.12632379702E+04  0.00000000000E+00 0.  1.
<mgrwt>
<rscale>  0 0.31647323E+04</rscale>
<asrwt>0</asrwt>
<pdfrwt beam="1">  1        3 0.32515818E+00 0.31647323E+04</pdfrwt>
<pdfrwt beam="2">  1       -3 0.18226050E+00 0.31647323E+04</pdfrwt>
<totfact> 0.11757722E-02</totfact>
</mgrwt>
</event>
<event>
 6    1  0.1014650E-006  0.2668262E+04  0.7818608E-02  0.8345377E-01
         -2   -1    0    0    0  501 -0.00000000000E+00  0.00000000000E+00  0.60857111719E+03  0.60857111719E+03  0.00000000000E+00 0.  1.
          2   -1    0    0  501    0  0.00000000000E+00 -0.00000000000E+00 -0.29247289516E+04  0.29247289516E+04  0.00000000000E+00 0. -1.
         23    2    1    2    0    0 -0.12256017967E+03  0.27920659043E+03 -0.28771917179E+04  0.28947577161E+04  0.91720967973E+02 0.  0.
         13    1    3    3    0    0 -0.49634158830E+02  0.17537138097E+03 -0.20229523349E+04  0.20311461838E+04  0.00000000000E+00 0. -1.
        -13    1    3    3    0    0 -0.72926020843E+02  0.10383520946E+03 -0.85423938301E+03  0.86361153230E+03  0.00000000000E+00 0.  1.
         22    1    1    2    0    0  0.12256017967E+03 -0.27920659043E+03  0.56103388344E+03  0.63854235267E+03  0.00000000000E+00 0.  1.
<mgrwt>
<rscale>  0 0.26682620E+04</rscale>
<asrwt>0</asrwt>
<pdfrwt beam="1">  1        2 0.44995830E+00 0.26682620E+04</pdfrwt>
<pdfrwt beam="2">  1       -2 0.93626326E-01 0.26682620E+04</pdfrwt>
<totfact> 0.16446871E+00</totfact>
</mgrwt>
</event>
<event>
 6    1  0.1014650E-006  0.6933414E+03  0.7818608E-02  0.9728687E-01
          2   -1    0    0  501    0  0.00000000000E+00  0.00000000000E+00  0.62113950982E+03  0.62113950982E+03  0.00000000000E+00 0. -1.
         -2   -1    0    0    0  501 -0.00000000000E+00 -0.00000000000E+00 -0.19348404825E+03  0.19348404825E+03  0.00000000000E+00 0.  1.
         23    2    1    2    0    0 -0.17238007177E+03 -0.27884560920E+03  0.11012018952E+03  0.35822634960E+03  0.93433925804E+02 0.  0.
         13    1    3    3    0    0 -0.14813309160E+03 -0.22784222873E+03  0.51074040892E+02  0.27652134036E+03  0.00000000000E+00 0.  1.
        -13    1    3    3    0    0 -0.24246980173E+02 -0.51003380469E+02  0.59046148632E+02  0.81705009241E+02  0.00000000000E+00 0. -1.
         22    1    1    2    0    0  0.17238007177E+03  0.27884560920E+03  0.31753527205E+03  0.45639720848E+03  0.00000000000E+00 0. -1.
<mgrwt>
<rscale>  0 0.69334144E+03</rscale>
<asrwt>0</asrwt>
<pdfrwt beam="1">  1        2 0.95559924E-01 0.69334144E+03</pdfrwt>
<pdfrwt beam="2">  1       -2 0.29766777E-01 0.69334144E+03</pdfrwt>
<totfact> 0.49769601E+02</totfact>
</mgrwt>
</event>
<event>
 6    1  0.1014650E-006  0.5197349E+03  0.7818608E-02  0.1008752E+00
          1   -1    0    0  501    0  0.00000000000E+00  0.00000000000E+00  0.14242604992E+03  0.14242604992E+03  0.00000000000E+00 0. -1.
         -1   -1    0    0    0  501 -0.00000000000E+00 -0.00000000000E+00 -0.47414840451E+03  0.47414840451E+03  0.00000000000E+00 0.  1.
         23    2    1    2    0    0  0.13388334662E+02  0.51210968252E+02 -0.46308847815E+03  0.47494511710E+03  0.91214663782E+02 0.  0.
         11    1    3    3    0    0  0.40733463671E+02  0.19316732090E+01 -0.10858628890E+03  0.11599107104E+03  0.00000000000E+00 0. -1.
        -11    1    3    3    0    0 -0.27345129009E+02  0.49279295043E+02 -0.35450218925E+03  0.35895404606E+03  0.00000000000E+00 0.  1.
         22    1    1    2    0    0 -0.13388334662E+02 -0.51210968252E+02  0.13136612356E+03  0.14162933733E+03  0.00000000000E+00 0. -1.
<mgrwt>
<rscale>  0 0.51973487E+03</rscale>
<asrwt>0</asrwt>
<pdfrwt beam="1">  1        1 0.21911700E-01 0.51973487E+03</pdfrwt>
<pdfrwt beam="2">  1       -1 0.72945907E-01 0.51973487E+03</pdfrwt>
<totfact> 0.44616074E+02</totfact>
</mgrwt>
</event>
<event>
 6    1  0.1014650E-006  0.1933091E+04  0.7818608E-02  0.8638558E-01
          2   -1    0    0  501    0  0.00000000000E+00  0.00000000000E+00  0.19174541750E+04  0.19174541750E+04  0.00000000000E+00 0. -1.
         -2   -1    0    0    0  501 -0.00000000000E+00 -0.00000000000E+00 -0.48721399546E+03  0.48721399546E+03  0.00000000000E+00 0.  1.
         23    2    1    2    0    0 -0.48888402216E+03 -0.58712591311E+03 -0.15538778717E+02  0.76943081120E+03  0.89765776463E+02 0.  0.
         11    1    3    3    0    0 -0.16837763313E+03 -0.27118734939E+03 -0.91803532143E+01  0.31933976372E+03  0.00000000000E+00 0.  1.
        -11    1    3    3    0    0 -0.32050638903E+03 -0.31593856372E+03 -0.63584255026E+01  0.45009104748E+03  0.00000000000E+00 0. -1.
         22    1    1    2    0    0  0.48888402216E+03  0.58712591311E+03  0.14457789583E+04  0.16352373593E+04  0.00000000000E+00 0. -1.
<mgrwt>
<rscale>  0 0.19330913E+04</rscale>
<asrwt>0</asrwt>
<pdfrwt beam="1">  1        2 0.29499295E+00 0.19330913E+04</pdfrwt>
<pdfrwt beam="2">  1       -2 0.74956000E-01 0.19330913E+04</pdfrwt>
<totfact> 0.11089475E+01</totfact>
</mgrwt>
</event>
<event>
 6    1  0.1014650E-006  0.4687176E+04  0.7818608E-02  0.7878663E-01
          2   -1    0    0  501    0  0.00000000000E+00  0.00000000000E+00  0.30150214450E+04  0.30150214450E+04  0.00000000000E+00 0. -1.
         -2   -1    0    0    0  501 -0.00000000000E+00 -0.00000000000E+00 -0.18216797995E+04  0.18216797995E+04  0.00000000000E+00 0.  1.
         23    2    1    2    0    0 -0.16236378343E+04  0.31051175932E+02  0.23393427003E+04  0.28491191933E+04  0.88271828488E+02 0.  0.
         13    1    3    3    0    0 -0.88818798942E+03 -0.25753254218E+02  0.12961722489E+04  0.15714972585E+04  0.00000000000E+00 0.  1.
        -13    1    3    3    0    0 -0.73544984486E+03  0.56804430150E+02  0.10431704514E+04  0.12776219348E+04  0.00000000000E+00 0. -1.
         22    1    1    2    0    0  0.16236378343E+04 -0.31051175932E+02 -0.11460010548E+04  0.19875820512E+04  0.00000000000E+00 0.  1.
<mgrwt>
<rscale>  0 0.46871756E+04</rscale>
<asrwt>0</asrwt>
<pdfrwt beam="1">  1        2 0.46384945E+00 0.46871756E+04</pdfrwt>
<pdfrwt beam="2">  1       -2 0.28025843E+00 0.46871756E+04</pdfrwt>
<totfact> 0.53325778E-02</totfact>
</mgrwt>
</event>
<event>
 6    1  0.1014650E-006  0.2220567E+04  0.7818608E-02  0.8509916E-01
         -2   -1    0    0    0  501 -0.00000000000E+00  0.00000000000E+00  0.97777001958E+03  0.97777001958E+03  0.00000000000E+00 0.  1.
          2   -1    0    0  501    0  0.00000000000E+00 -0.00000000000E+00 -0.12607555206E+04  0.12607555206E+04  0.00000000000E+00 0. -1.
         23    2    1    2    0    0 -0.37231391959E+03  0.71150832672E+03 -0.91152647458E+03  0.12187581603E+04  0.98128414224E+02 0.  0.
         13    1    3    3    0    0 -0.47540625268E+02  0.74909798477E+02 -0.15104124674E+03  0.17517147934E+03  0.00000000000E+00 0. -1.
        -13    1    3    3    0    0 -0.32477329432E+03  0.63659852824E+03 -0.76048522784E+03  0.10435866809E+04  0.00000000000E+00 0.  1.
         22    1    1    2    0    0  0.37231391959E+03 -0.71150832672E+03  0.62854097355E+03  0.10197673799E+04  0.00000000000E+00 0.  1.
<mgrwt>
<rscale>  0 0.22205665E+04</rscale>
<asrwt>0</asrwt>
<pdfrwt beam="1">  1        2 0.19396239E+00 0.22205665E+04</pdfrwt>
<pdfrwt beam="2">  1       -2 0.15042616E+00 0.22205665E+04</pdfrwt>
<totfact> 0.47304936E+00</totfact>
</mgrwt>
</event>
<event>
 6    1  0.1215656E-006  0.2833433E+04  0.7818608E-02  0.8292963E-01
         -1   -1    0    0    0  501 -0.00000000000E+00  0.00000000000E+00  0.84022633115E+03  0.84022633115E+03  0.00000000000E+00 0.  1.
          1   -1    0    0  501    0  0.00000000000E+00 -0.00000000000E+00 -0.23887443474E+04  0.23887443474E+04  0.00000000000E+00 0. -1.
         23    2    1    2    0    0 -0.65595473988E+03  0.12528474508E+04 -0.83722081671E+03  0.16459839250E+04  0.91766169055E+02 0.  0.
         11    1    3    3    0    0 -0.29953634083E+03  0.53562745810E+03 -0.31437836556E+03  0.68953067378E+03  0.00000000000E+00 0.  1.
        -11    1    3    3    0    0 -0.35641839905E+03  0.71721999271E+03 -0.52284245115E+03  0.95645325126E+03  0.00000000000E+00 0. -1.
         22    1    1    2    0    0  0.65595473988E+03 -0.12528474508E+04 -0.71129719956E+03  0.15829867535E+04  0.00000000000E+00 0. -1.
<mgrwt>
<rscale>  0 0.28334332E+04</rscale>
<asrwt>0</asrwt>
<pdfrwt beam="1">  1        1 0.36749913E+00 0.28334332E+04</pdfrwt>
<pdfrwt beam="2">  1       -1 0.12926559E+00 0.28334332E+04</pdfrwt>
<totfact> 0.71801211E-01</totfact>
</mgrwt>
</event>
<event>
 6    1  0.1014650E-006  0.1973742E+04  0.7818608E-02  0.8618996E-01
          2   -1    0    0  501    0  0.00000000000E+00  0.00000000000E+00  0.12442342300E+04  0.12442342300E+04  0.00000000000E+00 0. -1.
         -2   -1    0    0    0  501 -0.00000000000E+00 -0.00000000000E+00 -0.78274192744E+03  0.78274192744E+03  0.00000000000E+00 0.  1.
         23    2    1    2    0    0 -0.86264467541E+03  0.23894993960E+03 -0.19044680632E+03  0.91960200597E+03  0.90249397159E+02 0.  0.
         13    1    3    3    0    0 -0.55552186731E+03  0.16669308745E+03 -0.16532626948E+03  0.60309527095E+03  0.00000000000E+00 0. -1.
        -13    1    3    3    0    0 -0.30712280810E+03  0.72256852149E+02 -0.25120536845E+02  0.31650673502E+03  0.00000000000E+00 0.  1.
         22    1    1    2    0    0  0.86264467541E+03 -0.23894993960E+03  0.65193910891E+03  0.11073741515E+04  0.00000000000E+00 0. -1.
<mgrwt>
<rscale>  0 0.19737419E+04</rscale>
<asrwt>0</asrwt>
<pdfrwt beam="1">  1        2 0.19142065E+00 0.19737419E+04</pdfrwt>
<pdfrwt beam="2">  1       -2 0.12042183E+00 0.19737419E+04</pdfrwt>
<totfact> 0.87381783E+00</totfact>
</mgrwt>
</event>
<event>
 6    1  0.1014650E-006  0.2385447E+04  0.7818608E-02  0.8444972E-01
         -2   -1    0    0    0  501 -0.00000000000E+00  0.00000000000E+00  0.39804226015E+03  0.39804226015E+03  0.00000000000E+00 0.  1.
          2   -1    0    0  501    0  0.00000000000E+00 -0.00000000000E+00 -0.35739667024E+04  0.35739667024E+04  0.00000000000E+00 0. -1.
         23    2    1    2    0    0 -0.65571445881E+02  0.11703509832E+04 -0.12391305239E+04  0.17081203344E+04  0.90606749772E+02 0.  0.
         11    1    3    3    0    0  0.11497723028E+02  0.60432286864E+03 -0.63698706765E+03  0.87811778911E+03  0.00000000000E+00 0. -1.
        -11    1    3    3    0    0 -0.77069168910E+02  0.56602811458E+03 -0.60214345623E+03  0.83000254528E+03  0.00000000000E+00 0.  1.
         22    1    1    2    0    0  0.65571445881E+02 -0.11703509832E+04 -0.19367939184E+04  0.22638886282E+04  0.00000000000E+00 0. -1.
<mgrwt>
<rscale>  0 0.23854474E+04</rscale>
<asrwt>0</asrwt>
<pdfrwt beam="1">  1        2 0.54984104E+00 0.23854474E+04</pdfrwt>
<pdfrwt beam="2">  1       -2 0.61237270E-01 0.23854474E+04</pdfrwt>
<totfact> 0.16131165E+00</totfact>
</mgrwt>
</event>
<event>
 6    1  0.1014650E-006  0.3072626E+04  0.7818608E-02  0.8223291E-01
         -1   -1    0    0    0  501 -0.00000000000E+00  0.00000000000E+00  0.10211995840E+04  0.10211995840E+04  0.00000000000E+00 0.  1.
          1   -1    0    0  501    0  0.00000000000E+00 -0.00000000000E+00 -0.23112592578E+04  0.23112592578E+04  0.00000000000E+00 0. -1.
         23    2    1    2    0    0  0.15026196833E+04 -0.23832903408E+03 -0.42502966489E+03  0.15823321157E+04  0.91967752320E+02 0.  0.
         11    1    3    3    0    0  0.98915967184E+03 -0.19952628904E+03 -0.29269458498E+03  0.10506748862E+04  0.00000000000E+00 0. -1.
        -11    1    3    3    0    0  0.51346001143E+03 -0.38802745035E+02 -0.13233507991E+03  0.53165722955E+03  0.00000000000E+00 0.  1.
         22    1    1    2    0    0 -0.15026196833E+04  0.23832903408E+03 -0.86503000885E+03  0.17501267260E+04  0.00000000000E+00 0. -1.
<mgrwt>
<rscale>  0 0.30726256E+04</rscale>
<asrwt>0</asrwt>
<pdfrwt beam="1">  1        1 0.35557834E+00 0.30726256E+04</pdfrwt>
<pdfrwt beam="2">  1       -1 0.15710763E+00 0.30726256E+04</pdfrwt>
<totfact> 0.47535351E-01</totfact>
</mgrwt>
</event>
<event>
 6    1  0.1014650E-006  0.2677634E+04  0.7818608E-02  0.8342299E-01
          1   -1    0    0  501    0  0.00000000000E+00  0.00000000000E+00  0.22448219805E+04  0.22448219805E+04  0.00000000000E+00 0. -1.
         -1   -1    0    0    0  501 -0.00000000000E+00 -0.00000000000E+00 -0.79847354860E+03  0.79847354860E+03  0.00000000000E+00 0.  1.
         23    2    1    2    0    0  0.26029745904E+03  0.46412970411E+03 -0.67013578071E+03  0.86093979008E+03  0.94679502246E+02 0.  0.
         13    1    3    3    0    0  0.18589213065E+03  0.37361922476E+03 -0.57233659044E+03  0.70831940684E+03  0.00000000000E+00 0.  1.
        -13    1    3    3    0    0  0.74405328388E+02  0.90510479344E+02 -0.97799190262E+02  0.15262038324E+03  0.00000000000E+00 0. -1.
         22    1    1    2    0    0 -0.26029745904E+03 -0.46412970411E+03  0.21164842127E+04  0.21823557391E+04  0.00000000000E+00 0. -1.
<mgrwt>
<rscale>  0 0.26776340E+04</rscale>
<asrwt>0</asrwt>
<pdfrwt beam="1">  1        1 0.34535722E+00 0.26776340E+04</pdfrwt>
<pdfrwt beam="2">  1       -1 0.12284209E+00 0.26776340E+04</pdfrwt>
<totfact> 0.10376175E+00</totfact>
</mgrwt>
</event>
<event>
 6    1  0.1014650E-006  0.1469648E+04  0.7818608E-02  0.8904891E-01
          2   -1    0    0  501    0  0.00000000000E+00  0.00000000000E+00  0.56324812584E+03  0.56324812584E+03  0.00000000000E+00 0. -1.
         -2   -1    0    0    0  501 -0.00000000000E+00 -0.00000000000E+00 -0.95866543319E+03  0.95866543319E+03  0.00000000000E+00 0.  1.
         23    2    1    2    0    0 -0.44327210735E+03  0.49736909585E+03 -0.51207824742E+03  0.84554387196E+03  0.94096382833E+02 0.  0.
         11    1    3    3    0    0 -0.24660994393E+03  0.23165768362E+03 -0.30455015101E+03  0.45522801024E+03  0.00000000000E+00 0.  1.
        -11    1    3    3    0    0 -0.19666216342E+03  0.26571141223E+03 -0.20752809641E+03  0.39031586172E+03  0.00000000000E+00 0. -1.
         22    1    1    2    0    0  0.44327210735E+03 -0.49736909585E+03  0.11666094007E+03  0.67636968708E+03  0.00000000000E+00 0. -1.
<mgrwt>
<rscale>  0 0.14696483E+04</rscale>
<asrwt>0</asrwt>
<pdfrwt beam="1">  1        2 0.86653559E-01 0.14696483E+04</pdfrwt>
<pdfrwt beam="2">  1       -2 0.14748699E+00 0.14696483E+04</pdfrwt>
<totfact> 0.16224563E+01</totfact>
</mgrwt>
</event>
<event>
 6    1  0.1014650E-006  0.1825392E+04  0.7818608E-02  0.8692912E-01
         -2   -1    0    0    0  501 -0.00000000000E+00  0.00000000000E+00  0.16972095755E+04  0.16972095755E+04  0.00000000000E+00 0.  1.
          2   -1    0    0  501    0  0.00000000000E+00 -0.00000000000E+00 -0.49081387998E+03  0.49081387998E+03  0.00000000000E+00 0. -1.
         23    2    1    2    0    0  0.43047327475E+03 -0.23847636395E+02 -0.35665229916E+03  0.56660587085E+03  0.89249091600E+02 0.  0.
         13    1    3    3    0    0  0.17121107235E+03  0.34157122250E+02 -0.14390174921E+03  0.22624688666E+03  0.00000000000E+00 0. -1.
        -13    1    3    3    0    0  0.25926220240E+03 -0.58004758645E+02 -0.21275054995E+03  0.34035898420E+03  0.00000000000E+00 0.  1.
         22    1    1    2    0    0 -0.43047327475E+03  0.23847636395E+02  0.15630479947E+04  0.16214175846E+04  0.00000000000E+00 0.  1.
<mgrwt>
<rscale>  0 0.18253920E+04</rscale>
<asrwt>0</asrwt>
<pdfrwt beam="1">  1        2 0.75509828E-01 0.18253920E+04</pdfrwt>
<pdfrwt beam="2">  1       -2 0.26110916E+00 0.18253920E+04</pdfrwt>
<totfact> 0.32569556E+00</totfact>
</mgrwt>
</event>
<event>
 6    1  0.1014650E-006  0.3203884E+04  0.7818608E-02  0.8187792E-01
         -2   -1    0    0    0  501 -0.00000000000E+00  0.00000000000E+00  0.14495737860E+04  0.14495737860E+04  0.00000000000E+00 0.  1.
          2   -1    0    0  501    0  0.00000000000E+00 -0.00000000000E+00 -0.17703259718E+04  0.17703259718E+04  0.00000000000E+00 0. -1.
         23    2    1    2    0    0 -0.15443739518E+02  0.11118149431E+04  0.99648439617E+03  0.14961007006E+04  0.94684621767E+02 0.  0.
         13    1    3    3    0    0  0.34908886467E+02  0.22789381576E+03  0.21103976167E+03  0.31255719896E+03  0.00000000000E+00 0. -1.
        -13    1    3    3    0    0 -0.50352625985E+02  0.88392112738E+03  0.78544463450E+03  0.11835435016E+04  0.00000000000E+00 0.  1.
         22    1    1    2    0    0  0.15443739518E+02 -0.11118149431E+04 -0.13172365820E+04  0.17237990572E+04  0.00000000000E+00 0. -1.
<mgrwt>
<rscale>  0 0.32038840E+04</rscale>
<asrwt>0</asrwt>
<pdfrwt beam="1">  1        2 0.27235784E+00 0.32038840E+04</pdfrwt>
<pdfrwt beam="2">  1       -2 0.22301135E+00 0.32038840E+04</pdfrwt>
<totfact> 0.71373124E-01</totfact>
</mgrwt>
</event>
<event>
 6    1  0.1014650E-006  0.1750682E+04  0.7818608E-02  0.8732975E-01
          2   -1    0    0  501    0  0.00000000000E+00  0.00000000000E+00  0.13922411652E+04  0.13922411652E+04  0.00000000000E+00 0. -1.
         -2   -1    0    0    0  501 -0.00000000000E+00 -0.00000000000E+00 -0.55035165538E+03  0.55035165538E+03  0.00000000000E+00 0.  1.
         23    2    1    2    0    0 -0.68163588185E+03 -0.24364987109E+03  0.96329883151E+03  0.12086085165E+04  0.93793242586E+02 0.  0.
         11    1    3    3    0    0 -0.63845211856E+03 -0.21995791544E+03  0.85399784189E+03  0.10887216845E+04  0.00000000000E+00 0. -1.
        -11    1    3    3    0    0 -0.43183763290E+02 -0.23691955649E+02  0.10930098962E+03  0.11988683208E+03  0.00000000000E+00 0.  1.
         22    1    1    2    0    0  0.68163588185E+03  0.24364987109E+03 -0.12140932172E+03  0.73398430400E+03  0.00000000000E+00 0.  1.
<mgrwt>
<rscale>  0 0.17506824E+04</rscale>
<asrwt>0</asrwt>
<pdfrwt beam="1">  1        2 0.21419095E+00 0.17506824E+04</pdfrwt>
<pdfrwt beam="2">  1       -2 0.84669486E-01 0.17506824E+04</pdfrwt>
<totfact> 0.16845138E+01</totfact>
</mgrwt>
</event>
<event>
 6    1  0.1014650E-006  0.2403657E+04  0.7818608E-02  0.8438136E-01
          1   -1    0    0  501    0  0.00000000000E+00  0.00000000000E+00  0.14917486798E+04  0.14917486798E+04  0.00000000000E+00 0. -1.
         -1   -1    0    0    0  501 -0.00000000000E+00 -0.00000000000E+00 -0.96825391240E+03  0.96825391240E+03  0.00000000000E+00 0.  1.
         23    2    1    2    0    0 -0.11943627158E+04 -0.26975058904E+02  0.14532102095E+03  0.12069082888E+04  0.90991581739E+02 0.  0.
         13    1    3    3    0    0 -0.52930236277E+03  0.11715488756E+02  0.10317487463E+03  0.53939160047E+03  0.00000000000E+00 0. -1.
        -13    1    3    3    0    0 -0.66506035298E+03 -0.38690547660E+02  0.42146146326E+02  0.66751668836E+03  0.00000000000E+00 0.  1.
         22    1    1    2    0    0  0.11943627158E+04  0.26975058904E+02  0.37817374642E+03  0.12530943033E+04  0.00000000000E+00 0.  1.
<mgrwt>
<rscale>  0 0.24036568E+04</rscale>
<asrwt>0</asrwt>
<pdfrwt beam="1">  1        1 0.22949980E+00 0.24036568E+04</pdfrwt>
<pdfrwt beam="2">  1       -1 0.14896214E+00 0.24036568E+04</pdfrwt>
<totfact> 0.21110264E+00</totfact>
</mgrwt>
</event>
<event>
 6    1  0.1014650E-006  0.2094236E+04  0.7818608E-02  0.8563787E-01
          1   -1    0    0  501    0  0.00000000000E+00  0.00000000000E+00  0.29867190011E+03  0.29867190011E+03  0.00000000000E+00 0. -1.
         -1   -1    0    0    0  501 -0.00000000000E+00 -0.00000000000E+00 -0.36711046264E+04  0.36711046264E+04  0.00000000000E+00 0.  1.
         23    2    1    2    0    0 -0.89551555094E+03 -0.90932095640E+02 -0.68189968726E+03  0.11326680016E+04  0.87936740696E+02 0.  0.
         11    1    3    3    0    0 -0.61048349155E+03 -0.37735904489E+02 -0.50349140771E+03  0.79222325741E+03  0.00000000000E+00 0.  1.
        -11    1    3    3    0    0 -0.28503205938E+03 -0.53196191151E+02 -0.17840827954E+03  0.34044474418E+03  0.00000000000E+00 0. -1.
         22    1    1    2    0    0  0.89551555094E+03  0.90932095640E+02 -0.26905330390E+04  0.28371085249E+04  0.00000000000E+00 0.  1.
<mgrwt>
<rscale>  0 0.20942357E+04</rscale>
<asrwt>0</asrwt>
<pdfrwt beam="1">  1        1 0.45949522E-01 0.20942357E+04</pdfrwt>
<pdfrwt beam="2">  1       -1 0.56478534E+00 0.20942357E+04</pdfrwt>
<totfact> 0.50359249E-02</totfact>
</mgrwt>
</event>
<event>
 6    1  0.1014650E-006  0.2165352E+04  0.7818608E-02  0.8532989E-01
          2   -1    0    0  501    0  0.00000000000E+00  0.00000000000E+00  0.21988839609E+04  0.21988839609E+04  0.00000000000E+00 0. -1.
         -2   -1    0    0    0  501 -0.00000000000E+00 -0.00000000000E+00 -0.53308309146E+03  0.53308309146E+03  0.00000000000E+00 0.  1.
         23    2    1    2    0    0 -0.14527315224E+03 -0.81929892571E+03  0.17046197731E+04  0.18989833036E+04  0.89744068685E+02 0.  0.
         11    1    3    3    0    0 -0.25109744044E+02 -0.32143113006E+03  0.59063833473E+03  0.67290572376E+03  0.00000000000E+00 0. -1.
        -11    1    3    3    0    0 -0.12016340820E+03 -0.49786779566E+03  0.11139814384E+04  0.12260775798E+04  0.00000000000E+00 0.  1.
         22    1    1    2    0    0  0.14527315224E+03  0.81929892571E+03 -0.38818903709E+02  0.83298374878E+03  0.00000000000E+00 0.  1.
<mgrwt>
<rscale>  0 0.21653525E+04</rscale>
<asrwt>0</asrwt>
<pdfrwt beam="1">  1        2 0.33828984E+00 0.21653525E+04</pdfrwt>
<pdfrwt beam="2">  1       -2 0.82012784E-01 0.21653525E+04</pdfrwt>
<totfact> 0.61943759E+00</totfact>
</mgrwt>
</event>
<event>
 6    1  0.1014650E-006  0.2017559E+04  0.7818608E-02  0.8598455E-01
          2   -1    0    0  501    0  0.00000000000E+00  0.00000000000E+00  0.22317126384E+04  0.22317126384E+04  0.00000000000E+00 0. -1.
         -2   -1    0    0    0  501 -0.00000000000E+00 -0.00000000000E+00 -0.45598905246E+03  0.45598905246E+03  0.00000000000E+00 0.  1.
         23    2    1    2    0    0 -0.84537355919E+03 -0.52878801290E+03  0.10745938946E+04  0.14687447346E+04  0.90475631645E+02 0.  0.
         13    1    3    3    0    0 -0.74782521806E+03 -0.49690380467E+03  0.98088594488E+03  0.13297718544E+04  0.00000000000E+00 0. -1.
        -13    1    3    3    0    0 -0.97548341125E+02 -0.31884208232E+02  0.93707949699E+02  0.13897288019E+03  0.00000000000E+00 0.  1.
         22    1    1    2    0    0  0.84537355919E+03  0.52878801290E+03  0.70112969135E+03  0.12189569563E+04  0.00000000000E+00 0.  1.
<mgrwt>
<rscale>  0 0.20175594E+04</rscale>
<asrwt>0</asrwt>
<pdfrwt beam="1">  1        2 0.34334040E+00 0.20175594E+04</pdfrwt>
<pdfrwt beam="2">  1       -2 0.70152163E-01 0.20175594E+04</pdfrwt>
<totfact> 0.85062803E+00</totfact>
</mgrwt>
</event>
<event>
 6    1  0.1014650E-006  0.1895777E+04  0.7818608E-02  0.8656961E-01
          2   -1    0    0  501    0  0.00000000000E+00  0.00000000000E+00  0.83340105704E+03  0.83340105704E+03  0.00000000000E+00 0. -1.
         -2   -1    0    0    0  501 -0.00000000000E+00 -0.00000000000E+00 -0.10781030732E+04  0.10781030732E+04  0.00000000000E+00 0.  1.
         23    2    1    2    0    0  0.85328880122E+02 -0.55378518919E+03 -0.89033098335E+03  0.10566381659E+04  0.99176107180E+02 0.  0.
         11    1    3    3    0    0  0.36740092827E+02 -0.32907396228E+03 -0.43632507413E+03  0.54773997242E+03  0.00000000000E+00 0. -1.
        -11    1    3    3    0    0  0.48588787295E+02 -0.22471122691E+03 -0.45400590922E+03  0.50889819351E+03  0.00000000000E+00 0.  1.
         22    1    1    2    0    0 -0.85328880122E+02  0.55378518919E+03  0.64562896723E+03  0.85486596428E+03  0.00000000000E+00 0. -1.
<mgrwt>
<rscale>  0 0.18957766E+04</rscale>
<asrwt>0</asrwt>
<pdfrwt beam="1">  1        2 0.12821555E+00 0.18957766E+04</pdfrwt>
<pdfrwt beam="2">  1       -2 0.16586201E+00 0.18957766E+04</pdfrwt>
<totfact> 0.69678278E+00</totfact>
</mgrwt>
</event>
<event>
 6    1  0.1014650E-006  0.1686755E+04  0.7818608E-02  0.8768955E-01
         -1   -1    0    0    0  501 -0.00000000000E+00  0.00000000000E+00  0.69671311784E+03  0.69671311784E+03  0.00000000000E+00 0.  1.
          1   -1    0    0  501    0  0.00000000000E+00 -0.00000000000E+00 -0.10209163882E+04  0.10209163882E+04  0.00000000000E+00 0. -1.
         23    2    1    2    0    0  0.81173618379E+03  0.18880870241E+03 -0.27672841446E+03  0.88287312230E+03  0.91224867980E+02 0.  0.
         11    1    3    3    0    0  0.59444450985E+03  0.17496169479E+03 -0.22346655342E+03  0.65872085927E+03  0.00000000000E+00 0.  1.
        -11    1    3    3    0    0  0.21729167394E+03  0.13847007620E+02 -0.53261861040E+02  0.22415226304E+03  0.00000000000E+00 0. -1.
         22    1    1    2    0    0 -0.81173618379E+03 -0.18880870241E+03 -0.47474855848E+02  0.83475638369E+03  0.00000000000E+00 0. -1.
<mgrwt>
<rscale>  0 0.16867553E+04</rscale>
<asrwt>0</asrwt>
<pdfrwt beam="1">  1        1 0.15706406E+00 0.16867553E+04</pdfrwt>
<pdfrwt beam="2">  1       -1 0.10718663E+00 0.16867553E+04</pdfrwt>
<totfact> 0.11265583E+01</totfact>
</mgrwt>
</event>
<event>
 6    1  0.1014650E-006  0.1984462E+04  0.7818608E-02  0.8613920E-01
         -2   -1    0    0    0  501 -0.00000000000E+00  0.00000000000E+00  0.43838688761E+03  0.43838688761E+03  0.00000000000E+00 0.  1.
          2   -1    0    0  501    0  0.00000000000E+00 -0.00000000000E+00 -0.22457831020E+04  0.22457831020E+04  0.00000000000E+00 0. -1.
         23    2    1    2    0    0  0.15905173249E+03  0.96265130245E+03 -0.67876655072E+03  0.11922584971E+04  0.93601868854E+02 0.  0.
         13    1    3    3    0    0  0.14618498123E+03  0.70349587499E+03 -0.53310857662E+03  0.89469617711E+03  0.00000000000E+00 0.  1.
        -13    1    3    3    0    0  0.12866751253E+02  0.25915542745E+03 -0.14565797410E+03  0.29756232000E+03  0.00000000000E+00 0. -1.
         22    1    1    2    0    0 -0.15905173249E+03 -0.96265130245E+03 -0.11286296636E+04  0.14919114925E+04  0.00000000000E+00 0.  1.
<mgrwt>
<rscale>  0 0.19844615E+04</rscale>
<asrwt>0</asrwt>
<pdfrwt beam="1">  1        2 0.34550508E+00 0.19844615E+04</pdfrwt>
<pdfrwt beam="2">  1       -2 0.67444138E-01 0.19844615E+04</pdfrwt>
<totfact> 0.91248276E+00</totfact>
</mgrwt>
</event>
<event>
 6    1  0.1014650E-006  0.1515441E+04  0.7818608E-02  0.8874249E-01
          1   -1    0    0  501    0  0.00000000000E+00  0.00000000000E+00  0.10748339324E+04  0.10748339324E+04  0.00000000000E+00 0. -1.
         -1   -1    0    0    0  501 -0.00000000000E+00 -0.00000000000E+00 -0.53416644956E+03  0.53416644956E+03  0.00000000000E+00 0.  1.
         23    2    1    2    0    0 -0.39087501322E+03 -0.24600102159E+03  0.90555225495E+03  0.10204082690E+04  0.88929019176E+02 0.  0.
         13    1    3    3    0    0 -0.20721169717E+03 -0.17029006608E+03  0.58036380549E+03  0.63934148995E+03  0.00000000000E+00 0.  1.
        -13    1    3    3    0    0 -0.18366331605E+03 -0.75710955510E+02  0.32518844947E+03  0.38106677907E+03  0.00000000000E+00 0. -1.
         22    1    1    2    0    0  0.39087501322E+03  0.24600102159E+03 -0.36488477207E+03  0.58859211299E+03  0.00000000000E+00 0.  1.
<mgrwt>
<rscale>  0 0.15154408E+04</rscale>
<asrwt>0</asrwt>
<pdfrwt beam="1">  1        1 0.16535907E+00 0.15154408E+04</pdfrwt>
<pdfrwt beam="2">  1       -1 0.82179454E-01 0.15154408E+04</pdfrwt>
<totfact> 0.18851921E+01</totfact>
</mgrwt>
</event>
<event>
 6    1  0.1014650E-006  0.1197434E+04  0.7818608E-02  0.9115105E-01
          2   -1    0    0  501    0  0.00000000000E+00  0.00000000000E+00  0.15395505002E+04  0.15395505002E+04  0.00000000000E+00 0. -1.
         -2   -1    0    0    0  501 -0.00000000000E+00 -0.00000000000E+00 -0.23283569190E+03  0.23283569190E+03  0.00000000000E+00 0.  1.
         23    2    1    2    0    0 -0.31204432317E+03 -0.47893117588E+03  0.41157173032E+03  0.71029963210E+03  0.91583553716E+02 0.  0.
         11    1    3    3    0    0 -0.21500466218E+03 -0.28646548364E+03  0.30200783720E+03  0.46850636261E+03  0.00000000000E+00 0. -1.
        -11    1    3    3    0    0 -0.97039660989E+02 -0.19246569225E+03  0.10956389312E+03  0.24179326950E+03  0.00000000000E+00 0.  1.
         22    1    1    2    0    0  0.31204432317E+03  0.47893117588E+03  0.89514307798E+03  0.10620865600E+04  0.00000000000E+00 0. -1.
<mgrwt>
<rscale>  0 0.11974344E+04</rscale>
<asrwt>0</asrwt>
<pdfrwt beam="1">  1        2 0.23685392E+00 0.11974344E+04</pdfrwt>
<pdfrwt beam="2">  1       -2 0.35820877E-01 0.11974344E+04</pdfrwt>
<totfact> 0.87152749E+01</totfact>
</mgrwt>
</event>
<event>
 6    1  0.1014650E-006  0.7159565E+03  0.7818608E-02  0.9690327E-01
          1   -1    0    0  501    0  0.00000000000E+00  0.00000000000E+00  0.70804041956E+03  0.70804041956E+03  0.00000000000E+00 0. -1.
         -1   -1    0    0    0  501 -0.00000000000E+00 -0.00000000000E+00 -0.18099025853E+03  0.18099025853E+03  0.00000000000E+00 0.  1.
         23    2    1    2    0    0  0.52870837615E+02  0.29754622231E+03  0.49228941761E+03  0.58483109037E+03  0.91375345068E+02 0.  0.
         11    1    3    3    0    0 -0.35079353505E+01  0.15092704405E+03  0.30552636184E+03  0.34078972405E+03  0.00000000000E+00 0. -1.
        -11    1    3    3    0    0  0.56378772966E+02  0.14661917826E+03  0.18676305577E+03  0.24404136632E+03  0.00000000000E+00 0.  1.
         22    1    1    2    0    0 -0.52870837615E+02 -0.29754622231E+03  0.34760743420E+02  0.30419958772E+03  0.00000000000E+00 0.  1.
<mgrwt>
<rscale>  0 0.71595648E+03</rscale>
<asrwt>0</asrwt>
<pdfrwt beam="1">  1        1 0.10892929E+00 0.71595648E+03</pdfrwt>
<pdfrwt beam="2">  1       -1 0.27844656E-01 0.71595648E+03</pdfrwt>
<totfact> 0.31470280E+02</totfact>
</mgrwt>
</event>
<event>
 6    1  0.1014650E-006  0.3002579E+04  0.7818608E-02  0.8242995E-01
          2   -1    0    0  501    0  0.00000000000E+00  0.00000000000E+00  0.23153793468E+04  0.23153793468E+04  0.00000000000E+00 0. -1.
         -2   -1    0    0    0  501 -0.00000000000E+00 -0.00000000000E+00 -0.97343457422E+03  0.97343457422E+03  0.00000000000E+00 0.  1.
         23    2    1    2    0    0  0.58817894066E+03 -0.56588927610E+03 -0.70709168874E+03  0.10831993675E+04  0.84599493886E+02 0.  0.
         13    1    3    3    0    0  0.43536577932E+03 -0.46715419783E+03 -0.55594716154E+03  0.84667210465E+03  0.00000000000E+00 0.  1.
        -13    1    3    3    0    0  0.15281316134E+03 -0.98735078268E+02 -0.15114452719E+03  0.23652726282E+03  0.00000000000E+00 0. -1.
         22    1    1    2    0    0 -0.58817894066E+03  0.56588927610E+03  0.20490364613E+04  0.22056145536E+04  0.00000000000E+00 0. -1.
<mgrwt>
<rscale>  0 0.30025791E+04</rscale>
<asrwt>0</asrwt>
<pdfrwt beam="1">  1        2 0.35621221E+00 0.30025791E+04</pdfrwt>
<pdfrwt beam="2">  1       -2 0.14975917E+00 0.30025791E+04</pdfrwt>
<totfact> 0.11441350E+00</totfact>
</mgrwt>
</event>
<event>
 6    1  0.1014650E-006  0.3072684E+04  0.7818608E-02  0.8223275E-01
          2   -1    0    0  501    0  0.00000000000E+00  0.00000000000E+00  0.16989320778E+04  0.16989320778E+04  0.00000000000E+00 0. -1.
         -2   -1    0    0    0  501 -0.00000000000E+00 -0.00000000000E+00 -0.13893118846E+04  0.13893118846E+04  0.00000000000E+00 0.  1.
         23    2    1    2    0    0 -0.10748063651E+04  0.10192847091E+04 -0.24970303166E+03  0.15048954504E+04  0.90601720560E+02 0.  0.
         11    1    3    3    0    0 -0.44112044892E+03  0.43109871749E+03 -0.14834935026E+03  0.63438228570E+03  0.00000000000E+00 0.  1.
        -11    1    3    3    0    0 -0.63368591621E+03  0.58818599163E+03 -0.10135368140E+03  0.87051316468E+03  0.00000000000E+00 0. -1.
         22    1    1    2    0    0  0.10748063651E+04 -0.10192847091E+04  0.55932322487E+03  0.15833485121E+04  0.00000000000E+00 0. -1.
<mgrwt>
<rscale>  0 0.30726839E+04</rscale>
<asrwt>0</asrwt>
<pdfrwt beam="1">  1        2 0.26137417E+00 0.30726839E+04</pdfrwt>
<pdfrwt beam="2">  1       -2 0.21374029E+00 0.30726839E+04</pdfrwt>
<totfact> 0.90544339E-01</totfact>
</mgrwt>
</event>
<event>
 6    1  0.1014650E-006  0.2830998E+04  0.7818608E-02  0.8293709E-01
          1   -1    0    0  501    0  0.00000000000E+00  0.00000000000E+00  0.30564926130E+04  0.30564926130E+04  0.00000000000E+00 0. -1.
         -1   -1    0    0    0  501 -0.00000000000E+00 -0.00000000000E+00 -0.65553488351E+03  0.65553488351E+03  0.00000000000E+00 0.  1.
         23    2    1    2    0    0  0.71235413742E+03  0.96720820275E+03  0.22365553701E+03  0.12253459805E+04  0.92254258444E+02 0.  0.
         13    1    3    3    0    0  0.40485013564E+03  0.62141065694E+03  0.12317740415E+03  0.75181614095E+03  0.00000000000E+00 0.  1.
        -13    1    3    3    0    0  0.30750400178E+03  0.34579754581E+03  0.10047813286E+03  0.47352983959E+03  0.00000000000E+00 0. -1.
         22    1    1    2    0    0 -0.71235413742E+03 -0.96720820275E+03  0.21773021925E+04  0.24866815160E+04  0.00000000000E+00 0.  1.
<mgrwt>
<rscale>  0 0.28309981E+04</rscale>
<asrwt>0</asrwt>
<pdfrwt beam="1">  1        1 0.47022962E+00 0.28309981E+04</pdfrwt>
<pdfrwt beam="2">  1       -1 0.10085152E+00 0.28309981E+04</pdfrwt>
<totfact> 0.43828051E-01</totfact>
</mgrwt>
</event>
<event>
 6    1  0.1014650E-006  0.1279272E+04  0.7818608E-02  0.9046166E-01
          2   -1    0    0  501    0  0.00000000000E+00  0.00000000000E+00  0.45122594294E+03  0.45122594294E+03  0.00000000000E+00 0. -1.
         -2   -1    0    0    0  501 -0.00000000000E+00 -0.00000000000E+00 -0.90671715503E+03  0.90671715503E+03  0.00000000000E+00 0.  1.
         23    2    1    2    0    0 -0.39424769880E+03 -0.19087375285E+03 -0.71946054680E+03  0.84652952052E+03  0.84408016026E+02 0.  0.
         11    1    3    3    0    0 -0.10406069823E+03 -0.25031915230E+02 -0.23188276239E+03  0.25539154487E+03  0.00000000000E+00 0. -1.
        -11    1    3    3    0    0 -0.29018700057E+03 -0.16584183762E+03 -0.48757778441E+03  0.59113797565E+03  0.00000000000E+00 0.  1.
         22    1    1    2    0    0  0.39424769880E+03  0.19087375285E+03  0.26396933471E+03  0.51141357745E+03  0.00000000000E+00 0. -1.
<mgrwt>
<rscale>  0 0.12792721E+04</rscale>
<asrwt>0</asrwt>
<pdfrwt beam="1">  1        2 0.69419377E-01 0.12792721E+04</pdfrwt>
<pdfrwt beam="2">  1       -2 0.13949494E+00 0.12792721E+04</pdfrwt>
<totfact> 0.24653102E+01</totfact>
</mgrwt>
</event>
<event>
 6    1  0.1014650E-006  0.6136626E+03  0.7818608E-02  0.9877459E-01
         -1   -1    0    0    0  501 -0.00000000000E+00  0.00000000000E+00  0.11237854534E+03  0.11237854534E+03  0.00000000000E+00 0.  1.
          1   -1    0    0  501    0  0.00000000000E+00 -0.00000000000E+00 -0.83775280737E+03  0.83775280737E+03  0.00000000000E+00 0. -1.
         23    2    1    2    0    0 -0.20639307286E+03 -0.16585014331E+03 -0.58897337070E+03  0.65228982821E+03  0.92130440280E+02 0.  0.
         11    1    3    3    0    0 -0.53855563114E+02 -0.78236308875E+02 -0.29275058253E+03  0.30777304183E+03  0.00000000000E+00 0. -1.
        -11    1    3    3    0    0 -0.15253750975E+03 -0.87613834438E+02 -0.29622278817E+03  0.34451678638E+03  0.00000000000E+00 0.  1.
         22    1    1    2    0    0  0.20639307286E+03  0.16585014331E+03 -0.13640089133E+03  0.29784152450E+03  0.00000000000E+00 0.  1.
<mgrwt>
<rscale>  0 0.61366258E+03</rscale>
<asrwt>0</asrwt>
<pdfrwt beam="1">  1        1 0.12888505E+00 0.61366258E+03</pdfrwt>
<pdfrwt beam="2">  1       -1 0.17289007E-01 0.61366258E+03</pdfrwt>
<totfact> 0.54079291E+02</totfact>
</mgrwt>
</event>
<event>
 6    1  0.1014650E-006  0.1851033E+04  0.7818608E-02  0.8679622E-01
          2   -1    0    0  501    0  0.00000000000E+00  0.00000000000E+00  0.33435578822E+04  0.33435578822E+04  0.00000000000E+00 0. -1.
         -2   -1    0    0    0  501 -0.00000000000E+00 -0.00000000000E+00 -0.25618850779E+03  0.25618850779E+03  0.00000000000E+00 0.  1.
         23    2    1    2    0    0 -0.82598629172E+03  0.10974360637E+02  0.74518661599E+03  0.11161615083E+04  0.90219893777E+02 0.  0.
         13    1    3    3    0    0 -0.19823450230E+03 -0.13256543530E+01  0.23266994077E+03  0.30566971815E+03  0.00000000000E+00 0. -1.
        -13    1    3    3    0    0 -0.62775178943E+03  0.12300014990E+02  0.51251667523E+03  0.81049179014E+03  0.00000000000E+00 0.  1.
         22    1    1    2    0    0  0.82598629172E+03 -0.10974360637E+02  0.23421827584E+04  0.24835848816E+04  0.00000000000E+00 0. -1.
<mgrwt>
<rscale>  0 0.18510333E+04</rscale>
<asrwt>0</asrwt>
<pdfrwt beam="1">  1        2 0.51439349E+00 0.18510333E+04</pdfrwt>
<pdfrwt beam="2">  1       -2 0.39413619E-01 0.18510333E+04</pdfrwt>
<totfact> 0.59965618E+00</totfact>
</mgrwt>
</event>
<event>
 6    1  0.1014650E-006  0.3005030E+04  0.7818608E-02  0.8242296E-01
          2   -1    0    0  501    0  0.00000000000E+00  0.00000000000E+00  0.25901839653E+04  0.25901839653E+04  0.00000000000E+00 0. -1.
         -2   -1    0    0    0  501 -0.00000000000E+00 -0.00000000000E+00 -0.87157956047E+03  0.87157956047E+03  0.00000000000E+00 0.  1.
         23    2    1    2    0    0 -0.60255565061E+03 -0.68979999200E+03  0.22301857832E+04  0.24126625545E+04  0.91184611286E+02 0.  0.
         11    1    3    3    0    0 -0.52674140205E+03 -0.64247026007E+03  0.19957788483E+04  0.21617950298E+04  0.00000000000E+00 0.  1.
        -11    1    3    3    0    0 -0.75814248558E+02 -0.47329731925E+02  0.23440693492E+03  0.25086752470E+03  0.00000000000E+00 0. -1.
         22    1    1    2    0    0  0.60255565061E+03  0.68979999200E+03 -0.51158137842E+03  0.10491009712E+04  0.00000000000E+00 0.  1.
<mgrwt>
<rscale>  0 0.30050301E+04</rscale>
<asrwt>0</asrwt>
<pdfrwt beam="1">  1        2 0.39848984E+00 0.30050301E+04</pdfrwt>
<pdfrwt beam="2">  1       -2 0.13408916E+00 0.30050301E+04</pdfrwt>
<totfact> 0.10589055E+00</totfact>
</mgrwt>
</event>
<event>
 6    1  0.1014650E-006  0.8466263E+03  0.7818608E-02  0.9494876E-01
         -1   -1    0    0    0  501 -0.00000000000E+00  0.00000000000E+00  0.14546462040E+03  0.14546462040E+03  0.00000000000E+00 0.  1.
          1   -1    0    0  501    0  0.00000000000E+00 -0.00000000000E+00 -0.12318737136E+04  0.12318737136E+04  0.00000000000E+00 0. -1.
         23    2    1    2    0    0 -0.40175675089E+03 -0.10400114420E+03 -0.45873266419E+03  0.62487409935E+03  0.88358689249E+02 0.  0.
         11    1    3    3    0    0 -0.14143201001E+03 -0.61489070141E+01 -0.11278705364E+03  0.18100204966E+03  0.00000000000E+00 0. -1.
        -11    1    3    3    0    0 -0.26032474088E+03 -0.97852237190E+02 -0.34594561055E+03  0.44387204969E+03  0.00000000000E+00 0.  1.
         22    1    1    2    0    0  0.40175675089E+03  0.10400114420E+03 -0.62767642900E+03  0.75246423463E+03  0.00000000000E+00 0. -1.
<mgrwt>
<rscale>  0 0.84662635E+03</rscale>
<asrwt>0</asrwt>
<pdfrwt beam="1">  1        1 0.18951904E+00 0.84662635E+03</pdfrwt>
<pdfrwt beam="2">  1       -1 0.22379172E-01 0.84662635E+03</pdfrwt>
<totfact> 0.17299172E+02</totfact>
</mgrwt>
</event>
<event>
 6    1  0.1014650E-006  0.3636695E+04  0.7818608E-02  0.8082138E-01
          2   -1    0    0  501    0  0.00000000000E+00  0.00000000000E+00  0.49795415404E+04  0.49795415404E+04  0.00000000000E+00 0. -1.
         -2   -1    0    0    0  501 -0.00000000000E+00 -0.00000000000E+00 -0.66399451517E+03  0.66399451517E+03  0.00000000000E+00 0.  1.
         23    2    1    2    0    0  0.43225562075E+03  0.13912558366E+04  0.38447242087E+04  0.41124867914E+04  0.90585013153E+02 0.  0.
         11    1    3    3    0    0  0.10857560900E+03  0.27766507680E+03  0.70549798884E+03  0.76590728551E+03  0.00000000000E+00 0. -1.
        -11    1    3    3    0    0  0.32368001175E+03  0.11135907598E+04  0.31392262198E+04  0.33465795059E+04  0.00000000000E+00 0.  1.
         22    1    1    2    0    0 -0.43225562075E+03 -0.13912558366E+04  0.47082281653E+03  0.15310492641E+04  0.00000000000E+00 0. -1.
<mgrwt>
<rscale>  0 0.36366954E+04</rscale>
<asrwt>0</asrwt>
<pdfrwt beam="1">  1        2 0.76608329E+00 0.36366954E+04</pdfrwt>
<pdfrwt beam="2">  1       -2 0.10215301E+00 0.36366954E+04</pdfrwt>
<totfact> 0.23039858E-02</totfact>
</mgrwt>
</event>
<event>
 6    1  0.1014650E-006  0.2700548E+04  0.7818608E-02  0.8334827E-01
         -2   -1    0    0    0  501 -0.00000000000E+00  0.00000000000E+00  0.10582656914E+04  0.10582656914E+04  0.00000000000E+00 0.  1.
          2   -1    0    0  501    0  0.00000000000E+00 -0.00000000000E+00 -0.17228568732E+04  0.17228568732E+04  0.00000000000E+00 0. -1.
         23    2    1    2    0    0  0.40593426613E+03  0.89406359672E+03 -0.12848586392E+04  0.16197164935E+04  0.92127373549E+02 0.  0.
         11    1    3    3    0    0  0.23952096571E+03  0.47180749883E+03 -0.75654667129E+03  0.92322016595E+03  0.00000000000E+00 0.  1.
        -11    1    3    3    0    0  0.16641330042E+03  0.42225609789E+03 -0.52831196794E+03  0.69649632751E+03  0.00000000000E+00 0. -1.
         22    1    1    2    0    0 -0.40593426613E+03 -0.89406359672E+03  0.62026745745E+03  0.11614060712E+04  0.00000000000E+00 0.  1.
<mgrwt>
<rscale>  0 0.27005483E+04</rscale>
<asrwt>0</asrwt>
<pdfrwt beam="1">  1        2 0.26505490E+00 0.27005483E+04</pdfrwt>
<pdfrwt beam="2">  1       -2 0.16281011E+00 0.27005483E+04</pdfrwt>
<totfact> 0.20070070E+00</totfact>
</mgrwt>
</event>
<event>
 6    1  0.1014650E-006  0.3021829E+04  0.7818608E-02  0.8237525E-01
          1   -1    0    0  501    0  0.00000000000E+00  0.00000000000E+00  0.12394413336E+04  0.12394413336E+04  0.00000000000E+00 0. -1.
         -1   -1    0    0    0  501 -0.00000000000E+00 -0.00000000000E+00 -0.18418474605E+04  0.18418474605E+04  0.00000000000E+00 0.  1.
         23    2    1    2    0    0 -0.62958896450E+03 -0.25941921974E+03  0.10722816618E+04  0.12734558966E+04  0.90671730273E+02 0.  0.
         13    1    3    3    0    0 -0.18467305119E+03 -0.87012997918E+02  0.25001503905E+03  0.32277378672E+03  0.00000000000E+00 0. -1.
        -13    1    3    3    0    0 -0.44491591332E+03 -0.17240622182E+03  0.82226662275E+03  0.95068210993E+03  0.00000000000E+00 0.  1.
         22    1    1    2    0    0  0.62958896450E+03  0.25941921974E+03 -0.16746877886E+04  0.18078328975E+04  0.00000000000E+00 0.  1.
<mgrwt>
<rscale>  0 0.30218285E+04</rscale>
<asrwt>0</asrwt>
<pdfrwt beam="1">  1        1 0.19068328E+00 0.30218285E+04</pdfrwt>
<pdfrwt beam="2">  1       -1 0.28336115E+00 0.30218285E+04</pdfrwt>
<totfact> 0.35961949E-01</totfact>
</mgrwt>
</event>
<event>
 6    1  0.1014650E-006  0.2599298E+04  0.7818608E-02  0.8368440E-01
         -2   -1    0    0    0  501 -0.00000000000E+00  0.00000000000E+00  0.85000822204E+03  0.85000822204E+03  0.00000000000E+00 0.  1.
          2   -1    0    0  501    0  0.00000000000E+00 -0.00000000000E+00 -0.19871423930E+04  0.19871423930E+04  0.00000000000E+00 0. -1.
         23    2    1    2    0    0  0.20684555200E+03  0.95752448384E+03  0.36020096478E+03  0.10478349000E+04  0.92601420261E+02 0.  0.
         13    1    3    3    0    0  0.13725700981E+03  0.68598919063E+03  0.29965024172E+03  0.76105908034E+03  0.00000000000E+00 0.  1.
        -13    1    3    3    0    0  0.69588542184E+02  0.27153529321E+03  0.60550723057E+02  0.28677581963E+03  0.00000000000E+00 0. -1.
         22    1    1    2    0    0 -0.20684555200E+03 -0.95752448384E+03 -0.14973351358E+04  0.17893157151E+04  0.00000000000E+00 0. -1.
<mgrwt>
<rscale>  0 0.25992979E+04</rscale>
<asrwt>0</asrwt>
<pdfrwt beam="1">  1        2 0.30571421E+00 0.25992979E+04</pdfrwt>
<pdfrwt beam="2">  1       -2 0.13077050E+00 0.25992979E+04</pdfrwt>
<totfact> 0.25707640E+00</totfact>
</mgrwt>
</event>
<event>
 6    1  0.1014650E-006  0.1098459E+04  0.7818608E-02  0.9206695E-01
         -2   -1    0    0    0  501 -0.00000000000E+00  0.00000000000E+00  0.77328689385E+03  0.77328689385E+03  0.00000000000E+00 0.  1.
          2   -1    0    0  501    0  0.00000000000E+00 -0.00000000000E+00 -0.39009206722E+03  0.39009206722E+03  0.00000000000E+00 0. -1.
         23    2    1    2    0    0 -0.30676437202E+03 -0.36710147493E+03  0.47060817563E+03  0.67705708574E+03  0.89812969827E+02 0.  0.
         11    1    3    3    0    0 -0.11870709443E+03 -0.10129043338E+03  0.20001863280E+03  0.25368992812E+03  0.00000000000E+00 0. -1.
        -11    1    3    3    0    0 -0.18805727759E+03 -0.26581104155E+03  0.27058954282E+03  0.42336715762E+03  0.00000000000E+00 0.  1.
         22    1    1    2    0    0  0.30676437202E+03  0.36710147493E+03 -0.87413348994E+02  0.48632187533E+03  0.00000000000E+00 0. -1.
<mgrwt>
<rscale>  0 0.10984591E+04</rscale>
<asrwt>0</asrwt>
<pdfrwt beam="1">  1        2 0.60014164E-01 0.10984591E+04</pdfrwt>
<pdfrwt beam="2">  1       -2 0.11896721E+00 0.10984591E+04</pdfrwt>
<totfact> 0.44051913E+01</totfact>
</mgrwt>
</event>
<event>
 6    1  0.1218486E-006  0.3719393E+04  0.7818608E-02  0.8063678E-01
         -2   -1    0    0    0  501 -0.00000000000E+00  0.00000000000E+00  0.13839836032E+04  0.13839836032E+04  0.00000000000E+00 0.  1.
          2   -1    0    0  501    0  0.00000000000E+00 -0.00000000000E+00 -0.24989243286E+04  0.24989243286E+04  0.00000000000E+00 0. -1.
         23    2    1    2    0    0  0.12584100706E+04  0.10056289443E+04 -0.15255070349E+04  0.22205451033E+04  0.93612834032E+02 0.  0.
         11    1    3    3    0    0  0.56040128813E+03  0.49631556216E+03 -0.67063185419E+03  0.10050501604E+04  0.00000000000E+00 0.  1.
        -11    1    3    3    0    0  0.69800878252E+03  0.50931338210E+03 -0.85487518069E+03  0.12154949429E+04  0.00000000000E+00 0. -1.
         22    1    1    2    0    0 -0.12584100706E+04 -0.10056289443E+04  0.41056630943E+03  0.16623628286E+04  0.00000000000E+00 0.  1.
<mgrwt>
<rscale>  0 0.37193926E+04</rscale>
<asrwt>0</asrwt>
<pdfrwt beam="1">  1        2 0.38444989E+00 0.37193926E+04</pdfrwt>
<pdfrwt beam="2">  1       -2 0.21292056E+00 0.37193926E+04</pdfrwt>
<totfact> 0.30854185E-01</totfact>
</mgrwt>
</event>
<event>
 6    1  0.1014650E-006  0.2676471E+04  0.7818608E-02  0.8342680E-01
         -2   -1    0    0    0  501 -0.00000000000E+00  0.00000000000E+00  0.81511279474E+03  0.81511279474E+03  0.00000000000E+00 0.  1.
          2   -1    0    0  501    0  0.00000000000E+00 -0.00000000000E+00 -0.21970876536E+04  0.21970876536E+04  0.00000000000E+00 0. -1.
         23    2    1    2    0    0 -0.42786237387E+02 -0.12784687102E+04 -0.11308902592E+04  0.17086068071E+04  0.64121275695E+02 0.  0.
         13    1    3    3    0    0 -0.88098172222E+01 -0.10778324014E+03 -0.73853371967E+02  0.13095480246E+03  0.00000000000E+00 0.  1.
        -13    1    3    3    0    0 -0.33976420165E+02 -0.11706854701E+04 -0.10570368872E+04  0.15776520047E+04  0.00000000000E+00 0. -1.
         22    1    1    2    0    0  0.42786237387E+02  0.12784687102E+04 -0.25108459966E+03  0.13035936412E+04  0.00000000000E+00 0. -1.
<mgrwt>
<rscale>  0 0.26764710E+04</rscale>
<asrwt>0</asrwt>
<pdfrwt beam="1">  1        2 0.33801348E+00 0.26764710E+04</pdfrwt>
<pdfrwt beam="2">  1       -2 0.12540197E+00 0.26764710E+04</pdfrwt>
<totfact> 0.21668410E+00</totfact>
</mgrwt>
</event>
<event>
 6    1  0.1014650E-006  0.6389493E+03  0.7818608E-02  0.9827739E-01
         -2   -1    0    0    0  501 -0.00000000000E+00  0.00000000000E+00  0.31048630943E+03  0.31048630943E+03  0.00000000000E+00 0.  1.
          2   -1    0    0  501    0  0.00000000000E+00 -0.00000000000E+00 -0.32872319086E+03  0.32872319086E+03  0.00000000000E+00 0. -1.
         23    2    1    2    0    0 -0.28093027910E+02 -0.28588934657E+03 -0.13318185890E+03  0.32979992618E+03  0.92242327988E+02 0.  0.
         13    1    3    3    0    0  0.10559692686E+02 -0.11150611278E+02 -0.30161686897E+02  0.33846278938E+02  0.00000000000E+00 0. -1.
        -13    1    3    3    0    0 -0.38652720596E+02 -0.27473873529E+03 -0.10302017200E+03  0.29595364725E+03  0.00000000000E+00 0.  1.
         22    1    1    2    0    0  0.28093027910E+02  0.28588934657E+03  0.11494497747E+03  0.30940957410E+03  0.00000000000E+00 0.  1.
<mgrwt>
<rscale>  0 0.63894929E+03</rscale>
<asrwt>0</asrwt>
<pdfrwt beam="1">  1        2 0.50572799E-01 0.63894929E+03</pdfrwt>
<pdfrwt beam="2">  1       -2 0.47767125E-01 0.63894929E+03</pdfrwt>
<totfact> 0.41542241E+02</totfact>
</mgrwt>
</event>
<event>
 6    1  0.1014650E-006  0.6455156E+03  0.7818608E-02  0.9815230E-01
          2   -1    0    0  501    0  0.00000000000E+00  0.00000000000E+00  0.13399356803E+04  0.13399356803E+04  0.00000000000E+00 0. -1.
         -2   -1    0    0    0  501 -0.00000000000E+00 -0.00000000000E+00 -0.77744481185E+02  0.77744481185E+02  0.00000000000E+00 0.  1.
         23    2    1    2    0    0  0.66876214130E+02  0.30443087006E+03  0.52773813990E+03  0.61982561406E+03  0.92334526980E+02 0.  0.
         13    1    3    3    0    0  0.24343161528E+02  0.82635006910E+01  0.47324937120E+02  0.53856518921E+02  0.00000000000E+00 0. -1.
        -13    1    3    3    0    0  0.42533052601E+02  0.29616736937E+03  0.48041320278E+03  0.56596909514E+03  0.00000000000E+00 0.  1.
         22    1    1    2    0    0 -0.66876214130E+02 -0.30443087006E+03  0.73445305919E+03  0.79785454740E+03  0.00000000000E+00 0. -1.
<mgrwt>
<rscale>  0 0.64551562E+03</rscale>
<asrwt>0</asrwt>
<pdfrwt beam="1">  1        2 0.20614393E+00 0.64551562E+03</pdfrwt>
<pdfrwt beam="2">  1       -2 0.11960690E-01 0.64551562E+03</pdfrwt>
<totfact> 0.81285072E+02</totfact>
</mgrwt>
</event>
<event>
 6    1  0.1014650E-006  0.1039435E+04  0.7818608E-02  0.9266320E-01
          1   -1    0    0  501    0  0.00000000000E+00  0.00000000000E+00  0.17300096670E+03  0.17300096670E+03  0.00000000000E+00 0. -1.
         -1   -1    0    0    0  501 -0.00000000000E+00 -0.00000000000E+00 -0.15612992924E+04  0.15612992924E+04  0.00000000000E+00 0.  1.
         23    2    1    2    0    0 -0.42428719115E+03  0.29032712870E+03 -0.63860575229E+03  0.82526317688E+03  0.94512126298E+02 0.  0.
         11    1    3    3    0    0 -0.21054802774E+03  0.87476437179E+02 -0.28448825468E+03  0.36457669440E+03  0.00000000000E+00 0. -1.
        -11    1    3    3    0    0 -0.21373916341E+03  0.20285069152E+03 -0.35411749761E+03  0.46068648248E+03  0.00000000000E+00 0.  1.
         22    1    1    2    0    0  0.42428719115E+03 -0.29032712870E+03 -0.74969257337E+03  0.90903708219E+03  0.00000000000E+00 0. -1.
<mgrwt>
<rscale>  0 0.10394350E+04</rscale>
<asrwt>0</asrwt>
<pdfrwt beam="1">  1        1 0.26615535E-01 0.10394350E+04</pdfrwt>
<pdfrwt beam="2">  1       -1 0.24019988E+00 0.10394350E+04</pdfrwt>
<totfact> 0.14606193E+01</totfact>
</mgrwt>
</event>
<event>
 6    1  0.1014650E-006  0.1915026E+04  0.7818608E-02  0.8647413E-01
          2   -1    0    0  501    0  0.00000000000E+00  0.00000000000E+00  0.27095921227E+04  0.27095921227E+04  0.00000000000E+00 0. -1.
         -2   -1    0    0    0  501 -0.00000000000E+00 -0.00000000000E+00 -0.33836507322E+03  0.33836507322E+03  0.00000000000E+00 0.  1.
         23    2    1    2    0    0 -0.81386028437E+02  0.82683291878E+03  0.43797623714E+03  0.94373879837E+03  0.92430374075E+02 0.  0.
         11    1    3    3    0    0 -0.57616553650E+02  0.24128530417E+03  0.10191245510E+03  0.26818727369E+03  0.00000000000E+00 0.  1.
        -11    1    3    3    0    0 -0.23769474787E+02  0.58554761461E+03  0.33606378204E+03  0.67555152469E+03  0.00000000000E+00 0. -1.
         22    1    1    2    0    0  0.81386028437E+02 -0.82683291878E+03  0.19332508124E+04  0.21042183976E+04  0.00000000000E+00 0. -1.
<mgrwt>
<rscale>  0 0.19150262E+04</rscale>
<asrwt>0</asrwt>
<pdfrwt beam="1">  1        2 0.41686031E+00 0.19150262E+04</pdfrwt>
<pdfrwt beam="2">  1       -2 0.52056167E-01 0.19150262E+04</pdfrwt>
<totfact> 0.85542972E+00</totfact>
</mgrwt>
</event>
<event>
 6    1  0.1014650E-006  0.2416527E+04  0.7818608E-02  0.8433342E-01
          1   -1    0    0  501    0  0.00000000000E+00  0.00000000000E+00  0.21782561830E+04  0.21782561830E+04  0.00000000000E+00 0. -1.
         -1   -1    0    0    0  501 -0.00000000000E+00 -0.00000000000E+00 -0.67021538883E+03  0.67021538883E+03  0.00000000000E+00 0.  1.
         23    2    1    2    0    0 -0.35748926122E+03 -0.11175546757E+04  0.42376474839E+03  0.12508541055E+04  0.91282014394E+02 0.  0.
         11    1    3    3    0    0 -0.30100359146E+02 -0.20575256590E+03  0.67393090557E+02  0.21859089334E+03  0.00000000000E+00 0. -1.
        -11    1    3    3    0    0 -0.32738890208E+03 -0.91180210984E+03  0.35637165783E+03  0.10322632122E+04  0.00000000000E+00 0.  1.
         22    1    1    2    0    0  0.35748926122E+03  0.11175546757E+04  0.10842760457E+04  0.15976174663E+04  0.00000000000E+00 0. -1.
<mgrwt>
<rscale>  0 0.24165271E+04</rscale>
<asrwt>0</asrwt>
<pdfrwt beam="1">  1        1 0.33511633E+00 0.24165271E+04</pdfrwt>
<pdfrwt beam="2">  1       -1 0.10311006E+00 0.24165271E+04</pdfrwt>
<totfact> 0.17909992E+00</totfact>
</mgrwt>
</event>
<event>
 6    1  0.1014650E-006  0.2911535E+04  0.7818608E-02  0.8269454E-01
          2   -1    0    0  501    0  0.00000000000E+00  0.00000000000E+00  0.29697727866E+04  0.29697727866E+04  0.00000000000E+00 0. -1.
         -2   -1    0    0    0  501 -0.00000000000E+00 -0.00000000000E+00 -0.71360962437E+03  0.71360962437E+03  0.00000000000E+00 0.  1.
         23    2    1    2    0    0  0.92575070981E+02  0.13896940121E+04  0.16591701032E+04  0.21680539635E+04  0.88277779716E+02 0.  0.
         11    1    3    3    0    0  0.10676981531E+03  0.10484088265E+04  0.12669183601E+04  0.16479208088E+04  0.00000000000E+00 0. -1.
        -11    1    3    3    0    0 -0.14194744331E+02  0.34128518556E+03  0.39225174310E+03  0.52013315470E+03  0.00000000000E+00 0.  1.
         22    1    1    2    0    0 -0.92575070981E+02 -0.13896940121E+04  0.59699305902E+03  0.15153284474E+04  0.00000000000E+00 0.  1.
<mgrwt>
<rscale>  0 0.29115346E+04</rscale>
<asrwt>0</asrwt>
<pdfrwt beam="1">  1        2 0.45688811E+00 0.29115346E+04</pdfrwt>
<pdfrwt beam="2">  1       -2 0.10978610E+00 0.29115346E+04</pdfrwt>
<totfact> 0.10346127E+00</totfact>
</mgrwt>
</event>
<event>
 6    1  0.1014650E-006  0.1723469E+04  0.7818608E-02  0.8748091E-01
          2   -1    0    0  501    0  0.00000000000E+00  0.00000000000E+00  0.10370809118E+04  0.10370809118E+04  0.00000000000E+00 0. -1.
         -2   -1    0    0    0  501 -0.00000000000E+00 -0.00000000000E+00 -0.71603543632E+03  0.71603543632E+03  0.00000000000E+00 0.  1.
         23    2    1    2    0    0  0.28637779523E+03 -0.54018869426E+03  0.77516427544E+03  0.99151280849E+03  0.91662034013E+02 0.  0.
         13    1    3    3    0    0  0.12594612971E+02 -0.59390198108E+02  0.11593393730E+03  0.13086824567E+03  0.00000000000E+00 0.  1.
        -13    1    3    3    0    0  0.27378318226E+03 -0.48079849616E+03  0.65923033814E+03  0.86064456282E+03  0.00000000000E+00 0. -1.
         22    1    1    2    0    0 -0.28637779523E+03  0.54018869426E+03 -0.45411880000E+03  0.76160353960E+03  0.00000000000E+00 0.  1.
<mgrwt>
<rscale>  0 0.17234694E+04</rscale>
<asrwt>0</asrwt>
<pdfrwt beam="1">  1        2 0.15955091E+00 0.17234694E+04</pdfrwt>
<pdfrwt beam="2">  1       -2 0.11015930E+00 0.17234694E+04</pdfrwt>
<totfact> 0.14834732E+01</totfact>
</mgrwt>
</event>
<event>
 6    1  0.1014650E-006  0.2302532E+04  0.7818608E-02  0.8476923E-01
          2   -1    0    0  501    0  0.00000000000E+00  0.00000000000E+00  0.18028698942E+04  0.18028698942E+04  0.00000000000E+00 0. -1.
         -2   -1    0    0    0  501 -0.00000000000E+00 -0.00000000000E+00 -0.73516872620E+03  0.73516872620E+03  0.00000000000E+00 0.  1.
         23    2    1    2    0    0  0.41087723621E+03 -0.10716725729E+04  0.60382916008E+03  0.13001050816E+04  0.91440481642E+02 0.  0.
         13    1    3    3    0    0  0.17370252734E+03 -0.58052931319E+03  0.31611433692E+03  0.68345821049E+03  0.00000000000E+00 0.  1.
        -13    1    3    3    0    0  0.23717470887E+03 -0.49114325976E+03  0.28771482316E+03  0.61664687107E+03  0.00000000000E+00 0. -1.
         22    1    1    2    0    0 -0.41087723621E+03  0.10716725729E+04  0.46387200789E+03  0.12379335388E+04  0.00000000000E+00 0.  1.
<mgrwt>
<rscale>  0 0.23025321E+04</rscale>
<asrwt>0</asrwt>
<pdfrwt beam="1">  1        2 0.27736460E+00 0.23025321E+04</pdfrwt>
<pdfrwt beam="2">  1       -2 0.11310288E+00 0.23025321E+04</pdfrwt>
<totfact> 0.47855643E+00</totfact>
</mgrwt>
</event>
<event>
 6    1  0.1014650E-006  0.2924373E+04  0.7818608E-02  0.8265663E-01
         -1   -1    0    0    0  501 -0.00000000000E+00  0.00000000000E+00  0.15473655507E+04  0.15473655507E+04  0.00000000000E+00 0.  1.
          1   -1    0    0  501    0  0.00000000000E+00 -0.00000000000E+00 -0.13816959353E+04  0.13816959353E+04  0.00000000000E+00 0. -1.
         23    2    1    2    0    0  0.12699983734E+04 -0.56106750345E+02  0.80360470617E+03  0.15067376777E+04  0.91837192167E+02 0.  0.
         11    1    3    3    0    0  0.15778542662E+03  0.18035801078E+02  0.80435020260E+02  0.17802057032E+03  0.00000000000E+00 0. -1.
        -11    1    3    3    0    0  0.11122129468E+04 -0.74142551423E+02  0.72316968591E+03  0.13287171074E+04  0.00000000000E+00 0.  1.
         22    1    1    2    0    0 -0.12699983734E+04  0.56106750345E+02 -0.63793509076E+03  0.14223238084E+04  0.00000000000E+00 0. -1.
<mgrwt>
<rscale>  0 0.29243725E+04</rscale>
<asrwt>0</asrwt>
<pdfrwt beam="1">  1        1 0.21256861E+00 0.29243725E+04</pdfrwt>
<pdfrwt beam="2">  1       -1 0.23805624E+00 0.29243725E+04</pdfrwt>
<totfact> 0.56604558E-01</totfact>
</mgrwt>
</event>
<event>
 6    1  0.1014650E-006  0.2925744E+04  0.7818608E-02  0.8265259E-01
         -2   -1    0    0    0  501 -0.00000000000E+00  0.00000000000E+00  0.75623931889E+03  0.75623931889E+03  0.00000000000E+00 0.  1.
          2   -1    0    0  501    0  0.00000000000E+00 -0.00000000000E+00 -0.28297853901E+04  0.28297853901E+04  0.00000000000E+00 0. -1.
         23    2    1    2    0    0  0.42656993931E+03  0.10297203398E+04 -0.21961081151E+04  0.24647275378E+04  0.98514420991E+02 0.  0.
         13    1    3    3    0    0  0.33682619181E+03  0.77189061547E+03 -0.17414492958E+04  0.19344024027E+04  0.00000000000E+00 0.  1.
        -13    1    3    3    0    0  0.89743747494E+02  0.25782972436E+03 -0.45465881928E+03  0.53032513511E+03  0.00000000000E+00 0. -1.
         22    1    1    2    0    0 -0.42656993931E+03 -0.10297203398E+04  0.12256204391E+03  0.11212971711E+04  0.00000000000E+00 0.  1.
<mgrwt>
<rscale>  0 0.29257443E+04</rscale>
<asrwt>0</asrwt>
<pdfrwt beam="1">  1        2 0.43535161E+00 0.29257443E+04</pdfrwt>
<pdfrwt beam="2">  1       -2 0.11634451E+00 0.29257443E+04</pdfrwt>
<totfact> 0.10943575E+00</totfact>
</mgrwt>
</event>
<event>
 6    1  0.1014650E-006  0.1417938E+04  0.7818608E-02  0.8940935E-01
         -2   -1    0    0    0  501 -0.00000000000E+00  0.00000000000E+00  0.58386177566E+03  0.58386177566E+03  0.00000000000E+00 0.  1.
          2   -1    0    0  501    0  0.00000000000E+00 -0.00000000000E+00 -0.86088364062E+03  0.86088364062E+03  0.00000000000E+00 0. -1.
         23    2    1    2    0    0  0.29288624349E+02  0.55148473356E+03  0.30932221457E+03  0.63926877821E+03  0.89392972322E+02 0.  0.
         11    1    3    3    0    0  0.36894796950E+02  0.51466531402E+03  0.26158891792E+03  0.57850702111E+03  0.00000000000E+00 0. -1.
        -11    1    3    3    0    0 -0.76061726014E+01  0.36819419548E+02  0.47733296645E+02  0.60761757102E+02  0.00000000000E+00 0.  1.
         22    1    1    2    0    0 -0.29288624349E+02 -0.55148473356E+03 -0.58634407953E+03  0.80547663806E+03  0.00000000000E+00 0. -1.
<mgrwt>
<rscale>  0 0.14179380E+04</rscale>
<asrwt>0</asrwt>
<pdfrwt beam="1">  1        2 0.13244364E+00 0.14179380E+04</pdfrwt>
<pdfrwt beam="2">  1       -2 0.89824888E-01 0.14179380E+04</pdfrwt>
<totfact> 0.32194368E+01</totfact>
</mgrwt>
</event>
<event>
 6    1  0.1014650E-006  0.3181952E+03  0.7818608E-02  0.1076483E+00
          2   -1    0    0  501    0  0.00000000000E+00  0.00000000000E+00  0.26900280161E+03  0.26900280161E+03  0.00000000000E+00 0. -1.
         -2   -1    0    0    0  501 -0.00000000000E+00 -0.00000000000E+00 -0.94095829997E+02  0.94095829997E+02  0.00000000000E+00 0.  1.
         23    2    1    2    0    0 -0.67872851370E+02  0.79332427378E+01 -0.52503479945E+02  0.12564300676E+03  0.91432431054E+02 0.  0.
         11    1    3    3    0    0 -0.79774445542E+02  0.32663014433E+02 -0.34669604902E+02  0.92912949460E+02  0.00000000000E+00 0.  1.
        -11    1    3    3    0    0  0.11901594171E+02 -0.24729771696E+02 -0.17833875043E+02  0.32730057302E+02  0.00000000000E+00 0. -1.
         22    1    1    2    0    0  0.67872851370E+02 -0.79332427378E+01  0.22741045156E+03  0.23745562485E+03  0.00000000000E+00 0. -1.
<mgrwt>
<rscale>  0 0.31819517E+03</rscale>
<asrwt>0</asrwt>
<pdfrwt beam="1">  1        2 0.41385046E-01 0.31819517E+03</pdfrwt>
<pdfrwt beam="2">  1       -2 0.14476282E-01 0.31819517E+03</pdfrwt>
<totfact> 0.44717092E+03</totfact>
</mgrwt>
</event>
<event>
 6    1  0.1014650E-006  0.2407844E+04  0.7818608E-02  0.8436573E-01
         -2   -1    0    0    0  501 -0.00000000000E+00  0.00000000000E+00  0.10753569770E+04  0.10753569770E+04  0.00000000000E+00 0.  1.
          2   -1    0    0  501    0  0.00000000000E+00 -0.00000000000E+00 -0.13478578049E+04  0.13478578049E+04  0.00000000000E+00 0. -1.
         23    2    1    2    0    0  0.22628523477E+03  0.64032758459E+03  0.86181604816E+03  0.11011333933E+04  0.92430654318E+02 0.  0.
         13    1    3    3    0    0  0.13557371313E+03  0.29792137447E+03  0.35579173245E+03  0.48345127359E+03  0.00000000000E+00 0. -1.
        -13    1    3    3    0    0  0.90711521643E+02  0.34240621013E+03  0.50602431571E+03  0.61768211969E+03  0.00000000000E+00 0.  1.
         22    1    1    2    0    0 -0.22628523477E+03 -0.64032758459E+03 -0.11343168760E+04  0.13220813887E+04  0.00000000000E+00 0. -1.
<mgrwt>
<rscale>  0 0.24078441E+04</rscale>
<asrwt>0</asrwt>
<pdfrwt beam="1">  1        2 0.20736274E+00 0.24078441E+04</pdfrwt>
<pdfrwt beam="2">  1       -2 0.16543954E+00 0.24078441E+04</pdfrwt>
<totfact> 0.32028985E+00</totfact>
</mgrwt>
</event>
<event>
 6    1  0.1014650E-006  0.2936690E+04  0.7818608E-02  0.8262044E-01
         -2   -1    0    0    0  501 -0.00000000000E+00  0.00000000000E+00  0.51368834278E+03  0.51368834278E+03  0.00000000000E+00 0.  1.
          2   -1    0    0  501    0  0.00000000000E+00 -0.00000000000E+00 -0.41971694408E+04  0.41971694408E+04  0.00000000000E+00 0. -1.
         23    2    1    2    0    0  0.80576002075E+03  0.95803927360E+02 -0.38038980242E+04  0.38905359932E+04  0.90567833173E+02 0.  0.
         11    1    3    3    0    0  0.65142623656E+03  0.75655358281E+02 -0.28895466150E+04  0.29630321489E+04  0.00000000000E+00 0. -1.
        -11    1    3    3    0    0  0.15433378420E+03  0.20148569079E+02 -0.91435140919E+03  0.92750384434E+03  0.00000000000E+00 0.  1.
         22    1    1    2    0    0 -0.80576002075E+03 -0.95803927360E+02  0.12041692624E+03  0.82032179031E+03  0.00000000000E+00 0.  1.
<mgrwt>
<rscale>  0 0.29366900E+04</rscale>
<asrwt>0</asrwt>
<pdfrwt beam="1">  1        2 0.64571838E+00 0.29366900E+04</pdfrwt>
<pdfrwt beam="2">  1       -2 0.79028975E-01 0.29366900E+04</pdfrwt>
<totfact> 0.28586212E-01</totfact>
</mgrwt>
</event>
<event>
 6    1  0.1014650E-006  0.1870876E+04  0.7818608E-02  0.8669491E-01
         -2   -1    0    0    0  501 -0.00000000000E+00  0.00000000000E+00  0.33617123516E+03  0.33617123516E+03  0.00000000000E+00 0.  1.
          2   -1    0    0  501    0  0.00000000000E+00 -0.00000000000E+00 -0.26029715470E+04  0.26029715470E+04  0.00000000000E+00 0. -1.
         23    2    1    2    0    0  0.49829662942E+03 -0.24633156322E+03  0.41319848098E+02  0.56503296106E+03  0.92607490566E+02 0.  0.
         13    1    3    3    0    0  0.24028666358E+03 -0.96541980784E+02 -0.22544221199E+02  0.25993513933E+03  0.00000000000E+00 0.  1.
        -13    1    3    3    0    0  0.25800996584E+03 -0.14978958243E+03  0.63864069297E+02  0.30509782173E+03  0.00000000000E+00 0. -1.
         22    1    1    2    0    0 -0.49829662942E+03  0.24633156322E+03 -0.23081201599E+04  0.23741098211E+04  0.00000000000E+00 0. -1.
<mgrwt>
<rscale>  0 0.18708759E+04</rscale>
<asrwt>0</asrwt>
<pdfrwt beam="1">  1        2 0.40045716E+00 0.18708759E+04</pdfrwt>
<pdfrwt beam="2">  1       -2 0.51718651E-01 0.18708759E+04</pdfrwt>
<totfact> 0.10059764E+01</totfact>
</mgrwt>
</event>
<event>
 6    1  0.1014650E-006  0.4327436E+04  0.7818608E-02  0.7941564E-01
          2   -1    0    0  501    0  0.00000000000E+00  0.00000000000E+00  0.31908828348E+04  0.31908828348E+04  0.00000000000E+00 0. -1.
         -2   -1    0    0    0  501 -0.00000000000E+00 -0.00000000000E+00 -0.14672039939E+04  0.14672039939E+04  0.00000000000E+00 0.  1.
         23    2    1    2    0    0 -0.36608649314E+03 -0.13369373879E+04  0.26491977337E+04  0.29913516606E+04  0.92277980054E+02 0.  0.
         13    1    3    3    0    0 -0.23701817919E+03 -0.92315566364E+03  0.19052421572E+04  0.21303383943E+04  0.00000000000E+00 0.  1.
        -13    1    3    3    0    0 -0.12906831394E+03 -0.41378172430E+03  0.74395557652E+03  0.86101326637E+03  0.00000000000E+00 0. -1.
         22    1    1    2    0    0  0.36608649314E+03  0.13369373879E+04 -0.92551889276E+03  0.16667351681E+04  0.00000000000E+00 0.  1.
<mgrwt>
<rscale>  0 0.43274362E+04</rscale>
<asrwt>0</asrwt>
<pdfrwt beam="1">  1        2 0.49090505E+00 0.43274362E+04</pdfrwt>
<pdfrwt beam="2">  1       -2 0.22572369E+00 0.43274362E+04</pdfrwt>
<totfact> 0.91774356E-02</totfact>
</mgrwt>
</event>
<event>
 6    1  0.1014650E-006  0.1127245E+04  0.7818608E-02  0.9179037E-01
          2   -1    0    0  501    0  0.00000000000E+00  0.00000000000E+00  0.12680586283E+03  0.12680586283E+03  0.00000000000E+00 0. -1.
         -2   -1    0    0    0  501 -0.00000000000E+00 -0.00000000000E+00 -0.25051692813E+04  0.25051692813E+04  0.00000000000E+00 0.  1.
         23    2    1    2    0    0  0.18838387317E+03  0.27095545962E+03 -0.22533468266E+04  0.22790806939E+04  0.87929196050E+02 0.  0.
         11    1    3    3    0    0  0.13933977434E+03  0.12389345359E+03 -0.12483267245E+04  0.12621746201E+04  0.00000000000E+00 0.  1.
        -11    1    3    3    0    0  0.49044098831E+02  0.14706200603E+03 -0.10050201020E+04  0.10169060737E+04  0.00000000000E+00 0. -1.
         22    1    1    2    0    0 -0.18838387317E+03 -0.27095545962E+03 -0.12501659187E+03  0.35289445024E+03  0.00000000000E+00 0. -1.
<mgrwt>
<rscale>  0 0.11272447E+04</rscale>
<asrwt>0</asrwt>
<pdfrwt beam="1">  1        2 0.19508593E-01 0.11272447E+04</pdfrwt>
<pdfrwt beam="2">  1       -2 0.38541068E+00 0.11272447E+04</pdfrwt>
<totfact> 0.27414533E+00</totfact>
</mgrwt>
</event>
<event>
 6    1  0.1014650E-006  0.2621797E+04  0.7818608E-02  0.8360835E-01
          1   -1    0    0  501    0  0.00000000000E+00  0.00000000000E+00  0.70562099807E+03  0.70562099807E+03  0.00000000000E+00 0. -1.
         -1   -1    0    0    0  501 -0.00000000000E+00 -0.00000000000E+00 -0.24353787919E+04  0.24353787919E+04  0.00000000000E+00 0.  1.
         23    2    1    2    0    0 -0.21712891341E+01  0.72179946766E+03  0.44270876635E+03  0.85176189471E+03  0.92239294612E+02 0.  0.
         13    1    3    3    0    0 -0.30453959662E+02  0.57838831184E+03  0.37990578169E+03  0.69266794778E+03  0.00000000000E+00 0. -1.
        -13    1    3    3    0    0  0.28282670528E+02  0.14341115582E+03  0.62802984665E+02  0.15909394693E+03  0.00000000000E+00 0.  1.
         22    1    1    2    0    0  0.21712891341E+01 -0.72179946766E+03 -0.21724665602E+04  0.22892378953E+04  0.00000000000E+00 0.  1.
<mgrwt>
<rscale>  0 0.26217966E+04</rscale>
<asrwt>0</asrwt>
<pdfrwt beam="1">  1        1 0.10855708E+00 0.26217966E+04</pdfrwt>
<pdfrwt beam="2">  1       -1 0.37467366E+00 0.26217966E+04</pdfrwt>
<totfact> 0.25146044E-01</totfact>
</mgrwt>
</event>
<event>
 6    1  0.1014650E-006  0.1578735E+04  0.7818608E-02  0.8833719E-01
          2   -1    0    0  501    0  0.00000000000E+00  0.00000000000E+00  0.72496913326E+03  0.72496913326E+03  0.00000000000E+00 0. -1.
         -2   -1    0    0    0  501 -0.00000000000E+00 -0.00000000000E+00 -0.85948652191E+03  0.85948652191E+03  0.00000000000E+00 0.  1.
         23    2    1    2    0    0  0.27011685948E+03 -0.67609789711E+03  0.23303039931E+03  0.76888048348E+03  0.82477552196E+02 0.  0.
         11    1    3    3    0    0  0.18831441051E+02 -0.12637748707E+03  0.29847029701E+02  0.13121256644E+03  0.00000000000E+00 0. -1.
        -11    1    3    3    0    0  0.25128541843E+03 -0.54972041004E+03  0.20318336960E+03  0.63766791703E+03  0.00000000000E+00 0.  1.
         22    1    1    2    0    0 -0.27011685948E+03  0.67609789711E+03 -0.36754778795E+03  0.81557517169E+03  0.00000000000E+00 0.  1.
<mgrwt>
<rscale>  0 0.15787352E+04</rscale>
<asrwt>0</asrwt>
<pdfrwt beam="1">  1        2 0.11153371E+00 0.15787352E+04</pdfrwt>
<pdfrwt beam="2">  1       -2 0.13222870E+00 0.15787352E+04</pdfrwt>
<totfact> 0.15648631E+01</totfact>
</mgrwt>
</event>
<event>
 6    1  0.1014650E-006  0.2750370E+04  0.7818608E-02  0.8318844E-01
         -2   -1    0    0    0  501 -0.00000000000E+00  0.00000000000E+00  0.47906210678E+03  0.47906210678E+03  0.00000000000E+00 0.  1.
          2   -1    0    0  501    0  0.00000000000E+00 -0.00000000000E+00 -0.39475760120E+04  0.39475760120E+04  0.00000000000E+00 0. -1.
         23    2    1    2    0    0 -0.70634912710E+03  0.64238519103E+03 -0.14671245181E+03  0.97034636043E+03  0.91976587566E+02 0.  0.
         13    1    3    3    0    0 -0.58343700796E+03  0.57374278820E+03 -0.13086228786E+03  0.82867633468E+03  0.00000000000E+00 0.  1.
        -13    1    3    3    0    0 -0.12291211914E+03  0.68642402833E+02 -0.15850163950E+02  0.14167002575E+03  0.00000000000E+00 0. -1.
         22    1    1    2    0    0  0.70634912710E+03 -0.64238519103E+03 -0.33218014534E+04  0.34562917584E+04  0.00000000000E+00 0. -1.
<mgrwt>
<rscale>  0 0.27503702E+04</rscale>
<asrwt>0</asrwt>
<pdfrwt beam="1">  1        2 0.60731940E+00 0.27503702E+04</pdfrwt>
<pdfrwt beam="2">  1       -2 0.73701860E-01 0.27503702E+04</pdfrwt>
<totfact> 0.54716478E-01</totfact>
</mgrwt>
</event>
<event>
 6    1  0.1014650E-006  0.1526537E+04  0.7818608E-02  0.8866995E-01
         -2   -1    0    0    0  501 -0.00000000000E+00  0.00000000000E+00  0.29035988427E+03  0.29035988427E+03  0.00000000000E+00 0.  1.
          2   -1    0    0  501    0  0.00000000000E+00 -0.00000000000E+00 -0.20064033066E+04  0.20064033066E+04  0.00000000000E+00 0. -1.
         23    2    1    2    0    0  0.41485613175E+03 -0.18394005326E+03  0.56990274566E+02  0.46657521048E+03  0.92222461417E+02 0.  0.
         13    1    3    3    0    0  0.34549126369E+02  0.57050414787E+01  0.19184492960E+02  0.39927864973E+02  0.00000000000E+00 0. -1.
        -13    1    3    3    0    0  0.38030700539E+03 -0.18964509474E+03  0.37805781605E+02  0.42664734551E+03  0.00000000000E+00 0.  1.
         22    1    1    2    0    0 -0.41485613175E+03  0.18394005326E+03 -0.17730336969E+04  0.18301879804E+04  0.00000000000E+00 0. -1.
<mgrwt>
<rscale>  0 0.15265373E+04</rscale>
<asrwt>0</asrwt>
<pdfrwt beam="1">  1        2 0.30867743E+00 0.15265373E+04</pdfrwt>
<pdfrwt beam="2">  1       -2 0.44670752E-01 0.15265373E+04</pdfrwt>
<totfact> 0.30378167E+01</totfact>
</mgrwt>
</event>
<event>
 6    1  0.1014650E-006  0.1936117E+04  0.7818608E-02  0.8637085E-01
         -2   -1    0    0    0  501 -0.00000000000E+00  0.00000000000E+00  0.13252421390E+04  0.13252421390E+04  0.00000000000E+00 0.  1.
          2   -1    0    0  501    0  0.00000000000E+00 -0.00000000000E+00 -0.70714420329E+03  0.70714420329E+03  0.00000000000E+00 0. -1.
         23    2    1    2    0    0 -0.60123945360E+03 -0.63200011712E+03  0.74510449737E+03  0.11508855225E+04  0.91889853919E+02 0.  0.
         11    1    3    3    0    0 -0.34263753176E+03 -0.29517261697E+03  0.37102202613E+03  0.58496555100E+03  0.00000000000E+00 0. -1.
        -11    1    3    3    0    0 -0.25860192184E+03 -0.33682750015E+03  0.37408247124E+03  0.56591997148E+03  0.00000000000E+00 0.  1.
         22    1    1    2    0    0  0.60123945360E+03  0.63200011712E+03 -0.12700656166E+03  0.88150081980E+03  0.00000000000E+00 0. -1.
<mgrwt>
<rscale>  0 0.19361170E+04</rscale>
<asrwt>0</asrwt>
<pdfrwt beam="1">  1        2 0.10879142E+00 0.19361170E+04</pdfrwt>
<pdfrwt beam="2">  1       -2 0.20388341E+00 0.19361170E+04</pdfrwt>
<totfact> 0.47351465E+00</totfact>
</mgrwt>
</event>
<event>
 6    1  0.1014650E-006  0.2842592E+04  0.7818608E-02  0.8290166E-01
          2   -1    0    0  501    0  0.00000000000E+00  0.00000000000E+00  0.38052891888E+04  0.38052891888E+04  0.00000000000E+00 0. -1.
         -2   -1    0    0    0  501 -0.00000000000E+00 -0.00000000000E+00 -0.53086157489E+03  0.53086157489E+03  0.00000000000E+00 0.  1.
         23    2    1    2    0    0 -0.80740123325E+03  0.17480878534E+03  0.34004196223E+04  0.35004900376E+04  0.90122321040E+02 0.  0.
         11    1    3    3    0    0 -0.11653777880E+03  0.58523060655E+02  0.52467215588E+03  0.54063562005E+03  0.00000000000E+00 0. -1.
        -11    1    3    3    0    0 -0.69086345445E+03  0.11628572469E+03  0.28757474664E+04  0.29598544176E+04  0.00000000000E+00 0.  1.
         22    1    1    2    0    0  0.80740123325E+03 -0.17480878534E+03 -0.12599200842E+03  0.83566072606E+03  0.00000000000E+00 0.  1.
<mgrwt>
<rscale>  0 0.28425916E+04</rscale>
<asrwt>0</asrwt>
<pdfrwt beam="1">  1        2 0.58542909E+00 0.28425916E+04</pdfrwt>
<pdfrwt beam="2">  1       -2 0.81671014E-01 0.28425916E+04</pdfrwt>
<totfact> 0.55669610E-01</totfact>
</mgrwt>
</event>
<event>
 6    1  0.1014650E-006  0.1653698E+04  0.7818608E-02  0.8788222E-01
         -2   -1    0    0    0  501 -0.00000000000E+00  0.00000000000E+00  0.44526777288E+03  0.44526777288E+03  0.00000000000E+00 0.  1.
          2   -1    0    0  501    0  0.00000000000E+00 -0.00000000000E+00 -0.15354345717E+04  0.15354345717E+04  0.00000000000E+00 0. -1.
         23    2    1    2    0    0 -0.24611801303E+03  0.78679212482E+03 -0.53733961626E+03  0.98811289378E+03  0.89539397057E+02 0.  0.
         11    1    3    3    0    0 -0.16398669329E+03  0.49363523431E+03 -0.38851713187E+03  0.64924028055E+03  0.00000000000E+00 0. -1.
        -11    1    3    3    0    0 -0.82131319742E+02  0.29315689051E+03 -0.14882248439E+03  0.33887261323E+03  0.00000000000E+00 0.  1.
         22    1    1    2    0    0  0.24611801303E+03 -0.78679212482E+03 -0.55282718252E+03  0.99258945076E+03  0.00000000000E+00 0. -1.
<mgrwt>
<rscale>  0 0.16536983E+04</rscale>
<asrwt>0</asrwt>
<pdfrwt beam="1">  1        2 0.23622071E+00 0.16536983E+04</pdfrwt>
<pdfrwt beam="2">  1       -2 0.68502733E-01 0.16536983E+04</pdfrwt>
<totfact> 0.22558276E+01</totfact>
</mgrwt>
</event>
<event>
 6    1  0.1014650E-006  0.3314358E+04  0.7818608E-02  0.8159252E-01
         -2   -1    0    0    0  501 -0.00000000000E+00  0.00000000000E+00  0.14175990847E+04  0.14175990847E+04  0.00000000000E+00 0.  1.
          2   -1    0    0  501    0  0.00000000000E+00 -0.00000000000E+00 -0.19372488852E+04  0.19372488852E+04  0.00000000000E+00 0. -1.
         23    2    1    2    0    0 -0.42981274489E+03 -0.14591051037E+04 -0.92259651289E+03  0.17812874365E+04  0.89854920133E+02 0.  0.
         13    1    3    3    0    0 -0.21774740070E+03 -0.72299053756E+03 -0.51022499220E+03  0.91129511717E+03  0.00000000000E+00 0.  1.
        -13    1    3    3    0    0 -0.21206534419E+03 -0.73611456612E+03 -0.41237152069E+03  0.86999231935E+03  0.00000000000E+00 0. -1.
         22    1    1    2    0    0  0.42981274489E+03  0.14591051037E+04  0.40294671230E+03  0.15735605334E+04  0.00000000000E+00 0.  1.
<mgrwt>
<rscale>  0 0.33143580E+04</rscale>
<asrwt>0</asrwt>
<pdfrwt beam="1">  1        2 0.29803829E+00 0.33143580E+04</pdfrwt>
<pdfrwt beam="2">  1       -2 0.21809217E+00 0.33143580E+04</pdfrwt>
<totfact> 0.61389886E-01</totfact>
</mgrwt>
</event>
<event>
 6    1  0.1014650E-006  0.1477773E+04  0.7818608E-02  0.8899369E-01
          2   -1    0    0  501    0  0.00000000000E+00  0.00000000000E+00  0.11156588646E+04  0.11156588646E+04  0.00000000000E+00 0. -1.
         -2   -1    0    0    0  501 -0.00000000000E+00 -0.00000000000E+00 -0.48935520677E+03  0.48935520677E+03  0.00000000000E+00 0.  1.
         23    2    1    2    0    0 -0.44246433416E+03 -0.13329539466E+03 -0.30788386139E+03  0.56278152999E+03  0.91587276133E+02 0.  0.
         11    1    3    3    0    0 -0.32454145720E+03 -0.12962701471E+03 -0.25942437099E+03  0.43523709015E+03  0.00000000000E+00 0.  1.
        -11    1    3    3    0    0 -0.11792287697E+03 -0.36683799559E+01 -0.48459490398E+02  0.12754443984E+03  0.00000000000E+00 0. -1.
         22    1    1    2    0    0  0.44246433416E+03  0.13329539466E+03  0.93418751925E+03  0.10422325414E+04  0.00000000000E+00 0. -1.
<mgrwt>
<rscale>  0 0.14777733E+04</rscale>
<asrwt>0</asrwt>
<pdfrwt beam="1">  1        2 0.17163983E+00 0.14777733E+04</pdfrwt>
<pdfrwt beam="2">  1       -2 0.75285417E-01 0.14777733E+04</pdfrwt>
<totfact> 0.32657029E+01</totfact>
</mgrwt>
</event>
<event>
 6    1  0.1014650E-006  0.2945781E+04  0.7818608E-02  0.8259385E-01
          2   -1    0    0  501    0  0.00000000000E+00  0.00000000000E+00  0.28708477299E+04  0.28708477299E+04  0.00000000000E+00 0. -1.
         -2   -1    0    0    0  501 -0.00000000000E+00 -0.00000000000E+00 -0.75566773002E+03  0.75566773002E+03  0.00000000000E+00 0.  1.
         23    2    1    2    0    0 -0.79197706655E+03 -0.97681279628E+03  0.19993573727E+04  0.23636592551E+04  0.89801212494E+02 0.  0.
         11    1    3    3    0    0 -0.44977914375E+03 -0.56542112930E+03  0.12301822965E+04  0.14266572168E+04  0.00000000000E+00 0.  1.
        -11    1    3    3    0    0 -0.34219792281E+03 -0.41139166698E+03  0.76917507615E+03  0.93700203831E+03  0.00000000000E+00 0. -1.
         22    1    1    2    0    0  0.79197706655E+03  0.97681279628E+03  0.11582262717E+03  0.12628562048E+04  0.00000000000E+00 0.  1.
<mgrwt>
<rscale>  0 0.29457814E+04</rscale>
<asrwt>0</asrwt>
<pdfrwt beam="1">  1        2 0.44166888E+00 0.29457814E+04</pdfrwt>
<pdfrwt beam="2">  1       -2 0.11625658E+00 0.29457814E+04</pdfrwt>
<totfact> 0.10331368E+00</totfact>
</mgrwt>
</event>
<event>
 6    1  0.1014650E-006  0.6729030E+04  0.7818608E-02  0.7606045E-01
         -2   -1    0    0    0  501 -0.00000000000E+00  0.00000000000E+00  0.29806494759E+04  0.29806494759E+04  0.00000000000E+00 0.  1.
          2   -1    0    0  501    0  0.00000000000E+00 -0.00000000000E+00 -0.37978169479E+04  0.37978169479E+04  0.00000000000E+00 0. -1.
         23    2    1    2    0    0 -0.31986572525E+04  0.33002509697E+03  0.58622365083E+03  0.32699294883E+04  0.91956001453E+02 0.  0.
         11    1    3    3    0    0 -0.26079412500E+04  0.28246755143E+03  0.44443773741E+03  0.26605770772E+04  0.00000000000E+00 0. -1.
        -11    1    3    3    0    0 -0.59071600248E+03  0.47557545540E+02  0.14178591341E+03  0.60935241115E+03  0.00000000000E+00 0.  1.
         22    1    1    2    0    0  0.31986572525E+04 -0.33002509697E+03 -0.14033911229E+04  0.35085369355E+04  0.00000000000E+00 0. -1.
<mgrwt>
<rscale>  0 0.67290300E+04</rscale>
<asrwt>0</asrwt>
<pdfrwt beam="1">  1        2 0.58427953E+00 0.67290300E+04</pdfrwt>
<pdfrwt beam="2">  1       -2 0.45856146E+00 0.67290300E+04</pdfrwt>
<totfact> 0.95907074E-04</totfact>
</mgrwt>
</event>
<event>
 6    1  0.1014650E-006  0.1831034E+04  0.7818608E-02  0.8689968E-01
          1   -1    0    0  501    0  0.00000000000E+00  0.00000000000E+00  0.14627110965E+04  0.14627110965E+04  0.00000000000E+00 0. -1.
         -1   -1    0    0    0  501 -0.00000000000E+00 -0.00000000000E+00 -0.57302561561E+03  0.57302561561E+03  0.00000000000E+00 0.  1.
         23    2    1    2    0    0 -0.72764718301E+03  0.44104091722E+03  0.81487077108E+03  0.11815793763E+04  0.90155062203E+02 0.  0.
         11    1    3    3    0    0 -0.53373968632E+03  0.34022987742E+03  0.55307253123E+03  0.84054961011E+03  0.00000000000E+00 0. -1.
        -11    1    3    3    0    0 -0.19390749669E+03  0.10081103980E+03  0.26179823985E+03  0.34102976615E+03  0.00000000000E+00 0.  1.
         22    1    1    2    0    0  0.72764718301E+03 -0.44104091722E+03  0.74814709821E+02  0.85415733586E+03  0.00000000000E+00 0.  1.
<mgrwt>
<rscale>  0 0.18310335E+04</rscale>
<asrwt>0</asrwt>
<pdfrwt beam="1">  1        1 0.22503247E+00 0.18310335E+04</pdfrwt>
<pdfrwt beam="2">  1       -1 0.88157788E-01 0.18310335E+04</pdfrwt>
<totfact> 0.82620148E+00</totfact>
</mgrwt>
</event>
<event>
 6    1  0.1014650E-006  0.1436646E+04  0.7818608E-02  0.8927711E-01
          1   -1    0    0  501    0  0.00000000000E+00  0.00000000000E+00  0.14421330077E+04  0.14421330077E+04  0.00000000000E+00 0. -1.
         -1   -1    0    0    0  501 -0.00000000000E+00 -0.00000000000E+00 -0.35779489532E+03  0.35779489532E+03  0.00000000000E+00 0.  1.
         23    2    1    2    0    0  0.63760744730E+03  0.31986995495E+03  0.61469395407E+03  0.94586368977E+03  0.89159506117E+02 0.  0.
         13    1    3    3    0    0  0.14406431829E+03  0.44298031101E+02  0.16555568972E+03  0.22388731488E+03  0.00000000000E+00 0. -1.
        -13    1    3    3    0    0  0.49354312901E+03  0.27557192385E+03  0.44913826435E+03  0.72197637489E+03  0.00000000000E+00 0.  1.
         22    1    1    2    0    0 -0.63760744730E+03 -0.31986995495E+03  0.46964415833E+03  0.85406421326E+03  0.00000000000E+00 0. -1.
<mgrwt>
<rscale>  0 0.14366459E+04</rscale>
<asrwt>0</asrwt>
<pdfrwt beam="1">  1        1 0.22186661E+00 0.14366459E+04</pdfrwt>
<pdfrwt beam="2">  1       -1 0.55045369E-01 0.14366459E+04</pdfrwt>
<totfact> 0.23276861E+01</totfact>
</mgrwt>
</event>
<event>
 6    1  0.1014650E-006  0.2898402E+04  0.7818608E-02  0.8273353E-01
          2   -1    0    0  501    0  0.00000000000E+00  0.00000000000E+00  0.19535672748E+04  0.19535672748E+04  0.00000000000E+00 0. -1.
         -2   -1    0    0    0  501 -0.00000000000E+00 -0.00000000000E+00 -0.10750507344E+04  0.10750507344E+04  0.00000000000E+00 0.  1.
         23    2    1    2    0    0 -0.10235510545E+04  0.66208666900E+03 -0.37622363951E+03  0.12792214168E+04  0.94062148658E+02 0.  0.
         13    1    3    3    0    0 -0.27247399629E+03  0.13280382433E+03 -0.11207570074E+03  0.32317162176E+03  0.00000000000E+00 0. -1.
        -13    1    3    3    0    0 -0.75107705825E+03  0.52928284467E+03 -0.26414793877E+03  0.95604979506E+03  0.00000000000E+00 0.  1.
         22    1    1    2    0    0  0.10235510545E+04 -0.66208666900E+03  0.12547401799E+04  0.17493965924E+04  0.00000000000E+00 0. -1.
<mgrwt>
<rscale>  0 0.28984023E+04</rscale>
<asrwt>0</asrwt>
<pdfrwt beam="1">  1        2 0.30054881E+00 0.28984023E+04</pdfrwt>
<pdfrwt beam="2">  1       -2 0.16539242E+00 0.28984023E+04</pdfrwt>
<totfact> 0.14078738E+00</totfact>
</mgrwt>
</event>
<event>
 6    1  0.1014650E-006  0.8046890E+03  0.7818608E-02  0.9553255E-01
          2   -1    0    0  501    0  0.00000000000E+00  0.00000000000E+00  0.23377167797E+03  0.23377167797E+03  0.00000000000E+00 0. -1.
         -2   -1    0    0    0  501 -0.00000000000E+00 -0.00000000000E+00 -0.69247518430E+03  0.69247518430E+03  0.00000000000E+00 0.  1.
         23    2    1    2    0    0  0.23519386131E+03  0.60601704126E+00  0.13628070133E+03  0.28646351846E+03  0.90401317475E+02 0.  0.
         11    1    3    3    0    0  0.18423516125E+03  0.34630284489E+02  0.82025057608E+02  0.20462150747E+03  0.00000000000E+00 0.  1.
        -11    1    3    3    0    0  0.50958700056E+02 -0.34024267448E+02  0.54255643726E+02  0.81842010990E+02  0.00000000000E+00 0. -1.
         22    1    1    2    0    0 -0.23519386131E+03 -0.60601704126E+00 -0.59498420766E+03  0.63978334381E+03  0.00000000000E+00 0.  1.
<mgrwt>
<rscale>  0 0.80468897E+03</rscale>
<asrwt>0</asrwt>
<pdfrwt beam="1">  1        2 0.35964874E-01 0.80468897E+03</pdfrwt>
<pdfrwt beam="2">  1       -2 0.10653464E+00 0.80468897E+03</pdfrwt>
<totfact> 0.10371305E+02</totfact>
</mgrwt>
</event>
<event>
 6    1  0.1014650E-006  0.1494258E+04  0.7818608E-02  0.8888280E-01
         -3   -1    0    0    0  501 -0.00000000000E+00  0.00000000000E+00  0.23865377899E+04  0.23865377899E+04  0.00000000000E+00 0.  1.
          3   -1    0    0  501    0  0.00000000000E+00 -0.00000000000E+00 -0.23389600412E+03  0.23389600412E+03  0.00000000000E+00 0. -1.
         23    2    1    2    0    0 -0.48225035572E+03  0.27190019159E+03  0.20829992458E+03  0.59881058654E+03  0.93220921451E+02 0.  0.
         11    1    3    3    0    0 -0.20158217193E+03  0.16673446716E+03  0.91809111321E+02  0.27724477903E+03  0.00000000000E+00 0.  1.
        -11    1    3    3    0    0 -0.28066818379E+03  0.10516572444E+03  0.11649081326E+03  0.32156580751E+03  0.00000000000E+00 0. -1.
         22    1    1    2    0    0  0.48225035572E+03 -0.27190019159E+03  0.19443418612E+04  0.20216232074E+04  0.00000000000E+00 0.  1.
<mgrwt>
<rscale>  0 0.14942579E+04</rscale>
<asrwt>0</asrwt>
<pdfrwt beam="1">  1        3 0.35984002E-01 0.14942579E+04</pdfrwt>
<pdfrwt beam="2">  1       -3 0.36715964E+00 0.14942579E+04</pdfrwt>
<totfact> 0.31405585E-01</totfact>
</mgrwt>
</event>
<event>
 6    1  0.1014650E-006  0.2439380E+04  0.7818608E-02  0.8424906E-01
          1   -1    0    0  501    0  0.00000000000E+00  0.00000000000E+00  0.19661293165E+04  0.19661293165E+04  0.00000000000E+00 0. -1.
         -1   -1    0    0    0  501 -0.00000000000E+00 -0.00000000000E+00 -0.75663597788E+03  0.75663597788E+03  0.00000000000E+00 0.  1.
         23    2    1    2    0    0  0.86101321448E+03  0.32281648305E+03 -0.28583271342E+03  0.96732966776E+03  0.92044059191E+02 0.  0.
         11    1    3    3    0    0  0.43512755888E+03  0.13905488056E+03 -0.99842099738E+02  0.46759030912E+03  0.00000000000E+00 0. -1.
        -11    1    3    3    0    0  0.42588565560E+03  0.18376160250E+03 -0.18599061369E+03  0.49973935864E+03  0.00000000000E+00 0.  1.
         22    1    1    2    0    0 -0.86101321448E+03 -0.32281648305E+03  0.14953260520E+04  0.17554356266E+04  0.00000000000E+00 0. -1.
<mgrwt>
<rscale>  0 0.24393804E+04</rscale>
<asrwt>0</asrwt>
<pdfrwt beam="1">  1        1 0.30248143E+00 0.24393804E+04</pdfrwt>
<pdfrwt beam="2">  1       -1 0.11640554E+00 0.24393804E+04</pdfrwt>
<totfact> 0.18702466E+00</totfact>
</mgrwt>
</event>
<event>
 6    1  0.1014650E-006  0.1941467E+04  0.7818608E-02  0.8634487E-01
          2   -1    0    0  501    0  0.00000000000E+00  0.00000000000E+00  0.13125461092E+04  0.13125461092E+04  0.00000000000E+00 0. -1.
         -2   -1    0    0    0  501 -0.00000000000E+00 -0.00000000000E+00 -0.71793529756E+03  0.71793529756E+03  0.00000000000E+00 0.  1.
         23    2    1    2    0    0 -0.39684228842E+03 -0.12166735789E+03  0.12126884568E+04  0.12859636277E+04  0.10393464540E+03 0.  0.
         13    1    3    3    0    0 -0.24894728837E+03 -0.12414185460E+03  0.73420323201E+03  0.78513714620E+03  0.00000000000E+00 0.  1.
        -13    1    3    3    0    0 -0.14789500005E+03  0.24744967055E+01  0.47848522480E+03  0.50082648145E+03  0.00000000000E+00 0. -1.
         22    1    1    2    0    0  0.39684228842E+03  0.12166735789E+03 -0.61807764521E+03  0.74451777907E+03  0.00000000000E+00 0.  1.
<mgrwt>
<rscale>  0 0.19414666E+04</rscale>
<asrwt>0</asrwt>
<pdfrwt beam="1">  1        2 0.20193017E+00 0.19414666E+04</pdfrwt>
<pdfrwt beam="2">  1       -2 0.11045158E+00 0.19414666E+04</pdfrwt>
<totfact> 0.98724963E+00</totfact>
</mgrwt>
</event>
<event>
 6    1  0.1014650E-006  0.1408855E+04  0.7818608E-02  0.8947433E-01
          2   -1    0    0  501    0  0.00000000000E+00  0.00000000000E+00  0.10838652241E+04  0.10838652241E+04  0.00000000000E+00 0. -1.
         -2   -1    0    0    0  501 -0.00000000000E+00 -0.00000000000E+00 -0.45782287895E+03  0.45782287895E+03  0.00000000000E+00 0.  1.
         23    2    1    2    0    0 -0.26558800915E+03  0.42093149951E+03 -0.22493273439E+03  0.55584891541E+03  0.10321319619E+03 0.  0.
         11    1    3    3    0    0 -0.49458498363E+02  0.12269979834E+03 -0.10371518386E+03  0.16810182312E+03  0.00000000000E+00 0. -1.
        -11    1    3    3    0    0 -0.21612951079E+03  0.29823170118E+03 -0.12121755053E+03  0.38774709229E+03  0.00000000000E+00 0.  1.
         22    1    1    2    0    0  0.26558800915E+03 -0.42093149951E+03  0.85097507956E+03  0.98583918766E+03  0.00000000000E+00 0. -1.
<mgrwt>
<rscale>  0 0.14088553E+04</rscale>
<asrwt>0</asrwt>
<pdfrwt beam="1">  1        2 0.16674850E+00 0.14088553E+04</pdfrwt>
<pdfrwt beam="2">  1       -2 0.70434289E-01 0.14088553E+04</pdfrwt>
<totfact> 0.39775182E+01</totfact>
</mgrwt>
</event>
<event>
 6    1  0.1014650E-006  0.1655388E+04  0.7818608E-02  0.8787225E-01
          2   -1    0    0  501    0  0.00000000000E+00  0.00000000000E+00  0.52568392772E+03  0.52568392772E+03  0.00000000000E+00 0. -1.
         -2   -1    0    0    0  501 -0.00000000000E+00 -0.00000000000E+00 -0.13032113572E+04  0.13032113572E+04  0.00000000000E+00 0.  1.
         23    2    1    2    0    0  0.76266098982E+02  0.30050252168E+03  0.45488794500E+03  0.55808218353E+03  0.91730026052E+02 0.  0.
         13    1    3    3    0    0 -0.77787903040E+01  0.74621578897E+02  0.62780012187E+02  0.97827498925E+02  0.00000000000E+00 0.  1.
        -13    1    3    3    0    0  0.84044889286E+02  0.22588094278E+03  0.39210793281E+03  0.46025468461E+03  0.00000000000E+00 0. -1.
         22    1    1    2    0    0 -0.76266098982E+02 -0.30050252168E+03 -0.12324153745E+04  0.12708131014E+04  0.00000000000E+00 0.  1.
<mgrwt>
<rscale>  0 0.16553879E+04</rscale>
<asrwt>0</asrwt>
<pdfrwt beam="1">  1        2 0.80874451E-01 0.16553879E+04</pdfrwt>
<pdfrwt beam="2">  1       -2 0.20049405E+00 0.16553879E+04</pdfrwt>
<totfact> 0.73132100E+00</totfact>
</mgrwt>
</event>
<event>
 6    1  0.1014650E-006  0.2735918E+04  0.7818608E-02  0.8323444E-01
         -2   -1    0    0    0  501 -0.00000000000E+00  0.00000000000E+00  0.51667360914E+03  0.51667360914E+03  0.00000000000E+00 0.  1.
          2   -1    0    0  501    0  0.00000000000E+00 -0.00000000000E+00 -0.36218440904E+04  0.36218440904E+04  0.00000000000E+00 0. -1.
         23    2    1    2    0    0  0.21364967019E+03 -0.11200965773E+04 -0.41494001737E+03  0.12166000975E+04  0.87624513228E+02 0.  0.
         11    1    3    3    0    0  0.11747033157E+03 -0.81665206442E+03 -0.28746950432E+03  0.87370394817E+03  0.00000000000E+00 0. -1.
        -11    1    3    3    0    0  0.96179338621E+02 -0.30344451285E+03 -0.12747051305E+03  0.34289614937E+03  0.00000000000E+00 0.  1.
         22    1    1    2    0    0 -0.21364967019E+03  0.11200965773E+04 -0.26902304639E+04  0.29219176020E+04  0.00000000000E+00 0. -1.
<mgrwt>
<rscale>  0 0.27359176E+04</rscale>
<asrwt>0</asrwt>
<pdfrwt beam="1">  1        2 0.55720676E+00 0.27359176E+04</pdfrwt>
<pdfrwt beam="2">  1       -2 0.79488250E-01 0.27359176E+04</pdfrwt>
<totfact> 0.81696627E-01</totfact>
</mgrwt>
</event>
<event>
 6    1  0.1014650E-006  0.1312811E+04  0.7818608E-02  0.9019467E-01
         -2   -1    0    0    0  501 -0.00000000000E+00  0.00000000000E+00  0.50234625109E+03  0.50234625109E+03  0.00000000000E+00 0.  1.
          2   -1    0    0  501    0  0.00000000000E+00 -0.00000000000E+00 -0.85771198026E+03  0.85771198026E+03  0.00000000000E+00 0. -1.
         23    2    1    2    0    0  0.18688465715E+03  0.44616794404E+03 -0.63324601868E+03  0.80219698995E+03  0.92345986120E+02 0.  0.
         13    1    3    3    0    0  0.11567574697E+03  0.36515237036E+03 -0.46649303940E+03  0.60359994021E+03  0.00000000000E+00 0.  1.
        -13    1    3    3    0    0  0.71208910181E+02  0.81015573680E+02 -0.16675297927E+03  0.19859704974E+03  0.00000000000E+00 0. -1.
         22    1    1    2    0    0 -0.18688465715E+03 -0.44616794404E+03  0.27788028951E+03  0.55786124140E+03  0.00000000000E+00 0.  1.
<mgrwt>
<rscale>  0 0.13128113E+04</rscale>
<asrwt>0</asrwt>
<pdfrwt beam="1">  1        2 0.13195569E+00 0.13128113E+04</pdfrwt>
<pdfrwt beam="2">  1       -2 0.77284040E-01 0.13128113E+04</pdfrwt>
<totfact> 0.45871176E+01</totfact>
</mgrwt>
</event>
<event>
 6    1  0.1014650E-006  0.1018195E+04  0.7818608E-02  0.9288811E-01
         -1   -1    0    0    0  501 -0.00000000000E+00  0.00000000000E+00  0.13765687542E+03  0.13765687542E+03  0.00000000000E+00 0.  1.
          1   -1    0    0  501    0  0.00000000000E+00 -0.00000000000E+00 -0.18827994572E+04  0.18827994572E+04  0.00000000000E+00 0. -1.
         23    2    1    2    0    0 -0.18645866619E+03  0.42146657444E+03 -0.47061863364E+03  0.66516588333E+03  0.92535649640E+02 0.  0.
         11    1    3    3    0    0 -0.69875139277E+02  0.17058639892E+03 -0.25378287313E+03  0.31366861698E+03  0.00000000000E+00 0. -1.
        -11    1    3    3    0    0 -0.11658352691E+03  0.25088017552E+03 -0.21683576051E+03  0.35149726635E+03  0.00000000000E+00 0.  1.
         22    1    1    2    0    0  0.18645866619E+03 -0.42146657444E+03 -0.12745239482E+04  0.13552904493E+04  0.00000000000E+00 0.  1.
<mgrwt>
<rscale>  0 0.10181951E+04</rscale>
<asrwt>0</asrwt>
<pdfrwt beam="1">  1        1 0.28966144E+00 0.10181951E+04</pdfrwt>
<pdfrwt beam="2">  1       -1 0.21177982E-01 0.10181951E+04</pdfrwt>
<totfact> 0.66795962E+01</totfact>
</mgrwt>
</event>
<event>
 6    1  0.1395304E-006  0.3412337E+04  0.7818608E-02  0.8134885E-01
         -2   -1    0    0    0  501 -0.00000000000E+00  0.00000000000E+00  0.15060774913E+04  0.15060774913E+04  0.00000000000E+00 0.  1.
          2   -1    0    0  501    0  0.00000000000E+00 -0.00000000000E+00 -0.19328427571E+04  0.19328427571E+04  0.00000000000E+00 0. -1.
         23    2    1    2    0    0  0.48508223702E+03  0.16119404395E+04  0.60936808554E+02  0.16863478333E+04  0.79993518344E+02 0.  0.
         13    1    3    3    0    0  0.35866011244E+03  0.10797760594E+04  0.22160126252E+02  0.11380002135E+04  0.00000000000E+00 0. -1.
        -13    1    3    3    0    0  0.12642212458E+03  0.53216438007E+03  0.38776682302E+02  0.54834761975E+03  0.00000000000E+00 0.  1.
         22    1    1    2    0    0 -0.48508223702E+03 -0.16119404395E+04 -0.48770207434E+03  0.17525724152E+04  0.00000000000E+00 0.  1.
<mgrwt>
<rscale>  0 0.34123370E+04</rscale>
<asrwt>0</asrwt>
<pdfrwt beam="1">  1        2 0.29736042E+00 0.34123370E+04</pdfrwt>
<pdfrwt beam="2">  1       -2 0.23170423E+00 0.34123370E+04</pdfrwt>
<totfact> 0.50274514E-01</totfact>
</mgrwt>
</event>
<event>
 6    1  0.1014650E-006  0.4693116E+04  0.7818608E-02  0.7877673E-01
         -2   -1    0    0    0  501 -0.00000000000E+00  0.00000000000E+00  0.29483641631E+04  0.29483641631E+04  0.00000000000E+00 0.  1.
          2   -1    0    0  501    0  0.00000000000E+00 -0.00000000000E+00 -0.18675895281E+04  0.18675895281E+04  0.00000000000E+00 0. -1.
         23    2    1    2    0    0 -0.21225041714E+04  0.97582743100E+03  0.75830114294E+03  0.24577229379E+04  0.90101518427E+02 0.  0.
         11    1    3    3    0    0 -0.14769314855E+04  0.68190599788E+03  0.57130401550E+03  0.17241550629E+04  0.00000000000E+00 0.  1.
        -11    1    3    3    0    0 -0.64557268586E+03  0.29392143312E+03  0.18699712744E+03  0.73356787501E+03  0.00000000000E+00 0. -1.
         22    1    1    2    0    0  0.21225041714E+04 -0.97582743100E+03  0.32247349199E+03  0.23582307533E+04  0.00000000000E+00 0. -1.
<mgrwt>
<rscale>  0 0.46931158E+04</rscale>
<asrwt>0</asrwt>
<pdfrwt beam="1">  1        2 0.28732147E+00 0.46931158E+04</pdfrwt>
<pdfrwt beam="2">  1       -2 0.45359448E+00 0.46931158E+04</pdfrwt>
<totfact> 0.19441969E-02</totfact>
</mgrwt>
</event>
<event>
 6    1  0.1014650E-006  0.1154787E+04  0.7818608E-02  0.9153378E-01
         -1   -1    0    0    0  501 -0.00000000000E+00  0.00000000000E+00  0.22118617461E+03  0.22118617461E+03  0.00000000000E+00 0.  1.
          1   -1    0    0  501    0  0.00000000000E+00 -0.00000000000E+00 -0.15072529070E+04  0.15072529070E+04  0.00000000000E+00 0. -1.
         23    2    1    2    0    0 -0.55921767646E+02 -0.54421844772E+03 -0.90508281107E+03  0.10617684648E+04  0.94214728684E+02 0.  0.
         11    1    3    3    0    0 -0.64701323907E+02 -0.35547556939E+03 -0.65854869509E+03  0.75115612595E+03  0.00000000000E+00 0.  1.
        -11    1    3    3    0    0  0.87795562610E+01 -0.18874287833E+03 -0.24653411597E+03  0.31061233889E+03  0.00000000000E+00 0. -1.
         22    1    1    2    0    0  0.55921767646E+02  0.54421844772E+03 -0.38098392127E+03  0.66667061673E+03  0.00000000000E+00 0.  1.
<mgrwt>
<rscale>  0 0.11547874E+04</rscale>
<asrwt>0</asrwt>
<pdfrwt beam="1">  1        1 0.23188507E+00 0.11547874E+04</pdfrwt>
<pdfrwt beam="2">  1       -1 0.34028641E-01 0.11547874E+04</pdfrwt>
<totfact> 0.52383040E+01</totfact>
</mgrwt>
</event>
<event>
 6    1  0.1014650E-006  0.1603576E+04  0.7818608E-02  0.8818354E-01
          1   -1    0    0  501    0  0.00000000000E+00  0.00000000000E+00  0.69439055731E+03  0.69439055731E+03  0.00000000000E+00 0. -1.
         -1   -1    0    0    0  501 -0.00000000000E+00 -0.00000000000E+00 -0.92579629920E+03  0.92579629920E+03  0.00000000000E+00 0.  1.
         23    2    1    2    0    0 -0.30642065007E+03  0.99863043000E+02 -0.85496682192E+03  0.91826473641E+03  0.91518399265E+02 0.  0.
         13    1    3    3    0    0 -0.15975626101E+03  0.28480645865E+02 -0.53577418739E+03  0.55980995882E+03  0.00000000000E+00 0. -1.
        -13    1    3    3    0    0 -0.14666438906E+03  0.71382397135E+02 -0.31919263453E+03  0.35845477759E+03  0.00000000000E+00 0.  1.
         22    1    1    2    0    0  0.30642065007E+03 -0.99863043000E+02  0.62356108003E+03  0.70192212010E+03  0.00000000000E+00 0. -1.
<mgrwt>
<rscale>  0 0.16035763E+04</rscale>
<asrwt>0</asrwt>
<pdfrwt beam="1">  1        1 0.10682932E+00 0.16035763E+04</pdfrwt>
<pdfrwt beam="2">  1       -1 0.14243020E+00 0.16035763E+04</pdfrwt>
<totfact> 0.10600043E+01</totfact>
</mgrwt>
</event>
<event>
 6    1  0.1014650E-006  0.2181439E+04  0.7818608E-02  0.8526194E-01
          2   -1    0    0  501    0  0.00000000000E+00  0.00000000000E+00  0.19861990643E+04  0.19861990643E+04  0.00000000000E+00 0. -1.
         -2   -1    0    0    0  501 -0.00000000000E+00 -0.00000000000E+00 -0.59896760848E+03  0.59896760848E+03  0.00000000000E+00 0.  1.
         23    2    1    2    0    0 -0.34919319480E+02  0.19982158647E+03  0.19625616906E+04  0.19751233101E+04  0.91190325115E+02 0.  0.
         13    1    3    3    0    0 -0.64490209787E+02  0.10743923976E+03  0.10772966695E+04  0.10845599529E+04  0.00000000000E+00 0.  1.
        -13    1    3    3    0    0  0.29570890308E+02  0.92382346706E+02  0.88526502108E+03  0.89056335714E+03  0.00000000000E+00 0. -1.
         22    1    1    2    0    0  0.34919319480E+02 -0.19982158647E+03 -0.57533023478E+03  0.61004336267E+03  0.00000000000E+00 0.  1.
<mgrwt>
<rscale>  0 0.21814389E+04</rscale>
<asrwt>0</asrwt>
<pdfrwt beam="1">  1        2 0.30556908E+00 0.21814389E+04</pdfrwt>
<pdfrwt beam="2">  1       -2 0.92148864E-01 0.21814389E+04</pdfrwt>
<totfact> 0.62286006E+00</totfact>
</mgrwt>
</event>
<event>
 6    1  0.1014650E-006  0.3548123E+04  0.7818608E-02  0.8102479E-01
         -1   -1    0    0    0  501 -0.00000000000E+00  0.00000000000E+00  0.15996879301E+04  0.15996879301E+04  0.00000000000E+00 0.  1.
          1   -1    0    0  501    0  0.00000000000E+00 -0.00000000000E+00 -0.19674427734E+04  0.19674427734E+04  0.00000000000E+00 0. -1.
         23    2    1    2    0    0 -0.87937609694E+02  0.13438762300E+04  0.97512993151E+03  0.16652695458E+04  0.92238453418E+02 0.  0.
         11    1    3    3    0    0 -0.48030347117E+02  0.11568070890E+04  0.85674100489E+03  0.14403175708E+04  0.00000000000E+00 0.  1.
        -11    1    3    3    0    0 -0.39907262577E+02  0.18706914099E+03  0.11838892662E+03  0.22495197502E+03  0.00000000000E+00 0. -1.
         22    1    1    2    0    0  0.87937609694E+02 -0.13438762300E+04 -0.13428847748E+04  0.19018611576E+04  0.00000000000E+00 0. -1.
<mgrwt>
<rscale>  0 0.35481231E+04</rscale>
<asrwt>0</asrwt>
<pdfrwt beam="1">  1        1 0.30268350E+00 0.35481231E+04</pdfrwt>
<pdfrwt beam="2">  1       -1 0.24610584E+00 0.35481231E+04</pdfrwt>
<totfact> 0.18838120E-01</totfact>
</mgrwt>
</event>
<event>
 6    1  0.1014650E-006  0.3819624E+04  0.7818608E-02  0.8041957E-01
         -2   -1    0    0    0  501 -0.00000000000E+00  0.00000000000E+00  0.26404169583E+04  0.26404169583E+04  0.00000000000E+00 0.  1.
          2   -1    0    0  501    0  0.00000000000E+00 -0.00000000000E+00 -0.13813661144E+04  0.13813661144E+04  0.00000000000E+00 0. -1.
         23    2    1    2    0    0 -0.34632465641E+03  0.59317914675E+03 -0.12452414355E+04  0.14250000459E+04  0.90535243710E+02 0.  0.
         13    1    3    3    0    0 -0.10412650835E+03  0.26570101387E+03 -0.52681332354E+03  0.59914241744E+03  0.00000000000E+00 0.  1.
        -13    1    3    3    0    0 -0.24219814805E+03  0.32747813288E+03 -0.71842811199E+03  0.82585762849E+03  0.00000000000E+00 0. -1.
         22    1    1    2    0    0  0.34632465641E+03 -0.59317914675E+03  0.25042922794E+04  0.25967830268E+04  0.00000000000E+00 0.  1.
<mgrwt>
<rscale>  0 0.38196243E+04</rscale>
<asrwt>0</asrwt>
<pdfrwt beam="1">  1        2 0.21251786E+00 0.38196243E+04</pdfrwt>
<pdfrwt beam="2">  1       -2 0.40621799E+00 0.38196243E+04</pdfrwt>
<totfact> 0.80178808E-02</totfact>
</mgrwt>
</event>
<event>
 6    1  0.1014650E-006  0.2594482E+04  0.7818608E-02  0.8370078E-01
          1   -1    0    0  501    0  0.00000000000E+00  0.00000000000E+00  0.19935562532E+04  0.19935562532E+04  0.00000000000E+00 0. -1.
         -1   -1    0    0    0  501 -0.00000000000E+00 -0.00000000000E+00 -0.84413666197E+03  0.84413666197E+03  0.00000000000E+00 0.  1.
         23    2    1    2    0    0 -0.78705940037E+03 -0.10277681813E+03 -0.54457998962E+03  0.96695505166E+03  0.91701323716E+02 0.  0.
         13    1    3    3    0    0 -0.31345274487E+03 -0.20874233844E+02 -0.16721819524E+03  0.35587958880E+03  0.00000000000E+00 0. -1.
        -13    1    3    3    0    0 -0.47360665550E+03 -0.81902584281E+02 -0.37736179438E+03  0.61107546286E+03  0.00000000000E+00 0.  1.
         22    1    1    2    0    0  0.78705940037E+03  0.10277681813E+03  0.16939995808E+04  0.18707378635E+04  0.00000000000E+00 0. -1.
<mgrwt>
<rscale>  0 0.25944818E+04</rscale>
<asrwt>0</asrwt>
<pdfrwt beam="1">  1        1 0.30670096E+00 0.25944818E+04</pdfrwt>
<pdfrwt beam="2">  1       -1 0.12986718E+00 0.25944818E+04</pdfrwt>
<totfact> 0.13484427E+00</totfact>
</mgrwt>
</event>
<event>
 6    1  0.1014650E-006  0.1385261E+04  0.7818608E-02  0.8964557E-01
         -2   -1    0    0    0  501 -0.00000000000E+00  0.00000000000E+00  0.93609517284E+02  0.93609517284E+02  0.00000000000E+00 0.  1.
          2   -1    0    0  501    0  0.00000000000E+00 -0.00000000000E+00 -0.51248761035E+04  0.51248761035E+04  0.00000000000E+00 0. -1.
         23    2    1    2    0    0  0.34422206940E+03 -0.26175146671E+03 -0.45502610366E+04  0.45716711171E+04  0.91096864340E+02 0.  0.
         11    1    3    3    0    0  0.13328670452E+03 -0.50813282326E+02 -0.13334503992E+04  0.13410582770E+04  0.00000000000E+00 0. -1.
        -11    1    3    3    0    0  0.21093536488E+03 -0.21093818438E+03 -0.32168106373E+04  0.32306128401E+04  0.00000000000E+00 0.  1.
         22    1    1    2    0    0 -0.34422206940E+03  0.26175146671E+03 -0.48100554968E+03  0.64681450371E+03  0.00000000000E+00 0.  1.
<mgrwt>
<rscale>  0 0.13852612E+04</rscale>
<asrwt>0</asrwt>
<pdfrwt beam="1">  1        2 0.78844264E+00 0.13852612E+04</pdfrwt>
<pdfrwt beam="2">  1       -2 0.14401461E-01 0.13852612E+04</pdfrwt>
<totfact> 0.92167416E-01</totfact>
</mgrwt>
</event>
<event>
 6    1  0.1014650E-006  0.9576177E+03  0.7818608E-02  0.9356291E-01
          1   -1    0    0  501    0  0.00000000000E+00  0.00000000000E+00  0.36523702791E+03  0.36523702791E+03  0.00000000000E+00 0. -1.
         -1   -1    0    0    0  501 -0.00000000000E+00 -0.00000000000E+00 -0.62769622070E+03  0.62769622070E+03  0.00000000000E+00 0.  1.
         23    2    1    2    0    0  0.35955778086E+03  0.81250196162E+02  0.17719947487E+03  0.41918841317E+03  0.91847045073E+02 0.  0.
         11    1    3    3    0    0  0.30876154569E+03  0.87194341955E+02  0.12021562903E+03  0.34261982259E+03  0.00000000000E+00 0. -1.
        -11    1    3    3    0    0  0.50796235164E+02 -0.59441457937E+01  0.56983845848E+02  0.76568590582E+02  0.00000000000E+00 0.  1.
         22    1    1    2    0    0 -0.35955778086E+03 -0.81250196162E+02 -0.43965866766E+03  0.57374483544E+03  0.00000000000E+00 0.  1.
<mgrwt>
<rscale>  0 0.95761767E+03</rscale>
<asrwt>0</asrwt>
<pdfrwt beam="1">  1        1 0.56190313E-01 0.95761767E+03</pdfrwt>
<pdfrwt beam="2">  1       -1 0.96568648E-01 0.95761767E+03</pdfrwt>
<totfact> 0.70251386E+01</totfact>
</mgrwt>
</event>
<event>
 6    1  0.1014650E-006  0.3731363E+03  0.7818608E-02  0.1053500E+00
          1   -1    0    0  501    0  0.00000000000E+00  0.00000000000E+00  0.25675805269E+03  0.25675805269E+03  0.00000000000E+00 0. -1.
         -1   -1    0    0    0  501 -0.00000000000E+00 -0.00000000000E+00 -0.13556603425E+03  0.13556603425E+03  0.00000000000E+00 0.  1.
         23    2    1    2    0    0  0.15432158067E+02  0.46735089291E+02  0.24100439219E+03  0.26279677330E+03  0.92502469824E+02 0.  0.
         11    1    3    3    0    0 -0.13674845867E+02 -0.20349688291E+02  0.11062910877E+03  0.11331333077E+03  0.00000000000E+00 0. -1.
        -11    1    3    3    0    0  0.29107003934E+02  0.67084777581E+02  0.13037528343E+03  0.14948344253E+03  0.00000000000E+00 0.  1.
         22    1    1    2    0    0 -0.15432158067E+02 -0.46735089291E+02 -0.11981237376E+03  0.12952731364E+03  0.00000000000E+00 0.  1.
<mgrwt>
<rscale>  0 0.37313628E+03</rscale>
<asrwt>0</asrwt>
<pdfrwt beam="1">  1        1 0.39501239E-01 0.37313628E+03</pdfrwt>
<pdfrwt beam="2">  1       -1 0.20856313E-01 0.37313628E+03</pdfrwt>
<totfact> 0.20180193E+03</totfact>
</mgrwt>
</event>
<event>
 6    1  0.1014650E-006  0.4396787E+04  0.7818608E-02  0.7928960E-01
         -2   -1    0    0    0  501 -0.00000000000E+00  0.00000000000E+00  0.13315317817E+04  0.13315317817E+04  0.00000000000E+00 0.  1.
          2   -1    0    0  501    0  0.00000000000E+00 -0.00000000000E+00 -0.36296045123E+04  0.36296045123E+04  0.00000000000E+00 0. -1.
         23    2    1    2    0    0  0.20775573160E+04  0.50558839225E+03 -0.57567695730E+03  0.22155013540E+04  0.71960173289E+02 0.  0.
         11    1    3    3    0    0  0.12911805280E+04  0.28006844609E+03 -0.36696052635E+03  0.13712204484E+04  0.00000000000E+00 0. -1.
        -11    1    3    3    0    0  0.78637678805E+03  0.22551994616E+03 -0.20871643095E+03  0.84428090554E+03  0.00000000000E+00 0.  1.
         22    1    1    2    0    0 -0.20775573160E+04 -0.50558839225E+03 -0.17223957733E+04  0.27456349400E+04  0.00000000000E+00 0. -1.
<mgrwt>
<rscale>  0 0.43967869E+04</rscale>
<asrwt>0</asrwt>
<pdfrwt beam="1">  1        2 0.55840069E+00 0.43967869E+04</pdfrwt>
<pdfrwt beam="2">  1       -2 0.20485104E+00 0.43967869E+04</pdfrwt>
<totfact> 0.61937438E-02</totfact>
</mgrwt>
</event>
<event>
 6    1  0.1014650E-006  0.9392379E+03  0.7818608E-02  0.9377819E-01
         -2   -1    0    0    0  501 -0.00000000000E+00  0.00000000000E+00  0.39889847803E+03  0.39889847803E+03  0.00000000000E+00 0.  1.
          2   -1    0    0  501    0  0.00000000000E+00 -0.00000000000E+00 -0.55287743389E+03  0.55287743389E+03  0.00000000000E+00 0. -1.
         23    2    1    2    0    0 -0.42257178491E+03  0.14572117270E+03  0.52429987449E+02  0.45942824466E+03  0.92324616571E+02 0.  0.
         13    1    3    3    0    0 -0.15055127790E+03  0.16032389151E+02  0.45130360958E+02  0.15798567739E+03  0.00000000000E+00 0.  1.
        -13    1    3    3    0    0 -0.27202050701E+03  0.12968878355E+03  0.72996264909E+01  0.30144256727E+03  0.00000000000E+00 0. -1.
         22    1    1    2    0    0  0.42257178491E+03 -0.14572117270E+03 -0.20640894331E+03  0.49234766726E+03  0.00000000000E+00 0. -1.
<mgrwt>
<rscale>  0 0.93923792E+03</rscale>
<asrwt>0</asrwt>
<pdfrwt beam="1">  1        2 0.85058067E-01 0.93923792E+03</pdfrwt>
<pdfrwt beam="2">  1       -2 0.61368997E-01 0.93923792E+03</pdfrwt>
<totfact> 0.13536002E+02</totfact>
</mgrwt>
</event>
<event>
 6    1  0.1014650E-006  0.2102783E+04  0.7818608E-02  0.8560019E-01
          1   -1    0    0  501    0  0.00000000000E+00  0.00000000000E+00  0.18641456424E+04  0.18641456424E+04  0.00000000000E+00 0. -1.
         -1   -1    0    0    0  501 -0.00000000000E+00 -0.00000000000E+00 -0.59299214176E+03  0.59299214176E+03  0.00000000000E+00 0.  1.
         23    2    1    2    0    0  0.68653491728E+03  0.77494772752E+03  0.43677810639E+03  0.11274549379E+04  0.92224453343E+02 0.  0.
         13    1    3    3    0    0  0.43189654515E+03  0.52701306268E+03  0.32475782413E+03  0.75481457212E+03  0.00000000000E+00 0.  1.
        -13    1    3    3    0    0  0.25463837213E+03  0.24793466483E+03  0.11202028226E+03  0.37264036581E+03  0.00000000000E+00 0. -1.
         22    1    1    2    0    0 -0.68653491728E+03 -0.77494772752E+03  0.83437539423E+03  0.13296828462E+04  0.00000000000E+00 0. -1.
<mgrwt>
<rscale>  0 0.21027826E+04</rscale>
<asrwt>0</asrwt>
<pdfrwt beam="1">  1        1 0.28679163E+00 0.21027826E+04</pdfrwt>
<pdfrwt beam="2">  1       -1 0.91229561E-01 0.21027826E+04</pdfrwt>
<totfact> 0.39709956E+00</totfact>
</mgrwt>
</event>
<event>
 6    1  0.1014650E-006  0.1423512E+04  0.7818608E-02  0.8936973E-01
         -1   -1    0    0    0  501 -0.00000000000E+00  0.00000000000E+00  0.20737350136E+03  0.20737350136E+03  0.00000000000E+00 0.  1.
          1   -1    0    0  501    0  0.00000000000E+00 -0.00000000000E+00 -0.24429178373E+04  0.24429178373E+04  0.00000000000E+00 0. -1.
         23    2    1    2    0    0  0.17505823070E+03 -0.40032989005E+03 -0.82152139449E+02  0.45301862984E+03  0.86991378621E+02 0.  0.
         13    1    3    3    0    0  0.94982521398E+02 -0.31230598619E+03 -0.56398260688E+02  0.33126646705E+03  0.00000000000E+00 0. -1.
        -13    1    3    3    0    0  0.80075709306E+02 -0.88023903860E+02 -0.25753878761E+02  0.12175216279E+03  0.00000000000E+00 0.  1.
         22    1    1    2    0    0 -0.17505823070E+03  0.40032989005E+03 -0.21533921965E+04  0.21972727088E+04  0.00000000000E+00 0. -1.
<mgrwt>
<rscale>  0 0.14235117E+04</rscale>
<asrwt>0</asrwt>
<pdfrwt beam="1">  1        1 0.37583347E+00 0.14235117E+04</pdfrwt>
<pdfrwt beam="2">  1       -1 0.31903619E-01 0.14235117E+04</pdfrwt>
<totfact> 0.13259194E+01</totfact>
</mgrwt>
</event>
<event>
 6    1  0.1108644E-006  0.2954400E+04  0.7818608E-02  0.8256873E-01
         -1   -1    0    0    0  501 -0.00000000000E+00  0.00000000000E+00  0.10235074118E+04  0.10235074118E+04  0.00000000000E+00 0.  1.
          1   -1    0    0  501    0  0.00000000000E+00 -0.00000000000E+00 -0.21320022368E+04  0.21320022368E+04  0.00000000000E+00 0. -1.
         23    2    1    2    0    0  0.43000968280E+03 -0.18035154271E+03  0.94087645693E+03  0.10537585555E+04  0.87883900034E+02 0.  0.
         11    1    3    3    0    0  0.16263056787E+03 -0.39135026306E+02  0.40993162857E+03  0.44274619365E+03  0.00000000000E+00 0. -1.
        -11    1    3    3    0    0  0.26737911493E+03 -0.14121651641E+03  0.53094482836E+03  0.61101236187E+03  0.00000000000E+00 0.  1.
         22    1    1    2    0    0 -0.43000968280E+03  0.18035154271E+03 -0.20493712819E+04  0.21017510931E+04  0.00000000000E+00 0. -1.
<mgrwt>
<rscale>  0 0.29544002E+04</rscale>
<asrwt>0</asrwt>
<pdfrwt beam="1">  1        1 0.32800034E+00 0.29544002E+04</pdfrwt>
<pdfrwt beam="2">  1       -1 0.15746268E+00 0.29544002E+04</pdfrwt>
<totfact> 0.63265027E-01</totfact>
</mgrwt>
</event>
<event>
 6    1  0.1014650E-006  0.3042659E+04  0.7818608E-02  0.8231653E-01
         -2   -1    0    0    0  501 -0.00000000000E+00  0.00000000000E+00  0.74686054845E+03  0.74686054845E+03  0.00000000000E+00 0.  1.
          2   -1    0    0  501    0  0.00000000000E+00 -0.00000000000E+00 -0.30988968869E+04  0.30988968869E+04  0.00000000000E+00 0. -1.
         23    2    1    2    0    0 -0.89902712037E+01  0.94271312981E+03  0.32984311576E+03  0.10030006260E+04  0.91787279406E+02 0.  0.
         13    1    3    3    0    0 -0.13630679537E+02  0.71150015449E+03  0.20692877781E+03  0.74110578486E+03  0.00000000000E+00 0. -1.
        -13    1    3    3    0    0  0.46404083337E+01  0.23121297532E+03  0.12291433795E+03  0.26189484115E+03  0.00000000000E+00 0.  1.
         22    1    1    2    0    0  0.89902712037E+01 -0.94271312981E+03 -0.26818794542E+04  0.28427568093E+04  0.00000000000E+00 0. -1.
<mgrwt>
<rscale>  0 0.30426593E+04</rscale>
<asrwt>0</asrwt>
<pdfrwt beam="1">  1        2 0.47675338E+00 0.30426593E+04</pdfrwt>
<pdfrwt beam="2">  1       -2 0.11490162E+00 0.30426593E+04</pdfrwt>
<totfact> 0.75920069E-01</totfact>
</mgrwt>
</event>
<event>
 6    1  0.1014650E-006  0.1922550E+04  0.7818608E-02  0.8643713E-01
          2   -1    0    0  501    0  0.00000000000E+00  0.00000000000E+00  0.12501677562E+04  0.12501677562E+04  0.00000000000E+00 0. -1.
         -2   -1    0    0    0  501 -0.00000000000E+00 -0.00000000000E+00 -0.73914031269E+03  0.73914031269E+03  0.00000000000E+00 0.  1.
         23    2    1    2    0    0  0.95874186272E+03  0.14659637872E+02  0.27728995965E+03  0.10023764220E+04  0.92021221849E+02 0.  0.
         11    1    3    3    0    0  0.68918854156E+03  0.50852851840E+02  0.20870512267E+03  0.72188966372E+03  0.00000000000E+00 0.  1.
        -11    1    3    3    0    0  0.26955332116E+03 -0.36193213968E+02  0.68584836974E+02  0.28048675824E+03  0.00000000000E+00 0. -1.
         22    1    1    2    0    0 -0.95874186272E+03 -0.14659637872E+02  0.23373748383E+03  0.98693164690E+03  0.00000000000E+00 0.  1.
<mgrwt>
<rscale>  0 0.19225498E+04</rscale>
<asrwt>0</asrwt>
<pdfrwt beam="1">  1        2 0.19233350E+00 0.19225498E+04</pdfrwt>
<pdfrwt beam="2">  1       -2 0.11371389E+00 0.19225498E+04</pdfrwt>
<totfact> 0.10021188E+01</totfact>
</mgrwt>
</event>
<event>
 6    1  0.1014650E-006  0.2298760E+04  0.7818608E-02  0.8478410E-01
          1   -1    0    0  501    0  0.00000000000E+00  0.00000000000E+00  0.23511379504E+04  0.23511379504E+04  0.00000000000E+00 0. -1.
         -1   -1    0    0    0  501 -0.00000000000E+00 -0.00000000000E+00 -0.56188731422E+03  0.56188731422E+03  0.00000000000E+00 0.  1.
         23    2    1    2    0    0 -0.49134366361E+03  0.88863916889E+03  0.21840329700E+03  0.10425548609E+04  0.90124744402E+02 0.  0.
         13    1    3    3    0    0 -0.23463569510E+03  0.36842568416E+03  0.57617397966E+02  0.44058047927E+03  0.00000000000E+00 0. -1.
        -13    1    3    3    0    0 -0.25670796851E+03  0.52021348473E+03  0.16078589903E+03  0.60197438162E+03  0.00000000000E+00 0.  1.
         22    1    1    2    0    0  0.49134366361E+03 -0.88863916889E+03  0.15708473391E+04  0.18704704037E+04  0.00000000000E+00 0. -1.
<mgrwt>
<rscale>  0 0.22987602E+04</rscale>
<asrwt>0</asrwt>
<pdfrwt beam="1">  1        1 0.36171352E+00 0.22987602E+04</pdfrwt>
<pdfrwt beam="2">  1       -1 0.86444204E-01 0.22987602E+04</pdfrwt>
<totfact> 0.20476760E+00</totfact>
</mgrwt>
</event>
<event>
 6    1  0.1014650E-006  0.6455066E+03  0.7818608E-02  0.9815247E-01
         -2   -1    0    0    0  501 -0.00000000000E+00  0.00000000000E+00  0.13694892807E+03  0.13694892807E+03  0.00000000000E+00 0.  1.
          2   -1    0    0  501    0  0.00000000000E+00 -0.00000000000E+00 -0.76064636817E+03  0.76064636817E+03  0.00000000000E+00 0. -1.
         23    2    1    2    0    0  0.22502939181E+03 -0.19137461819E+03 -0.47613265684E+03  0.56738651846E+03  0.89233865540E+02 0.  0.
         13    1    3    3    0    0  0.11042054762E+03 -0.48078135728E+02 -0.14206873804E+03  0.18624642493E+03  0.00000000000E+00 0.  1.
        -13    1    3    3    0    0  0.11460884419E+03 -0.14329648247E+03 -0.33406391880E+03  0.38114009353E+03  0.00000000000E+00 0. -1.
         22    1    1    2    0    0 -0.22502939181E+03  0.19137461819E+03 -0.14756478326E+03  0.33020877779E+03  0.00000000000E+00 0. -1.
<mgrwt>
<rscale>  0 0.64550664E+03</rscale>
<asrwt>0</asrwt>
<pdfrwt beam="1">  1        2 0.11702252E+00 0.64550664E+03</pdfrwt>
<pdfrwt beam="2">  1       -2 0.21069065E-01 0.64550664E+03</pdfrwt>
<totfact> 0.72088321E+02</totfact>
</mgrwt>
</event>
<event>
 6    1  0.1014650E-006  0.2596995E+04  0.7818608E-02  0.8369222E-01
          2   -1    0    0  501    0  0.00000000000E+00  0.00000000000E+00  0.25585230796E+04  0.25585230796E+04  0.00000000000E+00 0. -1.
         -2   -1    0    0    0  501 -0.00000000000E+00 -0.00000000000E+00 -0.65901160590E+03  0.65901160590E+03  0.00000000000E+00 0.  1.
         23    2    1    2    0    0 -0.95147893813E+03 -0.87154196164E+03  0.11099691949E+04  0.17048302958E+04  0.97555949424E+02 0.  0.
         11    1    3    3    0    0 -0.54886035777E+03 -0.46221369733E+03  0.56609966229E+03  0.91397922404E+03  0.00000000000E+00 0.  1.
        -11    1    3    3    0    0 -0.40261858036E+03 -0.40932826431E+03  0.54386953260E+03  0.79085107176E+03  0.00000000000E+00 0. -1.
         22    1    1    2    0    0  0.95147893813E+03  0.87154196164E+03  0.78954227879E+03  0.15127043897E+04  0.00000000000E+00 0. -1.
<mgrwt>
<rscale>  0 0.25969955E+04</rscale>
<asrwt>0</asrwt>
<pdfrwt beam="1">  1        2 0.39361893E+00 0.25969955E+04</pdfrwt>
<pdfrwt beam="2">  1       -2 0.10138640E+00 0.25969955E+04</pdfrwt>
<totfact> 0.22757819E+00</totfact>
</mgrwt>
</event>
<event>
 6    1  0.1014650E-006  0.5470084E+03  0.7818608E-02  0.1002189E+00
          2   -1    0    0  501    0  0.00000000000E+00  0.00000000000E+00  0.27507345691E+03  0.27507345691E+03  0.00000000000E+00 0. -1.
         -2   -1    0    0    0  501 -0.00000000000E+00 -0.00000000000E+00 -0.27194390454E+03  0.27194390454E+03  0.00000000000E+00 0.  1.
         23    2    1    2    0    0  0.12724331008E+03 -0.19857160189E+03 -0.12109603805E+03  0.28045866556E+03  0.91494653500E+02 0.  0.
         13    1    3    3    0    0  0.55284784669E+02 -0.13644250114E+03 -0.33049589413E+02  0.15088153927E+03  0.00000000000E+00 0. -1.
        -13    1    3    3    0    0  0.71958525414E+02 -0.62129100751E+02 -0.88046448635E+02  0.12957712629E+03  0.00000000000E+00 0.  1.
         22    1    1    2    0    0 -0.12724331008E+03  0.19857160189E+03  0.12422559042E+03  0.26655869588E+03  0.00000000000E+00 0. -1.
<mgrwt>
<rscale>  0 0.54700841E+03</rscale>
<asrwt>0</asrwt>
<pdfrwt beam="1">  1        2 0.42318993E-01 0.54700841E+03</pdfrwt>
<pdfrwt beam="2">  1       -2 0.41837524E-01 0.54700841E+03</pdfrwt>
<totfact> 0.65885157E+02</totfact>
</mgrwt>
</event>
<event>
 6    1  0.1014650E-006  0.9420472E+03  0.7818608E-02  0.9374495E-01
          2   -1    0    0  501    0  0.00000000000E+00  0.00000000000E+00  0.20317551855E+04  0.20317551855E+04  0.00000000000E+00 0. -1.
         -2   -1    0    0    0  501 -0.00000000000E+00 -0.00000000000E+00 -0.10919782899E+03  0.10919782899E+03  0.00000000000E+00 0.  1.
         23    2    1    2    0    0  0.12026774562E+03  0.45107940569E+03  0.98220648370E+03  0.10910974412E+04  0.88470834804E+02 0.  0.
         11    1    3    3    0    0 -0.68195478456E+01  0.49955351069E+02  0.15548392440E+03  0.16345425684E+03  0.00000000000E+00 0.  1.
        -11    1    3    3    0    0  0.12708729346E+03  0.40112405462E+03  0.82672255930E+03  0.92764318432E+03  0.00000000000E+00 0. -1.
         22    1    1    2    0    0 -0.12026774562E+03 -0.45107940569E+03  0.94035087284E+03  0.10498555734E+04  0.00000000000E+00 0.  1.
<mgrwt>
<rscale>  0 0.94204725E+03</rscale>
<asrwt>0</asrwt>
<pdfrwt beam="1">  1        2 0.31257769E+00 0.94204725E+03</pdfrwt>
<pdfrwt beam="2">  1       -2 0.16799667E-01 0.94204725E+03</pdfrwt>
<totfact> 0.18692580E+02</totfact>
</mgrwt>
</event>
<event>
 6    1  0.1014650E-006  0.1433026E+04  0.7818608E-02  0.8930254E-01
         -4   -1    0    0    0  501 -0.00000000000E+00  0.00000000000E+00  0.67265495094E+03  0.67265495094E+03  0.00000000000E+00 0.  1.
          4   -1    0    0  501    0  0.00000000000E+00 -0.00000000000E+00 -0.76323035714E+03  0.76323035714E+03  0.00000000000E+00 0. -1.
         23    2    1    2    0    0  0.70325518011E+03 -0.11030970070E+03 -0.96146836474E+02  0.72400953291E+03  0.90606352768E+02 0.  0.
         13    1    3    3    0    0  0.63567745349E+03 -0.81813838616E+02 -0.64585250015E+02  0.64416658062E+03  0.00000000000E+00 0. -1.
        -13    1    3    3    0    0  0.67577726619E+02 -0.28495862087E+02 -0.31561586459E+02  0.79842952293E+02  0.00000000000E+00 0.  1.
         22    1    1    2    0    0 -0.70325518011E+03  0.11030970070E+03  0.55714302743E+01  0.71187577516E+03  0.00000000000E+00 0.  1.
<mgrwt>
<rscale>  0 0.14330257E+04</rscale>
<asrwt>0</asrwt>
<pdfrwt beam="1">  1        4 0.11742005E+00 0.14330257E+04</pdfrwt>
<pdfrwt beam="2">  1       -4 0.10348538E+00 0.14330257E+04</pdfrwt>
<totfact> 0.82469512E-01</totfact>
</mgrwt>
</event>
<event>
 6    1  0.1014650E-006  0.8670613E+03  0.7818608E-02  0.9467720E-01
         -2   -1    0    0    0  501 -0.00000000000E+00  0.00000000000E+00  0.58249292866E+02  0.58249292866E+02  0.00000000000E+00 0.  1.
          2   -1    0    0  501    0  0.00000000000E+00 -0.00000000000E+00 -0.32266287062E+04  0.32266287062E+04  0.00000000000E+00 0. -1.
         23    2    1    2    0    0  0.40547909969E+03 -0.13910539975E+03 -0.15960679127E+04  0.16551764719E+04  0.91721092174E+02 0.  0.
         13    1    3    3    0    0  0.14918705037E+03 -0.98281670412E+02 -0.62597454088E+03  0.65096865406E+03  0.00000000000E+00 0. -1.
        -13    1    3    3    0    0  0.25629204932E+03 -0.40823729341E+02 -0.97009337179E+03  0.10042078178E+04  0.00000000000E+00 0.  1.
         22    1    1    2    0    0 -0.40547909969E+03  0.13910539975E+03 -0.15723115007E+04  0.16297015272E+04  0.00000000000E+00 0.  1.
<mgrwt>
<rscale>  0 0.86706134E+03</rscale>
<asrwt>0</asrwt>
<pdfrwt beam="1">  1        2 0.49640454E+00 0.86706134E+03</pdfrwt>
<pdfrwt beam="2">  1       -2 0.89614275E-02 0.86706134E+03</pdfrwt>
<totfact> 0.10714304E+02</totfact>
</mgrwt>
</event>
<event>
 6    1  0.1014650E-006  0.3642885E+04  0.7818608E-02  0.8080738E-01
          2   -1    0    0  501    0  0.00000000000E+00  0.00000000000E+00  0.14735021548E+04  0.14735021548E+04  0.00000000000E+00 0. -1.
         -2   -1    0    0    0  501 -0.00000000000E+00 -0.00000000000E+00 -0.22515422720E+04  0.22515422720E+04  0.00000000000E+00 0.  1.
         23    2    1    2    0    0 -0.67017407410E+03  0.10718751421E+04  0.95005134815E+03  0.15839349661E+04  0.90569326991E+02 0.  0.
         13    1    3    3    0    0 -0.56728152161E+03  0.95479391708E+03  0.81289353692E+03  0.13763123378E+04  0.00000000000E+00 0.  1.
        -13    1    3    3    0    0 -0.10289255249E+03  0.11708122499E+03  0.13715781123E+03  0.20762262830E+03  0.00000000000E+00 0. -1.
         22    1    1    2    0    0  0.67017407410E+03 -0.10718751421E+04 -0.17280914654E+04  0.21411094606E+04  0.00000000000E+00 0.  1.
<mgrwt>
<rscale>  0 0.36428848E+04</rscale>
<asrwt>0</asrwt>
<pdfrwt beam="1">  1        2 0.22669264E+00 0.36428848E+04</pdfrwt>
<pdfrwt beam="2">  1       -2 0.34639112E+00 0.36428848E+04</pdfrwt>
<totfact> 0.17489534E-01</totfact>
</mgrwt>
</event>
<event>
 6    1  0.1014650E-006  0.2983089E+04  0.7818608E-02  0.8248576E-01
          2   -1    0    0  501    0  0.00000000000E+00  0.00000000000E+00  0.27073641796E+04  0.27073641796E+04  0.00000000000E+00 0. -1.
         -2   -1    0    0    0  501 -0.00000000000E+00 -0.00000000000E+00 -0.82172352935E+03  0.82172352935E+03  0.00000000000E+00 0.  1.
         23    2    1    2    0    0 -0.11766214161E+04  0.64643069111E+03  0.17857018605E+03  0.13573602479E+04  0.90713483433E+02 0.  0.
         11    1    3    3    0    0 -0.97393344943E+02  0.62632692882E+02  0.40195715306E+02  0.12257248217E+03  0.00000000000E+00 0. -1.
        -11    1    3    3    0    0 -0.10792280712E+04  0.58379799822E+03  0.13837447075E+03  0.12347877658E+04  0.00000000000E+00 0.  1.
         22    1    1    2    0    0  0.11766214161E+04 -0.64643069111E+03  0.17070704642E+04  0.21717274611E+04  0.00000000000E+00 0. -1.
<mgrwt>
<rscale>  0 0.29830889E+04</rscale>
<asrwt>0</asrwt>
<pdfrwt beam="1">  1        2 0.41651756E+00 0.29830889E+04</pdfrwt>
<pdfrwt beam="2">  1       -2 0.12641901E+00 0.29830889E+04</pdfrwt>
<totfact> 0.10498275E+00</totfact>
</mgrwt>
</event>
<event>
 6    1  0.1014650E-006  0.3395409E+04  0.7818608E-02  0.8139034E-01
         -2   -1    0    0    0  501 -0.00000000000E+00  0.00000000000E+00  0.15199601087E+04  0.15199601087E+04  0.00000000000E+00 0.  1.
          2   -1    0    0  501    0  0.00000000000E+00 -0.00000000000E+00 -0.18962344460E+04  0.18962344460E+04  0.00000000000E+00 0. -1.
         23    2    1    2    0    0  0.29464285178E+03 -0.80607583564E+03 -0.16606056421E+04  0.18715005515E+04  0.91271861785E+02 0.  0.
         13    1    3    3    0    0  0.22287329089E+03 -0.55943058463E+03 -0.10783809114E+04  0.12351277152E+04  0.00000000000E+00 0. -1.
        -13    1    3    3    0    0  0.71769560890E+02 -0.24664525101E+03 -0.58222473072E+03  0.63637283630E+03  0.00000000000E+00 0.  1.
         22    1    1    2    0    0 -0.29464285178E+03  0.80607583564E+03  0.12843313049E+04  0.15446940032E+04  0.00000000000E+00 0.  1.
<mgrwt>
<rscale>  0 0.33954091E+04</rscale>
<asrwt>0</asrwt>
<pdfrwt beam="1">  1        2 0.29172838E+00 0.33954091E+04</pdfrwt>
<pdfrwt beam="2">  1       -2 0.23384002E+00 0.33954091E+04</pdfrwt>
<totfact> 0.51161485E-01</totfact>
</mgrwt>
</event>
<event>
 6    1  0.1014650E-006  0.1547181E+04  0.7818608E-02  0.8853670E-01
         -1   -1    0    0    0  501 -0.00000000000E+00  0.00000000000E+00  0.53048810752E+03  0.53048810752E+03  0.00000000000E+00 0.  1.
          1   -1    0    0  501    0  0.00000000000E+00 -0.00000000000E+00 -0.11280974354E+04  0.11280974354E+04  0.00000000000E+00 0. -1.
         23    2    1    2    0    0  0.25272752831E+03 -0.69421583657E+03 -0.53564858070E+03  0.91720442261E+03  0.92399781053E+02 0.  0.
         11    1    3    3    0    0 -0.20566287033E+00 -0.66835497728E+02 -0.64218153781E+02  0.92687633095E+02  0.00000000000E+00 0. -1.
        -11    1    3    3    0    0  0.25293319118E+03 -0.62738033884E+03 -0.47143042692E+03  0.82451678951E+03  0.00000000000E+00 0.  1.
         22    1    1    2    0    0 -0.25272752831E+03  0.69421583657E+03 -0.61960747136E+02  0.74138112027E+03  0.00000000000E+00 0.  1.
<mgrwt>
<rscale>  0 0.15471810E+04</rscale>
<asrwt>0</asrwt>
<pdfrwt beam="1">  1        1 0.17355345E+00 0.15471810E+04</pdfrwt>
<pdfrwt beam="2">  1       -1 0.81613556E-01 0.15471810E+04</pdfrwt>
<totfact> 0.17398640E+01</totfact>
</mgrwt>
</event>
<event>
 6    1  0.1014650E-006  0.5996512E+03  0.7818608E-02  0.9906130E-01
         -2   -1    0    0    0  501 -0.00000000000E+00  0.00000000000E+00  0.36644593698E+03  0.36644593698E+03  0.00000000000E+00 0.  1.
          2   -1    0    0  501    0  0.00000000000E+00 -0.00000000000E+00 -0.24531694235E+03  0.24531694235E+03  0.00000000000E+00 0. -1.
         23    2    1    2    0    0 -0.14479426560E+03  0.25437806245E+03  0.68763993285E+02  0.31441515128E+03  0.91950109175E+02 0.  0.
         13    1    3    3    0    0 -0.89885842188E+02  0.73807679529E+02  0.42667757657E+02  0.12388533298E+03  0.00000000000E+00 0.  1.
        -13    1    3    3    0    0 -0.54908423411E+02  0.18057038292E+03  0.26096235629E+02  0.19052981831E+03  0.00000000000E+00 0. -1.
         22    1    1    2    0    0  0.14479426560E+03 -0.25437806245E+03  0.52365001351E+02  0.29734772804E+03  0.00000000000E+00 0. -1.
<mgrwt>
<rscale>  0 0.59965122E+03</rscale>
<asrwt>0</asrwt>
<pdfrwt beam="1">  1        2 0.37741068E-01 0.59965122E+03</pdfrwt>
<pdfrwt beam="2">  1       -2 0.56376298E-01 0.59965122E+03</pdfrwt>
<totfact> 0.40968626E+02</totfact>
</mgrwt>
</event>
<event>
 6    1  0.1014650E-006  0.3129174E+04  0.7818608E-02  0.8207777E-01
          2   -1    0    0  501    0  0.00000000000E+00  0.00000000000E+00  0.13579603856E+04  0.13579603856E+04  0.00000000000E+00 0. -1.
         -2   -1    0    0    0  501 -0.00000000000E+00 -0.00000000000E+00 -0.18026539699E+04  0.18026539699E+04  0.00000000000E+00 0.  1.
         23    2    1    2    0    0  0.10204625020E+04 -0.91289501115E+03 -0.98450722893E+03  0.16888399874E+04  0.90581454187E+02 0.  0.
         11    1    3    3    0    0  0.34703980110E+03 -0.28896009972E+03 -0.27666692705E+03  0.52960282411E+03  0.00000000000E+00 0.  1.
        -11    1    3    3    0    0  0.67342270093E+03 -0.62393491143E+03 -0.70784030188E+03  0.11592371633E+04  0.00000000000E+00 0. -1.
         22    1    1    2    0    0 -0.10204625020E+04  0.91289501115E+03  0.53981364465E+03  0.14717743680E+04  0.00000000000E+00 0. -1.
<mgrwt>
<rscale>  0 0.31291741E+04</rscale>
<asrwt>0</asrwt>
<pdfrwt beam="1">  1        2 0.20891698E+00 0.31291741E+04</pdfrwt>
<pdfrwt beam="2">  1       -2 0.27733138E+00 0.31291741E+04</pdfrwt>
<totfact> 0.56651918E-01</totfact>
</mgrwt>
</event>
<event>
 6    1  0.1014650E-006  0.3860556E+04  0.7818608E-02  0.8033283E-01
         -2   -1    0    0    0  501 -0.00000000000E+00  0.00000000000E+00  0.13693491907E+04  0.13693491907E+04  0.00000000000E+00 0.  1.
          2   -1    0    0  501    0  0.00000000000E+00 -0.00000000000E+00 -0.27209815055E+04  0.27209815055E+04  0.00000000000E+00 0. -1.
         23    2    1    2    0    0  0.11783908881E+04 -0.14950855935E+04 -0.34445530153E+03  0.19366613731E+04  0.90121043232E+02 0.  0.
         13    1    3    3    0    0  0.95626299227E+02 -0.16378832351E+03 -0.28342065309E+02  0.19176620320E+03  0.00000000000E+00 0.  1.
        -13    1    3    3    0    0  0.10827645888E+04 -0.13312972700E+04 -0.31611323622E+03  0.17448951699E+04  0.00000000000E+00 0. -1.
         22    1    1    2    0    0 -0.11783908881E+04  0.14950855935E+04 -0.10071770133E+04  0.21536693231E+04  0.00000000000E+00 0. -1.
<mgrwt>
<rscale>  0 0.38605563E+04</rscale>
<asrwt>0</asrwt>
<pdfrwt beam="1">  1        2 0.41861254E+00 0.38605563E+04</pdfrwt>
<pdfrwt beam="2">  1       -2 0.21066911E+00 0.38605563E+04</pdfrwt>
<totfact> 0.23333368E-01</totfact>
</mgrwt>
</event>
<event>
 6    1  0.1014650E-006  0.9303587E+03  0.7818608E-02  0.9388407E-01
          1   -1    0    0  501    0  0.00000000000E+00  0.00000000000E+00  0.11324873929E+04  0.11324873929E+04  0.00000000000E+00 0. -1.
         -1   -1    0    0    0  501 -0.00000000000E+00 -0.00000000000E+00 -0.19107660766E+03  0.19107660766E+03  0.00000000000E+00 0.  1.
         23    2    1    2    0    0  0.21478028823E+03  0.33594849362E+03  0.14631560723E+03  0.43408757890E+03  0.89620347347E+02 0.  0.
         13    1    3    3    0    0  0.14651510820E+03  0.20932050021E+03  0.13703525011E+03  0.28993173078E+03  0.00000000000E+00 0. -1.
        -13    1    3    3    0    0  0.68265180027E+02  0.12662799340E+03  0.92803571166E+01  0.14415584812E+03  0.00000000000E+00 0.  1.
         22    1    1    2    0    0 -0.21478028823E+03 -0.33594849362E+03  0.79509517796E+03  0.88947642161E+03  0.00000000000E+00 0. -1.
<mgrwt>
<rscale>  0 0.93035875E+03</rscale>
<asrwt>0</asrwt>
<pdfrwt beam="1">  1        1 0.17422883E+00 0.93035875E+03</pdfrwt>
<pdfrwt beam="2">  1       -1 0.29396402E-01 0.93035875E+03</pdfrwt>
<totfact> 0.12738756E+02</totfact>
</mgrwt>
</event>
<event>
 6    1  0.1014650E-006  0.2405948E+04  0.7818608E-02  0.8437280E-01
          2   -1    0    0  501    0  0.00000000000E+00  0.00000000000E+00  0.31778099475E+04  0.31778099475E+04  0.00000000000E+00 0. -1.
         -2   -1    0    0    0  501 -0.00000000000E+00 -0.00000000000E+00 -0.45539108719E+03  0.45539108719E+03  0.00000000000E+00 0.  1.
         23    2    1    2    0    0 -0.29235932538E+03  0.18544541751E+03  0.31001881885E+04  0.31207816330E+04  0.90814198208E+02 0.  0.
         11    1    3    3    0    0 -0.71132851042E+02  0.94060152438E+02  0.11128298634E+04  0.11190609901E+04  0.00000000000E+00 0. -1.
        -11    1    3    3    0    0 -0.22122647434E+03  0.91385265068E+02  0.19873583251E+04  0.20017206428E+04  0.00000000000E+00 0.  1.
         22    1    1    2    0    0  0.29235932538E+03 -0.18544541751E+03 -0.37776932814E+03  0.51241940176E+03  0.00000000000E+00 0.  1.
<mgrwt>
<rscale>  0 0.24059479E+04</rscale>
<asrwt>0</asrwt>
<pdfrwt beam="1">  1        2 0.48889382E+00 0.24059479E+04</pdfrwt>
<pdfrwt beam="2">  1       -2 0.70060169E-01 0.24059479E+04</pdfrwt>
<totfact> 0.22376635E+00</totfact>
</mgrwt>
</event>
<event>
 6    1  0.1014650E-006  0.2969906E+04  0.7818608E-02  0.8252377E-01
          2   -1    0    0  501    0  0.00000000000E+00  0.00000000000E+00  0.16041079564E+04  0.16041079564E+04  0.00000000000E+00 0. -1.
         -2   -1    0    0    0  501 -0.00000000000E+00 -0.00000000000E+00 -0.13746486605E+04  0.13746486605E+04  0.00000000000E+00 0.  1.
         23    2    1    2    0    0  0.33463283604E+03 -0.12106196182E+04 -0.67602869224E+03  0.14303743994E+04  0.10666365239E+03 0.  0.
         11    1    3    3    0    0  0.22980001098E+03 -0.63189117649E+03 -0.35753881880E+03  0.76153037426E+03  0.00000000000E+00 0.  1.
        -11    1    3    3    0    0  0.10483282506E+03 -0.57872844170E+03 -0.31848987345E+03  0.66884402511E+03  0.00000000000E+00 0. -1.
         22    1    1    2    0    0 -0.33463283604E+03  0.12106196182E+04  0.90548798812E+03  0.15483822175E+04  0.00000000000E+00 0. -1.
<mgrwt>
<rscale>  0 0.29699056E+04</rscale>
<asrwt>0</asrwt>
<pdfrwt beam="1">  1        2 0.24678584E+00 0.29699056E+04</pdfrwt>
<pdfrwt beam="2">  1       -2 0.21148441E+00 0.29699056E+04</pdfrwt>
<totfact> 0.10664212E+00</totfact>
</mgrwt>
</event>
<event>
 6    1  0.1014650E-006  0.4462018E+04  0.7818608E-02  0.7917320E-01
          1   -1    0    0  501    0  0.00000000000E+00  0.00000000000E+00  0.47092183354E+04  0.47092183354E+04  0.00000000000E+00 0. -1.
         -1   -1    0    0    0  501 -0.00000000000E+00 -0.00000000000E+00 -0.10569486688E+04  0.10569486688E+04  0.00000000000E+00 0.  1.
         23    2    1    2    0    0  0.57369263242E+03 -0.34544736420E+03  0.45757692114E+04  0.46254178964E+04  0.91486185884E+02 0.  0.
         11    1    3    3    0    0  0.30144450927E+03 -0.13796294548E+03  0.24325425461E+04  0.24550286771E+04  0.00000000000E+00 0.  1.
        -11    1    3    3    0    0  0.27224812314E+03 -0.20748441872E+03  0.21432266653E+04  0.21703892193E+04  0.00000000000E+00 0. -1.
         22    1    1    2    0    0 -0.57369263242E+03  0.34544736420E+03 -0.92349954471E+03  0.11407491078E+04  0.00000000000E+00 0.  1.
<mgrwt>
<rscale>  0 0.44620184E+04</rscale>
<asrwt>0</asrwt>
<pdfrwt beam="1">  1        1 0.72449512E+00 0.44620184E+04</pdfrwt>
<pdfrwt beam="2">  1       -1 0.16260749E+00 0.44620184E+04</pdfrwt>
<totfact> 0.40131831E-03</totfact>
</mgrwt>
</event>
<event>
 6    1  0.1014650E-006  0.6753114E+03  0.7818608E-02  0.9760410E-01
          1   -1    0    0  501    0  0.00000000000E+00  0.00000000000E+00  0.11530283704E+03  0.11530283704E+03  0.00000000000E+00 0. -1.
         -1   -1    0    0    0  501 -0.00000000000E+00 -0.00000000000E+00 -0.98879939391E+03  0.98879939391E+03  0.00000000000E+00 0.  1.
         23    2    1    2    0    0 -0.13977787142E+02 -0.18679643367E+03 -0.89189343217E+03  0.91588232980E+03  0.90984952243E+02 0.  0.
         13    1    3    3    0    0  0.32461661480E+02 -0.47415205158E+02 -0.33730214236E+03  0.34216179855E+03  0.00000000000E+00 0.  1.
        -13    1    3    3    0    0 -0.46439448621E+02 -0.13938122852E+03 -0.55459128981E+03  0.57372053125E+03  0.00000000000E+00 0. -1.
         22    1    1    2    0    0  0.13977787142E+02  0.18679643367E+03  0.18396875296E+02  0.18821990115E+03  0.00000000000E+00 0. -1.
<mgrwt>
<rscale>  0 0.67531141E+03</rscale>
<asrwt>0</asrwt>
<pdfrwt beam="1">  1        1 0.17738899E-01 0.67531141E+03</pdfrwt>
<pdfrwt beam="2">  1       -1 0.15212298E+00 0.67531141E+03</pdfrwt>
<totfact> 0.10556781E+02</totfact>
</mgrwt>
</event>
<event>
 6    1  0.1014650E-006  0.3167798E+04  0.7818608E-02  0.8197374E-01
          2   -1    0    0  501    0  0.00000000000E+00  0.00000000000E+00  0.24646283841E+04  0.24646283841E+04  0.00000000000E+00 0. -1.
         -2   -1    0    0    0  501 -0.00000000000E+00 -0.00000000000E+00 -0.10178961528E+04  0.10178961528E+04  0.00000000000E+00 0.  1.
         23    2    1    2    0    0  0.11240586407E+04 -0.17306755701E+03  0.19337991435E+04  0.22453121929E+04  0.91583345337E+02 0.  0.
         11    1    3    3    0    0  0.19918904278E+03 -0.71295477387E+01  0.28970183848E+03  0.35164507737E+03  0.00000000000E+00 0.  1.
        -11    1    3    3    0    0  0.92486959793E+03 -0.16593800927E+03  0.16440973050E+04  0.18936671156E+04  0.00000000000E+00 0. -1.
         22    1    1    2    0    0 -0.11240586407E+04  0.17306755701E+03 -0.48706691226E+03  0.12372123440E+04  0.00000000000E+00 0.  1.
<mgrwt>
<rscale>  0 0.31677978E+04</rscale>
<asrwt>0</asrwt>
<pdfrwt beam="1">  1        2 0.37917360E+00 0.31677978E+04</pdfrwt>
<pdfrwt beam="2">  1       -2 0.15659941E+00 0.31677978E+04</pdfrwt>
<totfact> 0.82255480E-01</totfact>
</mgrwt>
</event>
<event>
 6    1  0.1070262E-006  0.5087092E+04  0.7818608E-02  0.7815211E-01
          2   -1    0    0  501    0  0.00000000000E+00  0.00000000000E+00  0.34567929331E+04  0.34567929331E+04  0.00000000000E+00 0. -1.
         -2   -1    0    0    0  501 -0.00000000000E+00 -0.00000000000E+00 -0.18715688741E+04  0.18715688741E+04  0.00000000000E+00 0.  1.
         23    2    1    2    0    0  0.17651958754E+02 -0.31374530846E+03  0.34359140336E+04  0.34511827820E+04  0.80060217464E+02 0.  0.
         11    1    3    3    0    0  0.25953552198E+02 -0.91263467012E+02  0.73307508829E+03  0.73918988924E+03  0.00000000000E+00 0. -1.
        -11    1    3    3    0    0 -0.83015934433E+01 -0.22248184145E+03  0.27028389453E+04  0.27119928928E+04  0.00000000000E+00 0.  1.
         22    1    1    2    0    0 -0.17651958754E+02  0.31374530846E+03 -0.18506899747E+04  0.18771790252E+04  0.00000000000E+00 0.  1.
<mgrwt>
<rscale>  0 0.50870919E+04</rscale>
<asrwt>0</asrwt>
<pdfrwt beam="1">  1        2 0.53181430E+00 0.50870919E+04</pdfrwt>
<pdfrwt beam="2">  1       -2 0.28793367E+00 0.50870919E+04</pdfrwt>
<totfact> 0.23687976E-02</totfact>
</mgrwt>
</event>
<event>
 6    1  0.1014650E-006  0.4091506E+04  0.7818608E-02  0.7986337E-01
          2   -1    0    0  501    0  0.00000000000E+00  0.00000000000E+00  0.17965814786E+04  0.17965814786E+04  0.00000000000E+00 0. -1.
         -2   -1    0    0    0  501 -0.00000000000E+00 -0.00000000000E+00 -0.23294823309E+04  0.23294823309E+04  0.00000000000E+00 0.  1.
         23    2    1    2    0    0  0.19536167423E+04 -0.59073219028E+03 -0.39244507151E+03  0.20802606120E+04  0.88815444398E+02 0.  0.
         13    1    3    3    0    0  0.13378784810E+04 -0.40876799066E+03 -0.31065182335E+03  0.14330089516E+04  0.00000000000E+00 0. -1.
        -13    1    3    3    0    0  0.61573826136E+03 -0.18196419962E+03 -0.81793248161E+02  0.64725166040E+03  0.00000000000E+00 0.  1.
         22    1    1    2    0    0 -0.19536167423E+04  0.59073219028E+03 -0.14045578088E+03  0.20458031975E+04  0.00000000000E+00 0.  1.
<mgrwt>
<rscale>  0 0.40915057E+04</rscale>
<asrwt>0</asrwt>
<pdfrwt beam="1">  1        2 0.27639715E+00 0.40915057E+04</pdfrwt>
<pdfrwt beam="2">  1       -2 0.35838190E+00 0.40915057E+04</pdfrwt>
<totfact> 0.93426613E-02</totfact>
</mgrwt>
</event>
<event>
 6    1  0.1030523E-006  0.2390191E+04  0.7818608E-02  0.8443185E-01
          4   -1    0    0  501    0  0.00000000000E+00  0.00000000000E+00  0.14013641855E+04  0.14013641855E+04  0.00000000000E+00 0. -1.
         -4   -1    0    0    0  501 -0.00000000000E+00 -0.00000000000E+00 -0.10191877836E+04  0.10191877836E+04  0.00000000000E+00 0.  1.
         23    2    1    2    0    0  0.88754632073E+01 -0.48530210952E+03 -0.91304906746E+03  0.10373650954E+04  0.82890470575E+02 0.  0.
         11    1    3    3    0    0 -0.33149202333E+02 -0.19764779577E+03 -0.33608695303E+03  0.39130290158E+03  0.00000000000E+00 0.  1.
        -11    1    3    3    0    0  0.42024665541E+02 -0.28765431375E+03 -0.57696211443E+03  0.64606219377E+03  0.00000000000E+00 0. -1.
         22    1    1    2    0    0 -0.88754632073E+01  0.48530210952E+03  0.12952254693E+04  0.13831868737E+04  0.00000000000E+00 0. -1.
<mgrwt>
<rscale>  0 0.23901910E+04</rscale>
<asrwt>0</asrwt>
<pdfrwt beam="1">  1        4 0.21559449E+00 0.23901910E+04</pdfrwt>
<pdfrwt beam="2">  1       -4 0.15679812E+00 0.23901910E+04</pdfrwt>
<totfact> 0.49452113E-02</totfact>
</mgrwt>
</event>
<event>
 6    1  0.1014650E-006  0.1801275E+04  0.7818608E-02  0.8705622E-01
         -1   -1    0    0    0  501 -0.00000000000E+00  0.00000000000E+00  0.83314383006E+03  0.83314383006E+03  0.00000000000E+00 0.  1.
          1   -1    0    0  501    0  0.00000000000E+00 -0.00000000000E+00 -0.97359896391E+03  0.97359896391E+03  0.00000000000E+00 0. -1.
         23    2    1    2    0    0 -0.72432284585E+03 -0.30343376182E+03  0.36730465477E+03  0.87157669333E+03  0.89540996862E+02 0.  0.
         11    1    3    3    0    0 -0.59069936250E+03 -0.23594688515E+03  0.25890596205E+03  0.68675247844E+03  0.00000000000E+00 0.  1.
        -11    1    3    3    0    0 -0.13362348335E+03 -0.67486876676E+02  0.10839869272E+03  0.18482421489E+03  0.00000000000E+00 0. -1.
         22    1    1    2    0    0  0.72432284585E+03  0.30343376182E+03 -0.50775978862E+03  0.93516610063E+03  0.00000000000E+00 0. -1.
<mgrwt>
<rscale>  0 0.18012751E+04</rscale>
<asrwt>0</asrwt>
<pdfrwt beam="1">  1        1 0.14978446E+00 0.18012751E+04</pdfrwt>
<pdfrwt beam="2">  1       -1 0.12817597E+00 0.18012751E+04</pdfrwt>
<totfact> 0.78719655E+00</totfact>
</mgrwt>
</event>
<event>
 6    1  0.1014650E-006  0.8983487E+03  0.7818608E-02  0.9427648E-01
         -2   -1    0    0    0  501 -0.00000000000E+00  0.00000000000E+00  0.88563448719E+02  0.88563448719E+02  0.00000000000E+00 0.  1.
          2   -1    0    0  501    0  0.00000000000E+00 -0.00000000000E+00 -0.22781136901E+04  0.22781136901E+04  0.00000000000E+00 0. -1.
         23    2    1    2    0    0 -0.41700077886E+02 -0.15543200878E+03 -0.21978625414E+04  0.22055340342E+04  0.88784114661E+02 0.  0.
         11    1    3    3    0    0 -0.53755555190E+02 -0.43737588093E+02 -0.68105200740E+03  0.68456882277E+03  0.00000000000E+00 0.  1.
        -11    1    3    3    0    0  0.12055477304E+02 -0.11169442069E+03 -0.15168105340E+04  0.15209652114E+04  0.00000000000E+00 0. -1.
         22    1    1    2    0    0  0.41700077886E+02  0.15543200878E+03  0.83123000272E+01  0.16114310467E+03  0.00000000000E+00 0.  1.
<mgrwt>
<rscale>  0 0.89834872E+03</rscale>
<asrwt>0</asrwt>
<pdfrwt beam="1">  1        2 0.35047897E+00 0.89834872E+03</pdfrwt>
<pdfrwt beam="2">  1       -2 0.13625148E-01 0.89834872E+03</pdfrwt>
<totfact> 0.19558964E+02</totfact>
</mgrwt>
</event>
<event>
 6    1  0.1014650E-006  0.2240270E+04  0.7818608E-02  0.8501851E-01
          2   -1    0    0  501    0  0.00000000000E+00  0.00000000000E+00  0.20058251915E+04  0.20058251915E+04  0.00000000000E+00 0. -1.
         -2   -1    0    0    0  501 -0.00000000000E+00 -0.00000000000E+00 -0.62552953884E+03  0.62552953884E+03  0.00000000000E+00 0.  1.
         23    2    1    2    0    0  0.36999217741E+02  0.74949452130E+03 -0.28286930078E+03  0.80673733431E+03  0.87744547780E+02 0.  0.
         11    1    3    3    0    0  0.28211091339E+02  0.67303890949E+03 -0.22418012358E+03  0.70995349649E+03  0.00000000000E+00 0. -1.
        -11    1    3    3    0    0  0.87881264019E+01  0.76455611809E+02 -0.58689177197E+02  0.96783837818E+02  0.00000000000E+00 0.  1.
         22    1    1    2    0    0 -0.36999217741E+02 -0.74949452130E+03  0.16631649535E+04  0.18246173961E+04  0.00000000000E+00 0. -1.
<mgrwt>
<rscale>  0 0.22402704E+04</rscale>
<asrwt>0</asrwt>
<pdfrwt beam="1">  1        2 0.30858849E+00 0.22402704E+04</pdfrwt>
<pdfrwt beam="2">  1       -2 0.96235315E-01 0.22402704E+04</pdfrwt>
<totfact> 0.54624537E+00</totfact>
</mgrwt>
</event>
<event>
 6    1  0.1014650E-006  0.1926223E+04  0.7818608E-02  0.8641912E-01
         -2   -1    0    0    0  501 -0.00000000000E+00  0.00000000000E+00  0.45801288014E+03  0.45801288014E+03  0.00000000000E+00 0.  1.
          2   -1    0    0  501    0  0.00000000000E+00 -0.00000000000E+00 -0.20252359283E+04  0.20252359283E+04  0.00000000000E+00 0. -1.
         23    2    1    2    0    0  0.41853355200E+02  0.94261699217E+03 -0.10171417618E+04  0.13910638795E+04  0.10100918808E+03 0.  0.
         13    1    3    3    0    0  0.64208474042E+02  0.62379533468E+03 -0.71817364943E+03  0.95342369303E+03  0.00000000000E+00 0.  1.
        -13    1    3    3    0    0 -0.22355118842E+02  0.31882165749E+03 -0.29896811236E+03  0.43764018649E+03  0.00000000000E+00 0. -1.
         22    1    1    2    0    0 -0.41853355200E+02 -0.94261699217E+03 -0.55008128633E+03  0.10921849289E+04  0.00000000000E+00 0.  1.
<mgrwt>
<rscale>  0 0.19262234E+04</rscale>
<asrwt>0</asrwt>
<pdfrwt beam="1">  1        2 0.31157476E+00 0.19262234E+04</pdfrwt>
<pdfrwt beam="2">  1       -2 0.70463520E-01 0.19262234E+04</pdfrwt>
<totfact> 0.11076209E+01</totfact>
</mgrwt>
</event>
<event>
 6    1  0.1014650E-006  0.1343028E+04  0.7818608E-02  0.8996123E-01
          1   -1    0    0  501    0  0.00000000000E+00  0.00000000000E+00  0.73867343677E+03  0.73867343677E+03  0.00000000000E+00 0. -1.
         -1   -1    0    0    0  501 -0.00000000000E+00 -0.00000000000E+00 -0.61046030350E+03  0.61046030350E+03  0.00000000000E+00 0.  1.
         23    2    1    2    0    0  0.39909647064E+03  0.35979810214E+03 -0.33713248787E+03  0.63830379275E+03  0.70998241402E+02 0.  0.
         11    1    3    3    0    0  0.36144436456E+03  0.34662286247E+03 -0.32330963659E+03  0.59608603286E+03  0.00000000000E+00 0.  1.
        -11    1    3    3    0    0  0.37652106077E+02  0.13175239664E+02 -0.13822851280E+02  0.42217759886E+02  0.00000000000E+00 0. -1.
         22    1    1    2    0    0 -0.39909647064E+03 -0.35979810214E+03  0.46534562114E+03  0.71082994752E+03  0.00000000000E+00 0. -1.
<mgrwt>
<rscale>  0 0.13430276E+04</rscale>
<asrwt>0</asrwt>
<pdfrwt beam="1">  1        1 0.11364207E+00 0.13430276E+04</pdfrwt>
<pdfrwt beam="2">  1       -1 0.93916970E-01 0.13430276E+04</pdfrwt>
<totfact> 0.26999079E+01</totfact>
</mgrwt>
</event>
<event>
 6    1  0.1014650E-006  0.1346156E+04  0.7818608E-02  0.8993743E-01
         -2   -1    0    0    0  501 -0.00000000000E+00  0.00000000000E+00  0.38634048611E+03  0.38634048611E+03  0.00000000000E+00 0.  1.
          2   -1    0    0  501    0  0.00000000000E+00 -0.00000000000E+00 -0.11726283271E+04  0.11726283271E+04  0.00000000000E+00 0. -1.
         23    2    1    2    0    0  0.21629766806E+03  0.32925338786E+03 -0.10226194434E+04  0.10995723603E+04  0.90090925734E+02 0.  0.
         13    1    3    3    0    0  0.97067733185E+02  0.19939916416E+03 -0.66220732355E+03  0.69835571943E+03  0.00000000000E+00 0. -1.
        -13    1    3    3    0    0  0.11922993487E+03  0.12985422370E+03 -0.36041211989E+03  0.40121664091E+03  0.00000000000E+00 0.  1.
         22    1    1    2    0    0 -0.21629766806E+03 -0.32925338786E+03  0.23633160243E+03  0.45939645289E+03  0.00000000000E+00 0.  1.
<mgrwt>
<rscale>  0 0.13461557E+04</rscale>
<asrwt>0</asrwt>
<pdfrwt beam="1">  1        2 0.18040436E+00 0.13461557E+04</pdfrwt>
<pdfrwt beam="2">  1       -2 0.59436998E-01 0.13461557E+04</pdfrwt>
<totfact> 0.50781627E+01</totfact>
</mgrwt>
</event>
<event>
 6    1  0.1014650E-006  0.9720574E+03  0.7818608E-02  0.9339734E-01
          1   -1    0    0  501    0  0.00000000000E+00  0.00000000000E+00  0.99980632961E+03  0.99980632961E+03  0.00000000000E+00 0. -1.
         -1   -1    0    0    0  501 -0.00000000000E+00 -0.00000000000E+00 -0.23626967446E+03  0.23626967446E+03  0.00000000000E+00 0.  1.
         23    2    1    2    0    0 -0.31659158424E+03  0.36254440325E+03  0.35782772078E+03  0.60657746161E+03  0.90702059639E+02 0.  0.
         13    1    3    3    0    0 -0.27491581379E+03  0.30601439144E+03  0.34107774667E+03  0.53437584313E+03  0.00000000000E+00 0. -1.
        -13    1    3    3    0    0 -0.41675770450E+02  0.56530011814E+02  0.16749974111E+02  0.72201618479E+02  0.00000000000E+00 0.  1.
         22    1    1    2    0    0  0.31659158424E+03 -0.36254440325E+03  0.40570893437E+03  0.62949854247E+03  0.00000000000E+00 0.  1.
<mgrwt>
<rscale>  0 0.97205744E+03</rscale>
<asrwt>0</asrwt>
<pdfrwt beam="1">  1        1 0.15381636E+00 0.97205744E+03</pdfrwt>
<pdfrwt beam="2">  1       -1 0.36349181E-01 0.97205744E+03</pdfrwt>
<totfact> 0.11005158E+02</totfact>
</mgrwt>
</event>
<event>
 6    1  0.1014650E-006  0.2261713E+04  0.7818608E-02  0.8493172E-01
         -1   -1    0    0    0  501 -0.00000000000E+00  0.00000000000E+00  0.61093371993E+03  0.61093371993E+03  0.00000000000E+00 0.  1.
          1   -1    0    0  501    0  0.00000000000E+00 -0.00000000000E+00 -0.20932485644E+04  0.20932485644E+04  0.00000000000E+00 0. -1.
         23    2    1    2    0    0 -0.84732621688E+03 -0.27796310565E+03 -0.15703295784E+04  0.18080953470E+04  0.89713951698E+02 0.  0.
         11    1    3    3    0    0 -0.20411948161E+03 -0.10056907163E+03 -0.35529988452E+03  0.42192050067E+03  0.00000000000E+00 0.  1.
        -11    1    3    3    0    0 -0.64320673527E+03 -0.17739403402E+03 -0.12150296938E+04  0.13861748463E+04  0.00000000000E+00 0. -1.
         22    1    1    2    0    0  0.84732621688E+03  0.27796310565E+03  0.88014733902E+02  0.89608693736E+03  0.00000000000E+00 0.  1.
<mgrwt>
<rscale>  0 0.22617127E+04</rscale>
<asrwt>0</asrwt>
<pdfrwt beam="1">  1        1 0.32203825E+00 0.22617127E+04</pdfrwt>
<pdfrwt beam="2">  1       -1 0.93989801E-01 0.22617127E+04</pdfrwt>
<totfact> 0.25612111E+00</totfact>
</mgrwt>
</event>
<event>
 6    1  0.1014650E-006  0.4726131E+03  0.7818608E-02  0.1021185E+00
          3   -1    0    0  501    0  0.00000000000E+00  0.00000000000E+00  0.53713994084E+03  0.53713994084E+03  0.00000000000E+00 0. -1.
         -3   -1    0    0    0  501 -0.00000000000E+00 -0.00000000000E+00 -0.10395947058E+03  0.10395947058E+03  0.00000000000E+00 0.  1.
         23    2    1    2    0    0 -0.96751296802E+02 -0.44676283392E+02 -0.46289350857E+02  0.14992928500E+03  0.94759183028E+02 0.  0.
         13    1    3    3    0    0 -0.22073693376E+02 -0.33112763562E+02  0.24210671022E+02  0.46581752235E+02  0.00000000000E+00 0. -1.
        -13    1    3    3    0    0 -0.74677603426E+02 -0.11563519829E+02 -0.70500021879E+02  0.10334753277E+03  0.00000000000E+00 0.  1.
         22    1    1    2    0    0  0.96751296802E+02  0.44676283392E+02  0.47946982111E+03  0.49117012642E+03  0.00000000000E+00 0. -1.
<mgrwt>
<rscale>  0 0.47261309E+03</rscale>
<asrwt>0</asrwt>
<pdfrwt beam="1">  1        3 0.82636913E-01 0.47261309E+03</pdfrwt>
<pdfrwt beam="2">  1       -3 0.15993765E-01 0.47261309E+03</pdfrwt>
<totfact> 0.12039695E+02</totfact>
</mgrwt>
</event>
<event>
 6    1  0.1014650E-006  0.2627675E+04  0.7818608E-02  0.8358861E-01
         -2   -1    0    0    0  501 -0.00000000000E+00  0.00000000000E+00  0.87602264874E+03  0.87602264874E+03  0.00000000000E+00 0.  1.
          2   -1    0    0  501    0  0.00000000000E+00 -0.00000000000E+00 -0.19704610657E+04  0.19704610657E+04  0.00000000000E+00 0. -1.
         23    2    1    2    0    0 -0.13109818626E+04  0.25039731641E+02 -0.49030310143E+03  0.14027801743E+04  0.89970294623E+02 0.  0.
         13    1    3    3    0    0 -0.78798557242E+03 -0.21797523681E+02 -0.32002412449E+03  0.85077131747E+03  0.00000000000E+00 0.  1.
        -13    1    3    3    0    0 -0.52299629020E+03  0.46837255322E+02 -0.17027897694E+03  0.55200885685E+03  0.00000000000E+00 0. -1.
         22    1    1    2    0    0  0.13109818626E+04 -0.25039731641E+02 -0.60413531554E+03  0.14437035401E+04  0.00000000000E+00 0.  1.
<mgrwt>
<rscale>  0 0.26276747E+04</rscale>
<asrwt>0</asrwt>
<pdfrwt beam="1">  1        2 0.30314786E+00 0.26276747E+04</pdfrwt>
<pdfrwt beam="2">  1       -2 0.13477272E+00 0.26276747E+04</pdfrwt>
<totfact> 0.24265162E+00</totfact>
</mgrwt>
</event>
<event>
 6    1  0.1014650E-006  0.1575908E+04  0.7818608E-02  0.8835487E-01
          2   -1    0    0  501    0  0.00000000000E+00  0.00000000000E+00  0.22204088223E+04  0.22204088223E+04  0.00000000000E+00 0. -1.
         -2   -1    0    0    0  501 -0.00000000000E+00 -0.00000000000E+00 -0.27962028859E+03  0.27962028859E+03  0.00000000000E+00 0.  1.
         23    2    1    2    0    0  0.59623421648E+03 -0.17578309891E+00  0.17845245328E+04  0.18836577052E+04  0.90240070796E+02 0.  0.
         13    1    3    3    0    0  0.30553241278E+03  0.37960222143E+02  0.83826068729E+03  0.89301288545E+03  0.00000000000E+00 0.  1.
        -13    1    3    3    0    0  0.29070180370E+03 -0.38136005242E+02  0.94626384546E+03  0.99064481970E+03  0.00000000000E+00 0. -1.
         22    1    1    2    0    0 -0.59623421648E+03  0.17578309891E+00  0.15626400095E+03  0.61637140573E+03  0.00000000000E+00 0.  1.
<mgrwt>
<rscale>  0 0.15759078E+04</rscale>
<asrwt>0</asrwt>
<pdfrwt beam="1">  1        2 0.34160135E+00 0.15759078E+04</pdfrwt>
<pdfrwt beam="2">  1       -2 0.43018507E-01 0.15759078E+04</pdfrwt>
<totfact> 0.24774394E+01</totfact>
</mgrwt>
</event>
<event>
 6    1  0.1014650E-006  0.2707123E+04  0.7818608E-02  0.8332698E-01
         -2   -1    0    0    0  501 -0.00000000000E+00  0.00000000000E+00  0.97483218955E+03  0.97483218955E+03  0.00000000000E+00 0.  1.
          2   -1    0    0  501    0  0.00000000000E+00 -0.00000000000E+00 -0.18794295958E+04  0.18794295958E+04  0.00000000000E+00 0. -1.
         23    2    1    2    0    0 -0.91993749969E+03 -0.97857350960E+03 -0.61683379065E+03  0.14806901580E+04  0.89823725301E+02 0.  0.
         13    1    3    3    0    0 -0.25684288159E+03 -0.33362035117E+03 -0.18788349666E+03  0.46105424069E+03  0.00000000000E+00 0.  1.
        -13    1    3    3    0    0 -0.66309461810E+03 -0.64495315843E+03 -0.42895029399E+03  0.10196359173E+04  0.00000000000E+00 0. -1.
         22    1    1    2    0    0  0.91993749969E+03  0.97857350960E+03 -0.28776361558E+03  0.13735716274E+04  0.00000000000E+00 0.  1.
<mgrwt>
<rscale>  0 0.27071228E+04</rscale>
<asrwt>0</asrwt>
<pdfrwt beam="1">  1        2 0.28914301E+00 0.27071228E+04</pdfrwt>
<pdfrwt beam="2">  1       -2 0.14997419E+00 0.27071228E+04</pdfrwt>
<totfact> 0.20491346E+00</totfact>
</mgrwt>
</event>
<event>
 6    1  0.1014650E-006  0.2250114E+04  0.7818608E-02  0.8497854E-01
         -2   -1    0    0    0  501 -0.00000000000E+00  0.00000000000E+00  0.11967406839E+04  0.11967406839E+04  0.00000000000E+00 0.  1.
          2   -1    0    0  501    0  0.00000000000E+00 -0.00000000000E+00 -0.10576675449E+04  0.10576675449E+04  0.00000000000E+00 0. -1.
         23    2    1    2    0    0 -0.76559515142E+03 -0.19499287814E+03 -0.73028248055E+03  0.10797008816E+04  0.91012822754E+02 0.  0.
         11    1    3    3    0    0 -0.55064136993E+03 -0.14948469821E+03 -0.57931822116E+03  0.81311819230E+03  0.00000000000E+00 0.  1.
        -11    1    3    3    0    0 -0.21495378149E+03 -0.45508179928E+02 -0.15096425939E+03  0.26658268929E+03  0.00000000000E+00 0. -1.
         22    1    1    2    0    0  0.76559515142E+03  0.19499287814E+03  0.86935561951E+03  0.11747073472E+04  0.00000000000E+00 0.  1.
<mgrwt>
<rscale>  0 0.22501145E+04</rscale>
<asrwt>0</asrwt>
<pdfrwt beam="1">  1        2 0.16271808E+00 0.22501145E+04</pdfrwt>
<pdfrwt beam="2">  1       -2 0.18411395E+00 0.22501145E+04</pdfrwt>
<totfact> 0.35798684E+00</totfact>
</mgrwt>
</event>
<event>
 6    1  0.1014650E-006  0.5013473E+03  0.7818608E-02  0.1013428E+00
         -2   -1    0    0    0  501 -0.00000000000E+00  0.00000000000E+00  0.30111507216E+03  0.30111507216E+03  0.00000000000E+00 0.  1.
          2   -1    0    0  501    0  0.00000000000E+00 -0.00000000000E+00 -0.20868190968E+03  0.20868190968E+03  0.00000000000E+00 0. -1.
         23    2    1    2    0    0  0.16728420663E+03 -0.11782932565E+03  0.18004517696E+03  0.28721301825E+03  0.90594129710E+02 0.  0.
         11    1    3    3    0    0  0.61748925762E+01 -0.45130665810E+02  0.50907037582E+02  0.68311293138E+02  0.00000000000E+00 0. -1.
        -11    1    3    3    0    0  0.16110931405E+03 -0.72698659836E+02  0.12913813938E+03  0.21890172511E+03  0.00000000000E+00 0.  1.
         22    1    1    2    0    0 -0.16728420663E+03  0.11782932565E+03 -0.87612014478E+02  0.22258396360E+03  0.00000000000E+00 0. -1.
<mgrwt>
<rscale>  0 0.50134726E+03</rscale>
<asrwt>0</asrwt>
<pdfrwt beam="1">  1        2 0.32104909E-01 0.50134726E+03</pdfrwt>
<pdfrwt beam="2">  1       -2 0.46325396E-01 0.50134726E+03</pdfrwt>
<totfact> 0.73189888E+02</totfact>
</mgrwt>
</event>
<event>
 6    1  0.1014650E-006  0.3472790E+04  0.7818608E-02  0.8120269E-01
          2   -1    0    0  501    0  0.00000000000E+00  0.00000000000E+00  0.12330999475E+04  0.12330999475E+04  0.00000000000E+00 0. -1.
         -2   -1    0    0    0  501 -0.00000000000E+00 -0.00000000000E+00 -0.24451124658E+04  0.24451124658E+04  0.00000000000E+00 0.  1.
         23    2    1    2    0    0 -0.50737555917E+03  0.15610654955E+04 -0.10472318978E+02  0.16439916067E+04  0.90792587903E+02 0.  0.
         13    1    3    3    0    0 -0.31840838201E+03  0.84011717349E+03 -0.19229503220E+02  0.89863815673E+03  0.00000000000E+00 0. -1.
        -13    1    3    3    0    0 -0.18896717716E+03  0.72094832205E+03  0.87571842419E+01  0.74535344997E+03  0.00000000000E+00 0.  1.
         22    1    1    2    0    0  0.50737555917E+03 -0.15610654955E+04 -0.12015401993E+04  0.20342208066E+04  0.00000000000E+00 0.  1.
<mgrwt>
<rscale>  0 0.34727903E+04</rscale>
<asrwt>0</asrwt>
<pdfrwt beam="1">  1        2 0.18970768E+00 0.34727903E+04</pdfrwt>
<pdfrwt beam="2">  1       -2 0.37617115E+00 0.34727903E+04</pdfrwt>
<totfact> 0.15786435E-01</totfact>
</mgrwt>
</event>
<event>
 6    1  0.1014650E-006  0.2649480E+04  0.7818608E-02  0.8351586E-01
          2   -1    0    0  501    0  0.00000000000E+00  0.00000000000E+00  0.15060927510E+04  0.15060927510E+04  0.00000000000E+00 0. -1.
         -2   -1    0    0    0  501 -0.00000000000E+00 -0.00000000000E+00 -0.11652245416E+04  0.11652245416E+04  0.00000000000E+00 0.  1.
         23    2    1    2    0    0 -0.67592266836E+03 -0.13148137204E+03  0.13098642372E+04  0.14825733728E+04  0.90114822867E+02 0.  0.
         13    1    3    3    0    0 -0.65455257557E+03 -0.14245845397E+03  0.12525540407E+04  0.14204313113E+04  0.00000000000E+00 0. -1.
        -13    1    3    3    0    0 -0.21370092792E+02  0.10977081933E+02  0.57310196448E+02  0.62142061525E+02  0.00000000000E+00 0.  1.
         22    1    1    2    0    0  0.67592266836E+03  0.13148137204E+03 -0.96899602779E+03  0.11887439197E+04  0.00000000000E+00 0.  1.
<mgrwt>
<rscale>  0 0.26494801E+04</rscale>
<asrwt>0</asrwt>
<pdfrwt beam="1">  1        2 0.23170658E+00 0.26494801E+04</pdfrwt>
<pdfrwt beam="2">  1       -2 0.17926531E+00 0.26494801E+04</pdfrwt>
<totfact> 0.20357090E+00</totfact>
</mgrwt>
</event>
<event>
 6    1  0.1014650E-006  0.2897824E+04  0.7818608E-02  0.8273525E-01
          2   -1    0    0  501    0  0.00000000000E+00  0.00000000000E+00  0.14944065137E+04  0.14944065137E+04  0.00000000000E+00 0. -1.
         -2   -1    0    0    0  501 -0.00000000000E+00 -0.00000000000E+00 -0.14048029418E+04  0.14048029418E+04  0.00000000000E+00 0.  1.
         23    2    1    2    0    0 -0.85916077999E+03  0.53698853567E+03  0.10793102429E+04  0.14828644311E+04  0.86385110019E+02 0.  0.
         11    1    3    3    0    0 -0.22114708218E+03  0.13845409480E+03  0.33497950293E+03  0.42460197327E+03  0.00000000000E+00 0. -1.
        -11    1    3    3    0    0 -0.63801369781E+03  0.39853444087E+03  0.74433074002E+03  0.10582624578E+04  0.00000000000E+00 0.  1.
         22    1    1    2    0    0  0.85916077999E+03 -0.53698853567E+03 -0.98970667101E+03  0.14163450243E+04  0.00000000000E+00 0.  1.
<mgrwt>
<rscale>  0 0.28978245E+04</rscale>
<asrwt>0</asrwt>
<pdfrwt beam="1">  1        2 0.22990870E+00 0.28978245E+04</pdfrwt>
<pdfrwt beam="2">  1       -2 0.21612353E+00 0.28978245E+04</pdfrwt>
<totfact> 0.11547122E+00</totfact>
</mgrwt>
</event>
<event>
 6    1  0.1014650E-006  0.2235382E+04  0.7818608E-02  0.8503844E-01
         -2   -1    0    0    0  501 -0.00000000000E+00  0.00000000000E+00  0.42444431307E+03  0.42444431307E+03  0.00000000000E+00 0.  1.
          2   -1    0    0  501    0  0.00000000000E+00 -0.00000000000E+00 -0.29432192460E+04  0.29432192460E+04  0.00000000000E+00 0. -1.
         23    2    1    2    0    0 -0.26229497718E+03 -0.39703692177E+03  0.25902984123E+03  0.54939523691E+03  0.91113639973E+02 0.  0.
         11    1    3    3    0    0 -0.88540857169E+02 -0.15837319214E+03  0.51746816171E+02  0.18867772619E+03  0.00000000000E+00 0. -1.
        -11    1    3    3    0    0 -0.17375412001E+03 -0.23866372963E+03  0.20728302506E+03  0.36071751072E+03  0.00000000000E+00 0.  1.
         22    1    1    2    0    0  0.26229497718E+03  0.39703692177E+03 -0.27778047742E+04  0.28182683222E+04  0.00000000000E+00 0. -1.
<mgrwt>
<rscale>  0 0.22353816E+04</rscale>
<asrwt>0</asrwt>
<pdfrwt beam="1">  1        2 0.45280298E+00 0.22353816E+04</pdfrwt>
<pdfrwt beam="2">  1       -2 0.65299123E-01 0.22353816E+04</pdfrwt>
<totfact> 0.37252484E+00</totfact>
</mgrwt>
</event>
<event>
 6    1  0.1014650E-006  0.1746856E+04  0.7818608E-02  0.8735083E-01
         -2   -1    0    0    0  501 -0.00000000000E+00  0.00000000000E+00  0.32405827775E+03  0.32405827775E+03  0.00000000000E+00 0.  1.
          2   -1    0    0  501    0  0.00000000000E+00 -0.00000000000E+00 -0.23541330363E+04  0.23541330363E+04  0.00000000000E+00 0. -1.
         23    2    1    2    0    0 -0.35827767638E+03  0.15907821908E+03 -0.22104254498E+04  0.22466879595E+04  0.89203952819E+02 0.  0.
         11    1    3    3    0    0 -0.15246137710E+03  0.10053900188E+03 -0.83688638303E+03  0.85658121653E+03  0.00000000000E+00 0.  1.
        -11    1    3    3    0    0 -0.20581629927E+03  0.58539217197E+02 -0.13735390667E+04  0.13901067430E+04  0.00000000000E+00 0. -1.
         22    1    1    2    0    0  0.35827767638E+03 -0.15907821908E+03  0.18035069121E+03  0.43150335456E+03  0.00000000000E+00 0.  1.
<mgrwt>
<rscale>  0 0.17468558E+04</rscale>
<asrwt>0</asrwt>
<pdfrwt beam="1">  1        2 0.36217432E+00 0.17468558E+04</pdfrwt>
<pdfrwt beam="2">  1       -2 0.49855119E-01 0.17468558E+04</pdfrwt>
<totfact> 0.15254198E+01</totfact>
</mgrwt>
</event>
<event>
 6    1  0.1014650E-006  0.2963044E+04  0.7818608E-02  0.8254363E-01
         -1   -1    0    0    0  501 -0.00000000000E+00  0.00000000000E+00  0.10614774527E+04  0.10614774527E+04  0.00000000000E+00 0.  1.
          1   -1    0    0  501    0  0.00000000000E+00 -0.00000000000E+00 -0.20677858316E+04  0.20677858316E+04  0.00000000000E+00 0. -1.
         23    2    1    2    0    0 -0.57259277170E+03 -0.71308817885E+03 -0.17328873454E+04  0.19612417830E+04  0.84932600162E+02 0.  0.
         13    1    3    3    0    0 -0.41554884753E+03 -0.52852092123E+03 -0.11916321184E+04  0.13682113559E+04  0.00000000000E+00 0.  1.
        -13    1    3    3    0    0 -0.15704392417E+03 -0.18456725762E+03 -0.54125522703E+03  0.59303042712E+03  0.00000000000E+00 0. -1.
         22    1    1    2    0    0  0.57259277170E+03  0.71308817885E+03  0.72657896648E+03  0.11680215013E+04  0.00000000000E+00 0.  1.
<mgrwt>
<rscale>  0 0.29630444E+04</rscale>
<asrwt>0</asrwt>
<pdfrwt beam="1">  1        1 0.31812089E+00 0.29630444E+04</pdfrwt>
<pdfrwt beam="2">  1       -1 0.16330423E+00 0.29630444E+04</pdfrwt>
<totfact> 0.63136904E-01</totfact>
</mgrwt>
</event>
<event>
 6    1  0.1014650E-006  0.1462480E+04  0.7818608E-02  0.8909794E-01
         -1   -1    0    0    0  501 -0.00000000000E+00  0.00000000000E+00  0.59438921358E+03  0.59438921358E+03  0.00000000000E+00 0.  1.
          1   -1    0    0  501    0  0.00000000000E+00 -0.00000000000E+00 -0.89959847989E+03  0.89959847989E+03  0.00000000000E+00 0. -1.
         23    2    1    2    0    0 -0.57010369111E+03 -0.58789777486E+02  0.30595832393E+03  0.65613312380E+03  0.91791740447E+02 0.  0.
         13    1    3    3    0    0 -0.11007816162E+03 -0.37144855248E+02  0.92654074725E+02  0.14859919078E+03  0.00000000000E+00 0. -1.
        -13    1    3    3    0    0 -0.46002552949E+03 -0.21644922238E+02  0.21330424920E+03  0.50753393302E+03  0.00000000000E+00 0.  1.
         22    1    1    2    0    0  0.57010369111E+03  0.58789777486E+02 -0.61116759023E+03  0.83785456966E+03  0.00000000000E+00 0. -1.
<mgrwt>
<rscale>  0 0.14624796E+04</rscale>
<asrwt>0</asrwt>
<pdfrwt beam="1">  1        1 0.13839977E+00 0.14624796E+04</pdfrwt>
<pdfrwt beam="2">  1       -1 0.91444495E-01 0.14624796E+04</pdfrwt>
<totfact> 0.20610004E+01</totfact>
</mgrwt>
</event>
<event>
 6    1  0.1014650E-006  0.4835415E+04  0.7818608E-02  0.7854410E-01
          1   -1    0    0  501    0  0.00000000000E+00  0.00000000000E+00  0.41114626273E+04  0.41114626273E+04  0.00000000000E+00 0. -1.
         -1   -1    0    0    0  501 -0.00000000000E+00 -0.00000000000E+00 -0.14217103858E+04  0.14217103858E+04  0.00000000000E+00 0.  1.
         23    2    1    2    0    0 -0.12889124547E+04 -0.11371319854E+04 -0.59891011747E+03  0.18224231456E+04  0.90378786117E+02 0.  0.
         13    1    3    3    0    0 -0.43677308541E+03 -0.38683365083E+03 -0.15825726713E+03  0.60452987036E+03  0.00000000000E+00 0. -1.
        -13    1    3    3    0    0 -0.85213936925E+03 -0.75029833456E+03 -0.44065285033E+03  0.12178932753E+04  0.00000000000E+00 0.  1.
         22    1    1    2    0    0  0.12889124547E+04  0.11371319854E+04  0.32886623590E+04  0.37107498675E+04  0.00000000000E+00 0. -1.
<mgrwt>
<rscale>  0 0.48354148E+04</rscale>
<asrwt>0</asrwt>
<pdfrwt beam="1">  1        1 0.63253270E+00 0.48354148E+04</pdfrwt>
<pdfrwt beam="2">  1       -1 0.21872468E+00 0.48354148E+04</pdfrwt>
<totfact> 0.62361495E-03</totfact>
</mgrwt>
</event>
<event>
 6    1  0.1014650E-006  0.3503805E+04  0.7818608E-02  0.8112889E-01
         -2   -1    0    0    0  501 -0.00000000000E+00  0.00000000000E+00  0.95685366937E+03  0.95685366937E+03  0.00000000000E+00 0.  1.
          2   -1    0    0  501    0  0.00000000000E+00 -0.00000000000E+00 -0.32075573655E+04  0.32075573655E+04  0.00000000000E+00 0. -1.
         23    2    1    2    0    0  0.37679785352E+03  0.31048026940E+03 -0.31243288860E+04  0.31636135566E+04  0.92979176119E+02 0.  0.
         11    1    3    3    0    0  0.27754550404E+03  0.20898109507E+03 -0.19467559806E+04  0.19775144633E+04  0.00000000000E+00 0. -1.
        -11    1    3    3    0    0  0.99252349488E+02  0.10149917433E+03 -0.11775729055E+04  0.11860990932E+04  0.00000000000E+00 0.  1.
         22    1    1    2    0    0 -0.37679785352E+03 -0.31048026940E+03  0.87362518990E+03  0.10007974783E+04  0.00000000000E+00 0.  1.
<mgrwt>
<rscale>  0 0.35038054E+04</rscale>
<asrwt>0</asrwt>
<pdfrwt beam="1">  1        2 0.49347036E+00 0.35038054E+04</pdfrwt>
<pdfrwt beam="2">  1       -2 0.14720826E+00 0.35038054E+04</pdfrwt>
<totfact> 0.33128877E-01</totfact>
</mgrwt>
</event>
<event>
 6    1  0.1248098E-006  0.2686290E+04  0.7818608E-02  0.8339467E-01
          1   -1    0    0  501    0  0.00000000000E+00  0.00000000000E+00  0.12310737666E+04  0.12310737666E+04  0.00000000000E+00 0. -1.
         -1   -1    0    0    0  501 -0.00000000000E+00 -0.00000000000E+00 -0.14654183436E+04  0.14654183436E+04  0.00000000000E+00 0.  1.
         23    2    1    2    0    0  0.79169798268E+03  0.29879702049E+03  0.92777913168E+03  0.12589258093E+04  0.89748097045E+02 0.  0.
         13    1    3    3    0    0  0.27684990719E+03  0.13309943195E+03  0.38699272801E+03  0.49408977061E+03  0.00000000000E+00 0. -1.
        -13    1    3    3    0    0  0.51484807548E+03  0.16569758855E+03  0.54078640367E+03  0.76483603869E+03  0.00000000000E+00 0.  1.
         22    1    1    2    0    0 -0.79169798268E+03 -0.29879702049E+03 -0.11621237087E+04  0.14375663009E+04  0.00000000000E+00 0.  1.
<mgrwt>
<rscale>  0 0.26862897E+04</rscale>
<asrwt>0</asrwt>
<pdfrwt beam="1">  1        1 0.18939596E+00 0.26862897E+04</pdfrwt>
<pdfrwt beam="2">  1       -1 0.22544898E+00 0.26862897E+04</pdfrwt>
<totfact> 0.89725843E-01</totfact>
</mgrwt>
</event>
<event>
 6    1  0.1014650E-006  0.5702608E+03  0.7818608E-02  0.9969102E-01
          2   -1    0    0  501    0  0.00000000000E+00  0.00000000000E+00  0.70618099885E+03  0.70618099885E+03  0.00000000000E+00 0. -1.
         -2   -1    0    0    0  501 -0.00000000000E+00 -0.00000000000E+00 -0.11512536684E+03  0.11512536684E+03  0.00000000000E+00 0.  1.
         23    2    1    2    0    0 -0.15943274921E+03 -0.17295028587E+03  0.91976804400E+02  0.26957248140E+03  0.94228378309E+02 0.  0.
         11    1    3    3    0    0 -0.36275327046E+02 -0.13539750540E+02  0.50950743280E+02  0.63993768742E+02  0.00000000000E+00 0. -1.
        -11    1    3    3    0    0 -0.12315742216E+03 -0.15941053533E+03  0.41026061120E+02  0.20557871266E+03  0.00000000000E+00 0.  1.
         22    1    1    2    0    0  0.15943274921E+03  0.17295028587E+03  0.49907882761E+03  0.55173388429E+03  0.00000000000E+00 0.  1.
<mgrwt>
<rscale>  0 0.57026081E+03</rscale>
<asrwt>0</asrwt>
<pdfrwt beam="1">  1        2 0.10864323E+00 0.57026081E+03</pdfrwt>
<pdfrwt beam="2">  1       -2 0.17711595E-01 0.57026081E+03</pdfrwt>
<totfact> 0.10726880E+03</totfact>
</mgrwt>
</event>
<event>
 6    1  0.1014650E-006  0.2830735E+04  0.7818608E-02  0.8293789E-01
         -2   -1    0    0    0  501 -0.00000000000E+00  0.00000000000E+00  0.52536022293E+03  0.52536022293E+03  0.00000000000E+00 0.  1.
          2   -1    0    0  501    0  0.00000000000E+00 -0.00000000000E+00 -0.38131272794E+04  0.38131272794E+04  0.00000000000E+00 0. -1.
         23    2    1    2    0    0  0.63348345814E+03 -0.67051995583E+03 -0.34204837147E+01  0.92706100996E+03  0.92369440730E+02 0.  0.
         11    1    3    3    0    0  0.21697926097E+03 -0.17148167116E+03  0.12660837596E+02  0.27685060962E+03  0.00000000000E+00 0.  1.
        -11    1    3    3    0    0  0.41650419716E+03 -0.49903828467E+03 -0.16081321310E+02  0.65021040034E+03  0.00000000000E+00 0. -1.
         22    1    1    2    0    0 -0.63348345814E+03  0.67051995583E+03 -0.32843465728E+04  0.34114264924E+04  0.00000000000E+00 0. -1.
<mgrwt>
<rscale>  0 0.28307352E+04</rscale>
<asrwt>0</asrwt>
<pdfrwt beam="1">  1        2 0.58663495E+00 0.28307352E+04</pdfrwt>
<pdfrwt beam="2">  1       -2 0.80824652E-01 0.28307352E+04</pdfrwt>
<totfact> 0.56274351E-01</totfact>
</mgrwt>
</event>
<event>
 6    1  0.1014650E-006  0.4478763E+04  0.7818608E-02  0.7914365E-01
         -2   -1    0    0    0  501 -0.00000000000E+00  0.00000000000E+00  0.15123902100E+04  0.15123902100E+04  0.00000000000E+00 0.  1.
          2   -1    0    0  501    0  0.00000000000E+00 -0.00000000000E+00 -0.33158304174E+04  0.33158304174E+04  0.00000000000E+00 0. -1.
         23    2    1    2    0    0  0.75015083679E+03 -0.19225470918E+04  0.32586149823E+02  0.20659921099E+04  0.91367078084E+02 0.  0.
         13    1    3    3    0    0  0.38079822732E+03 -0.85146883558E+03  0.19213301791E+02  0.93293923642E+03  0.00000000000E+00 0.  1.
        -13    1    3    3    0    0  0.36935260948E+03 -0.10710782562E+04  0.13372848032E+02  0.11330528735E+04  0.00000000000E+00 0. -1.
         22    1    1    2    0    0 -0.75015083679E+03  0.19225470918E+04 -0.18360263573E+04  0.27622285175E+04  0.00000000000E+00 0. -1.
<mgrwt>
<rscale>  0 0.44787630E+04</rscale>
<asrwt>0</asrwt>
<pdfrwt beam="1">  1        2 0.51012775E+00 0.44787630E+04</pdfrwt>
<pdfrwt beam="2">  1       -2 0.23267542E+00 0.44787630E+04</pdfrwt>
<totfact> 0.67787380E-02</totfact>
</mgrwt>
</event>
<event>
 6    1  0.1014650E-006  0.3500958E+04  0.7818608E-02  0.8113563E-01
         -1   -1    0    0    0  501 -0.00000000000E+00  0.00000000000E+00  0.13623932250E+04  0.13623932250E+04  0.00000000000E+00 0.  1.
          1   -1    0    0  501    0  0.00000000000E+00 -0.00000000000E+00 -0.22491139232E+04  0.22491139232E+04  0.00000000000E+00 0. -1.
         23    2    1    2    0    0  0.17001054155E+04  0.36242680601E+02 -0.18929717902E+02  0.17023887283E+04  0.78083879901E+02 0.  0.
         13    1    3    3    0    0  0.10293407232E+04  0.16372559698E+02 -0.49216103117E+02  0.10306466950E+04  0.00000000000E+00 0. -1.
        -13    1    3    3    0    0  0.67076469227E+03  0.19870120903E+02  0.30286385215E+02  0.67174203324E+03  0.00000000000E+00 0.  1.
         22    1    1    2    0    0 -0.17001054155E+04 -0.36242680601E+02 -0.86779098035E+03  0.19091184199E+04  0.00000000000E+00 0. -1.
<mgrwt>
<rscale>  0 0.35009585E+04</rscale>
<asrwt>0</asrwt>
<pdfrwt beam="1">  1        1 0.34601752E+00 0.35009585E+04</pdfrwt>
<pdfrwt beam="2">  1       -1 0.20959896E+00 0.35009585E+04</pdfrwt>
<totfact> 0.21282717E-01</totfact>
</mgrwt>
</event>
<event>
 6    1  0.1014650E-006  0.8263936E+03  0.7818608E-02  0.9522580E-01
         -2   -1    0    0    0  501 -0.00000000000E+00  0.00000000000E+00  0.11148936599E+03  0.11148936599E+03  0.00000000000E+00 0.  1.
          2   -1    0    0  501    0  0.00000000000E+00 -0.00000000000E+00 -0.15313712951E+04  0.15313712951E+04  0.00000000000E+00 0. -1.
         23    2    1    2    0    0  0.33540264809E+03  0.15949990800E+03 -0.10520881455E+04  0.11201681853E+04  0.99760415026E+02 0.  0.
         13    1    3    3    0    0  0.12092553413E+03  0.65134679638E+01 -0.33535904919E+03  0.35655448664E+03  0.00000000000E+00 0. -1.
        -13    1    3    3    0    0  0.21447711396E+03  0.15298644004E+03 -0.71672909629E+03  0.76361369862E+03  0.00000000000E+00 0.  1.
         22    1    1    2    0    0 -0.33540264809E+03 -0.15949990800E+03 -0.36779378359E+03  0.52269247579E+03  0.00000000000E+00 0.  1.
<mgrwt>
<rscale>  0 0.82639365E+03</rscale>
<asrwt>0</asrwt>
<pdfrwt beam="1">  1        2 0.23559557E+00 0.82639365E+03</pdfrwt>
<pdfrwt beam="2">  1       -2 0.17152211E-01 0.82639365E+03</pdfrwt>
<totfact> 0.34260705E+02</totfact>
</mgrwt>
</event>
<event>
 6    1  0.1014650E-006  0.2270636E+04  0.7818608E-02  0.8489590E-01
          3   -1    0    0  501    0  0.00000000000E+00  0.00000000000E+00  0.98862154077E+03  0.98862154077E+03  0.00000000000E+00 0. -1.
         -3   -1    0    0    0  501 -0.00000000000E+00 -0.00000000000E+00 -0.13037824283E+04  0.13037824283E+04  0.00000000000E+00 0.  1.
         23    2    1    2    0    0 -0.98994469850E+03 -0.44440633695E+03  0.17328946066E+03  0.11024160527E+04  0.88342615247E+02 0.  0.
         13    1    3    3    0    0 -0.43829963501E+03 -0.21371269778E+03  0.11954151460E+03  0.50206559428E+03  0.00000000000E+00 0.  1.
        -13    1    3    3    0    0 -0.55164506349E+03 -0.23069363917E+03  0.53747946057E+02  0.60035045843E+03  0.00000000000E+00 0. -1.
         22    1    1    2    0    0  0.98994469850E+03  0.44440633695E+03 -0.48845034814E+03  0.11899879163E+04  0.00000000000E+00 0.  1.
<mgrwt>
<rscale>  0 0.22706364E+04</rscale>
<asrwt>0</asrwt>
<pdfrwt beam="1">  1        3 0.15209562E+00 0.22706364E+04</pdfrwt>
<pdfrwt beam="2">  1       -3 0.20058191E+00 0.22706364E+04</pdfrwt>
<totfact> 0.10741314E-01</totfact>
</mgrwt>
</event>
<event>
 6    1  0.1014650E-006  0.3474414E+04  0.7818608E-02  0.8119880E-01
         -2   -1    0    0    0  501 -0.00000000000E+00  0.00000000000E+00  0.82945371304E+03  0.82945371304E+03  0.00000000000E+00 0.  1.
          2   -1    0    0  501    0  0.00000000000E+00 -0.00000000000E+00 -0.36384043919E+04  0.36384043919E+04  0.00000000000E+00 0. -1.
         23    2    1    2    0    0  0.14491433549E+04 -0.14644289436E+03 -0.26201811092E+04  0.29991525746E+04  0.90028531015E+02 0.  0.
         13    1    3    3    0    0  0.71640771494E+03 -0.65723601817E+02 -0.13856776594E+04  0.15613014384E+04  0.00000000000E+00 0. -1.
        -13    1    3    3    0    0  0.73273563998E+03 -0.80719292540E+02 -0.12345034498E+04  0.14378511362E+04  0.00000000000E+00 0.  1.
         22    1    1    2    0    0 -0.14491433549E+04  0.14644289436E+03 -0.18876956967E+03  0.14687055303E+04  0.00000000000E+00 0.  1.
<mgrwt>
<rscale>  0 0.34744139E+04</rscale>
<asrwt>0</asrwt>
<pdfrwt beam="1">  1        2 0.55975453E+00 0.34744139E+04</pdfrwt>
<pdfrwt beam="2">  1       -2 0.12760826E+00 0.34744139E+04</pdfrwt>
<totfact> 0.24229330E-01</totfact>
</mgrwt>
</event>
<event>
 6    1  0.1014650E-006  0.5611759E+04  0.7818608E-02  0.7740496E-01
         -2   -1    0    0    0  501 -0.00000000000E+00  0.00000000000E+00  0.18806854309E+04  0.18806854309E+04  0.00000000000E+00 0.  1.
          2   -1    0    0  501    0  0.00000000000E+00 -0.00000000000E+00 -0.41862179695E+04  0.41862179695E+04  0.00000000000E+00 0. -1.
         23    2    1    2    0    0  0.43674533085E+03 -0.26670779455E+04 -0.34063084618E+03  0.27255129844E+04  0.91325809899E+02 0.  0.
         13    1    3    3    0    0  0.12133355740E+03 -0.58989690037E+03 -0.10530934018E+03  0.61138387479E+03  0.00000000000E+00 0. -1.
        -13    1    3    3    0    0  0.31541177345E+03 -0.20771810451E+04 -0.23532150600E+03  0.21141291096E+04  0.00000000000E+00 0.  1.
         22    1    1    2    0    0 -0.43674533085E+03  0.26670779455E+04 -0.19649016924E+04  0.33413904160E+04  0.00000000000E+00 0. -1.
<mgrwt>
<rscale>  0 0.56117588E+04</rscale>
<asrwt>0</asrwt>
<pdfrwt beam="1">  1        2 0.64403352E+00 0.56117588E+04</pdfrwt>
<pdfrwt beam="2">  1       -2 0.28933623E+00 0.56117588E+04</pdfrwt>
<totfact> 0.60806859E-03</totfact>
</mgrwt>
</event>
<event>
 6    1  0.1014650E-006  0.1203394E+04  0.7818608E-02  0.9109891E-01
         -1   -1    0    0    0  501 -0.00000000000E+00  0.00000000000E+00  0.25451593148E+03  0.25451593148E+03  0.00000000000E+00 0.  1.
          1   -1    0    0  501    0  0.00000000000E+00 -0.00000000000E+00 -0.14224616817E+04  0.14224616817E+04  0.00000000000E+00 0. -1.
         23    2    1    2    0    0  0.29424501389E+03 -0.35607226665E+03 -0.57312676992E+02  0.47411710147E+03  0.90192547891E+02 0.  0.
         13    1    3    3    0    0  0.17536558711E+03 -0.17040335734E+03 -0.66688976728E+02  0.25345179611E+03  0.00000000000E+00 0.  1.
        -13    1    3    3    0    0  0.11887942677E+03 -0.18566890931E+03  0.93762997353E+01  0.22066530536E+03  0.00000000000E+00 0. -1.
         22    1    1    2    0    0 -0.29424501389E+03  0.35607226665E+03 -0.11106330732E+04  0.12028605117E+04  0.00000000000E+00 0. -1.
<mgrwt>
<rscale>  0 0.12033938E+04</rscale>
<asrwt>0</asrwt>
<pdfrwt beam="1">  1        1 0.21884026E+00 0.12033938E+04</pdfrwt>
<pdfrwt beam="2">  1       -1 0.39156298E-01 0.12033938E+04</pdfrwt>
<totfact> 0.46413194E+01</totfact>
</mgrwt>
</event>
<event>
 6    1  0.1014650E-006  0.3822672E+04  0.7818608E-02  0.8041307E-01
         -2   -1    0    0    0  501 -0.00000000000E+00  0.00000000000E+00  0.21547882209E+04  0.21547882209E+04  0.00000000000E+00 0.  1.
          2   -1    0    0  501    0  0.00000000000E+00 -0.00000000000E+00 -0.16953891854E+04  0.16953891854E+04  0.00000000000E+00 0. -1.
         23    2    1    2    0    0 -0.13885049754E+04  0.81983672241E+03  0.12613974847E+04  0.20492665727E+04  0.91057967498E+02 0.  0.
         11    1    3    3    0    0 -0.65030644032E+03  0.43113714532E+03  0.58356873314E+03  0.97433575870E+03  0.00000000000E+00 0. -1.
        -11    1    3    3    0    0 -0.73819853510E+03  0.38869957709E+03  0.67782875158E+03  0.10749308140E+04  0.00000000000E+00 0.  1.
         22    1    1    2    0    0  0.13885049754E+04 -0.81983672241E+03 -0.80199844918E+03  0.18009108336E+04  0.00000000000E+00 0. -1.
<mgrwt>
<rscale>  0 0.38226717E+04</rscale>
<asrwt>0</asrwt>
<pdfrwt beam="1">  1        2 0.26082910E+00 0.38226717E+04</pdfrwt>
<pdfrwt beam="2">  1       -2 0.33150588E+00 0.38226717E+04</pdfrwt>
<totfact> 0.16036485E-01</totfact>
</mgrwt>
</event>
<event>
 6    1  0.1014650E-006  0.3201327E+04  0.7818608E-02  0.8188467E-01
         -2   -1    0    0    0  501 -0.00000000000E+00  0.00000000000E+00  0.13382786879E+04  0.13382786879E+04  0.00000000000E+00 0.  1.
          2   -1    0    0  501    0  0.00000000000E+00 -0.00000000000E+00 -0.19144919302E+04  0.19144919302E+04  0.00000000000E+00 0. -1.
         23    2    1    2    0    0  0.49184165514E+03 -0.90081264331E+03  0.95807967169E+03  0.14068490656E+04  0.89084251677E+02 0.  0.
         13    1    3    3    0    0  0.31170963371E+03 -0.57544036452E+03  0.55150799388E+03  0.85583618537E+03  0.00000000000E+00 0.  1.
        -13    1    3    3    0    0  0.18013202143E+03 -0.32537227879E+03  0.40657167780E+03  0.55101288019E+03  0.00000000000E+00 0. -1.
         22    1    1    2    0    0 -0.49184165514E+03  0.90081264331E+03 -0.15342929140E+04  0.18459215525E+04  0.00000000000E+00 0. -1.
<mgrwt>
<rscale>  0 0.32013271E+04</rscale>
<asrwt>0</asrwt>
<pdfrwt beam="1">  1        2 0.29453722E+00 0.32013271E+04</pdfrwt>
<pdfrwt beam="2">  1       -2 0.20588903E+00 0.32013271E+04</pdfrwt>
<totfact> 0.76406037E-01</totfact>
</mgrwt>
</event>
<event>
 6    1  0.1014650E-006  0.1953509E+04  0.7818608E-02  0.8628671E-01
          2   -1    0    0  501    0  0.00000000000E+00  0.00000000000E+00  0.22843991009E+04  0.22843991009E+04  0.00000000000E+00 0. -1.
         -2   -1    0    0    0  501 -0.00000000000E+00 -0.00000000000E+00 -0.41763679395E+03  0.41763679395E+03  0.00000000000E+00 0.  1.
         23    2    1    2    0    0 -0.41249858074E+03  0.30837089694E+03 -0.20908118231E+03  0.56325729923E+03  0.91083231992E+02 0.  0.
         13    1    3    3    0    0 -0.26125563430E+03  0.18037300352E+03 -0.82077191008E+02  0.32791095154E+03  0.00000000000E+00 0.  1.
        -13    1    3    3    0    0 -0.15124294644E+03  0.12799789342E+03 -0.12700399131E+03  0.23534634770E+03  0.00000000000E+00 0. -1.
         22    1    1    2    0    0  0.41249858074E+03 -0.30837089694E+03  0.20758434893E+04  0.21387785956E+04  0.00000000000E+00 0. -1.
<mgrwt>
<rscale>  0 0.19535088E+04</rscale>
<asrwt>0</asrwt>
<pdfrwt beam="1">  1        2 0.35144601E+00 0.19535088E+04</pdfrwt>
<pdfrwt beam="2">  1       -2 0.64251816E-01 0.19535088E+04</pdfrwt>
<totfact> 0.96593156E+00</totfact>
</mgrwt>
</event>
<event>
 6    1  0.1014650E-006  0.2372003E+04  0.7818608E-02  0.8450060E-01
         -1   -1    0    0    0  501 -0.00000000000E+00  0.00000000000E+00  0.96272172167E+03  0.96272172167E+03  0.00000000000E+00 0.  1.
          1   -1    0    0  501    0  0.00000000000E+00 -0.00000000000E+00 -0.14610656647E+04  0.14610656647E+04  0.00000000000E+00 0. -1.
         23    2    1    2    0    0 -0.66984367747E+03  0.88558471960E+03  0.17126235082E+03  0.11271288205E+04  0.90209407824E+02 0.  0.
         11    1    3    3    0    0 -0.33689240837E+03  0.37482046823E+03  0.91932175788E+02  0.51228742241E+03  0.00000000000E+00 0. -1.
        -11    1    3    3    0    0 -0.33295126910E+03  0.51076425137E+03  0.79330175028E+02  0.61484139804E+03  0.00000000000E+00 0.  1.
         22    1    1    2    0    0  0.66984367747E+03 -0.88558471960E+03 -0.66960629384E+03  0.12966585659E+04  0.00000000000E+00 0. -1.
<mgrwt>
<rscale>  0 0.23720031E+04</rscale>
<asrwt>0</asrwt>
<pdfrwt beam="1">  1        1 0.22477933E+00 0.23720031E+04</pdfrwt>
<pdfrwt beam="2">  1       -1 0.14811104E+00 0.23720031E+04</pdfrwt>
<totfact> 0.22580053E+00</totfact>
</mgrwt>
</event>
<event>
 6    1  0.1014650E-006  0.4471810E+04  0.7818608E-02  0.7915591E-01
         -1   -1    0    0    0  501 -0.00000000000E+00  0.00000000000E+00  0.22597155768E+04  0.22597155768E+04  0.00000000000E+00 0.  1.
          1   -1    0    0  501    0  0.00000000000E+00 -0.00000000000E+00 -0.22123457040E+04  0.22123457040E+04  0.00000000000E+00 0. -1.
         23    2    1    2    0    0 -0.11924786809E+04 -0.18772751342E+04  0.24546090507E+03  0.22392586942E+04  0.88662899548E+02 0.  0.
         13    1    3    3    0    0 -0.42087453967E+03 -0.71819273914E+03  0.12289310077E+03  0.84145047562E+03  0.00000000000E+00 0.  1.
        -13    1    3    3    0    0 -0.77160414120E+03 -0.11590823951E+04  0.12256780429E+03  0.13978082186E+04  0.00000000000E+00 0. -1.
         22    1    1    2    0    0  0.11924786809E+04  0.18772751342E+04 -0.19809103230E+03  0.22328025867E+04  0.00000000000E+00 0.  1.
<mgrwt>
<rscale>  0 0.44718104E+04</rscale>
<asrwt>0</asrwt>
<pdfrwt beam="1">  1        1 0.34036088E+00 0.44718104E+04</pdfrwt>
<pdfrwt beam="2">  1       -1 0.34764855E+00 0.44718104E+04</pdfrwt>
<totfact> 0.25915702E-02</totfact>
</mgrwt>
</event>
<event>
 6    1  0.1014650E-006  0.3780433E+04  0.7818608E-02  0.8050367E-01
         -1   -1    0    0    0  501 -0.00000000000E+00  0.00000000000E+00  0.12819200025E+04  0.12819200025E+04  0.00000000000E+00 0.  1.
          1   -1    0    0  501    0  0.00000000000E+00 -0.00000000000E+00 -0.27871614905E+04  0.27871614905E+04  0.00000000000E+00 0. -1.
         23    2    1    2    0    0  0.31787030795E+03  0.10307696825E+04 -0.24223810954E+04  0.26532168347E+04  0.90009605825E+02 0.  0.
         11    1    3    3    0    0  0.49334083662E+02  0.22658937991E+03 -0.60054493609E+03  0.64376301475E+03  0.00000000000E+00 0.  1.
        -11    1    3    3    0    0  0.26853622429E+03  0.80418030261E+03 -0.18218361593E+04  0.20094538199E+04  0.00000000000E+00 0. -1.
         22    1    1    2    0    0 -0.31787030795E+03 -0.10307696825E+04  0.91713960749E+03  0.14158646583E+04  0.00000000000E+00 0.  1.
<mgrwt>
<rscale>  0 0.37804328E+04</rscale>
<asrwt>0</asrwt>
<pdfrwt beam="1">  1        1 0.42879407E+00 0.37804328E+04</pdfrwt>
<pdfrwt beam="2">  1       -1 0.19721846E+00 0.37804328E+04</pdfrwt>
<totfact> 0.10668597E-01</totfact>
</mgrwt>
</event>
<event>
 6    1  0.1014650E-006  0.1629238E+04  0.7818608E-02  0.8802785E-01
          1   -1    0    0  501    0  0.00000000000E+00  0.00000000000E+00  0.15639156687E+04  0.15639156687E+04  0.00000000000E+00 0. -1.
         -1   -1    0    0    0  501 -0.00000000000E+00 -0.00000000000E+00 -0.42432223844E+03  0.42432223844E+03  0.00000000000E+00 0.  1.
         23    2    1    2    0    0 -0.44653664485E+03 -0.65991705707E+03  0.76381148469E+03  0.11072739078E+04  0.88102357773E+02 0.  0.
         13    1    3    3    0    0 -0.33130395192E+03 -0.46192625410E+03  0.49197717428E+03  0.75178435259E+03  0.00000000000E+00 0.  1.
        -13    1    3    3    0    0 -0.11523269293E+03 -0.19799080297E+03  0.27183431041E+03  0.35548955525E+03  0.00000000000E+00 0. -1.
         22    1    1    2    0    0  0.44653664485E+03  0.65991705707E+03  0.37578194553E+03  0.88096399926E+03  0.00000000000E+00 0.  1.
<mgrwt>
<rscale>  0 0.16292381E+04</rscale>
<asrwt>0</asrwt>
<pdfrwt beam="1">  1        1 0.24060241E+00 0.16292381E+04</pdfrwt>
<pdfrwt beam="2">  1       -1 0.65280345E-01 0.16292381E+04</pdfrwt>
<totfact> 0.13454143E+01</totfact>
</mgrwt>
</event>
<event>
 6    1  0.1014650E-006  0.2139032E+04  0.7818608E-02  0.8544242E-01
          1   -1    0    0  501    0  0.00000000000E+00  0.00000000000E+00  0.19192558928E+04  0.19192558928E+04  0.00000000000E+00 0. -1.
         -1   -1    0    0    0  501 -0.00000000000E+00 -0.00000000000E+00 -0.59599388397E+03  0.59599388397E+03  0.00000000000E+00 0.  1.
         23    2    1    2    0    0 -0.82489071574E+02 -0.73518571234E+03  0.15680191856E+04  0.17360138984E+04  0.88077299256E+02 0.  0.
         13    1    3    3    0    0 -0.82369309097E+02 -0.49561124150E+03  0.11327623381E+04  0.12391794545E+04  0.00000000000E+00 0. -1.
        -13    1    3    3    0    0 -0.11976247624E+00 -0.23957447083E+03  0.43525684747E+03  0.49683444394E+03  0.00000000000E+00 0.  1.
         22    1    1    2    0    0  0.82489071574E+02  0.73518571234E+03 -0.24475717673E+03  0.77923587836E+03  0.00000000000E+00 0.  1.
<mgrwt>
<rscale>  0 0.21390323E+04</rscale>
<asrwt>0</asrwt>
<pdfrwt beam="1">  1        1 0.29527013E+00 0.21390323E+04</pdfrwt>
<pdfrwt beam="2">  1       -1 0.91691368E-01 0.21390323E+04</pdfrwt>
<totfact> 0.35912270E+00</totfact>
</mgrwt>
</event>
<event>
 6    1  0.1014650E-006  0.2173377E+04  0.7818608E-02  0.8529592E-01
          2   -1    0    0  501    0  0.00000000000E+00  0.00000000000E+00  0.20378617762E+04  0.20378617762E+04  0.00000000000E+00 0. -1.
         -2   -1    0    0    0  501 -0.00000000000E+00 -0.00000000000E+00 -0.57947577365E+03  0.57947577365E+03  0.00000000000E+00 0.  1.
         23    2    1    2    0    0  0.46700781741E+03  0.81492969357E+02  0.19055709951E+04  0.19656383683E+04  0.88294800672E+02 0.  0.
         11    1    3    3    0    0  0.14367545577E+02  0.18946090193E+02  0.13359847784E+03  0.13569795128E+03  0.00000000000E+00 0. -1.
        -11    1    3    3    0    0  0.45264027183E+03  0.62546879164E+02  0.17719725173E+04  0.18299404170E+04  0.00000000000E+00 0.  1.
         22    1    1    2    0    0 -0.46700781741E+03 -0.81492969357E+02 -0.44718499262E+03  0.65169918152E+03  0.00000000000E+00 0.  1.
<mgrwt>
<rscale>  0 0.21733767E+04</rscale>
<asrwt>0</asrwt>
<pdfrwt beam="1">  1        2 0.31351719E+00 0.21733767E+04</pdfrwt>
<pdfrwt beam="2">  1       -2 0.89150120E-01 0.21733767E+04</pdfrwt>
<totfact> 0.62970817E+00</totfact>
</mgrwt>
</event>
<event>
 6    1  0.1014650E-006  0.3161489E+04  0.7818608E-02  0.8199063E-01
         -1   -1    0    0    0  501 -0.00000000000E+00  0.00000000000E+00  0.25830324171E+04  0.25830324171E+04  0.00000000000E+00 0.  1.
          1   -1    0    0  501    0  0.00000000000E+00 -0.00000000000E+00 -0.96737175487E+03  0.96737175487E+03  0.00000000000E+00 0. -1.
         23    2    1    2    0    0 -0.83089969431E+03  0.12791970153E+04  0.34826786468E+03  0.15672189034E+04  0.90251203510E+02 0.  0.
         11    1    3    3    0    0 -0.43348217138E+03  0.69971734141E+03  0.14538995292E+03  0.83585249248E+03  0.00000000000E+00 0. -1.
        -11    1    3    3    0    0 -0.39741752293E+03  0.57947967391E+03  0.20287791176E+03  0.73136641096E+03  0.00000000000E+00 0.  1.
         22    1    1    2    0    0  0.83089969431E+03 -0.12791970153E+04  0.12673927976E+04  0.19831852685E+04  0.00000000000E+00 0.  1.
<mgrwt>
<rscale>  0 0.31614886E+04</rscale>
<asrwt>0</asrwt>
<pdfrwt beam="1">  1        1 0.14882642E+00 0.31614886E+04</pdfrwt>
<pdfrwt beam="2">  1       -1 0.39738960E+00 0.31614886E+04</pdfrwt>
<totfact> 0.10036811E-01</totfact>
</mgrwt>
</event>
<event>
 6    1  0.1014650E-006  0.1448429E+04  0.7818608E-02  0.8919491E-01
         -1   -1    0    0    0  501 -0.00000000000E+00  0.00000000000E+00  0.35792035853E+03  0.35792035853E+03  0.00000000000E+00 0.  1.
          1   -1    0    0  501    0  0.00000000000E+00 -0.00000000000E+00 -0.14653719133E+04  0.14653719133E+04  0.00000000000E+00 0. -1.
         23    2    1    2    0    0  0.65843168588E+03 -0.21539631425E+03 -0.30256230735E+03  0.76132496642E+03  0.90243545517E+02 0.  0.
         13    1    3    3    0    0  0.45520847681E+03 -0.12398448626E+03 -0.16690312204E+03  0.50044336577E+03  0.00000000000E+00 0.  1.
        -13    1    3    3    0    0  0.20322320906E+03 -0.91411827995E+02 -0.13565918532E+03  0.26088160065E+03  0.00000000000E+00 0. -1.
         22    1    1    2    0    0 -0.65843168588E+03  0.21539631425E+03 -0.80488924746E+03  0.10619673054E+04  0.00000000000E+00 0.  1.
<mgrwt>
<rscale>  0 0.14484287E+04</rscale>
<asrwt>0</asrwt>
<pdfrwt beam="1">  1        1 0.22544183E+00 0.14484287E+04</pdfrwt>
<pdfrwt beam="2">  1       -1 0.55064671E-01 0.14484287E+04</pdfrwt>
<totfact> 0.22387627E+01</totfact>
</mgrwt>
</event>
<event>
 6    1  0.1014650E-006  0.3182201E+04  0.7818608E-02  0.8193534E-01
         -2   -1    0    0    0  501 -0.00000000000E+00  0.00000000000E+00  0.71048988751E+03  0.71048988751E+03  0.00000000000E+00 0.  1.
          2   -1    0    0  501    0  0.00000000000E+00 -0.00000000000E+00 -0.35631763780E+04  0.35631763780E+04  0.00000000000E+00 0. -1.
         23    2    1    2    0    0  0.12871713445E+04 -0.66800247998E+03 -0.55260018825E+03  0.15545792163E+04  0.91171202552E+02 0.  0.
         13    1    3    3    0    0  0.37871707374E+03 -0.18912480652E+03 -0.20553929849E+03  0.47057541118E+03  0.00000000000E+00 0. -1.
        -13    1    3    3    0    0  0.90845427080E+03 -0.47887767346E+03 -0.34706088976E+03  0.10840038051E+04  0.00000000000E+00 0.  1.
         22    1    1    2    0    0 -0.12871713445E+04  0.66800247998E+03 -0.23000863022E+04  0.27190870492E+04  0.00000000000E+00 0. -1.
<mgrwt>
<rscale>  0 0.31822010E+04</rscale>
<asrwt>0</asrwt>
<pdfrwt beam="1">  1        2 0.54818096E+00 0.31822010E+04</pdfrwt>
<pdfrwt beam="2">  1       -2 0.10930614E+00 0.31822010E+04</pdfrwt>
<totfact> 0.41219403E-01</totfact>
</mgrwt>
</event>
<event>
 6    1  0.1014650E-006  0.2166657E+04  0.7818608E-02  0.8532436E-01
         -1   -1    0    0    0  501 -0.00000000000E+00  0.00000000000E+00  0.44063294763E+03  0.44063294763E+03  0.00000000000E+00 0.  1.
          1   -1    0    0  501    0  0.00000000000E+00 -0.00000000000E+00 -0.26634433348E+04  0.26634433348E+04  0.00000000000E+00 0. -1.
         23    2    1    2    0    0 -0.45098475490E+03 -0.92726438574E+03 -0.64689820225E+03  0.12208063324E+04  0.93189735903E+02 0.  0.
         11    1    3    3    0    0 -0.13851036806E+03 -0.36829778842E+03 -0.27790864371E+03  0.48172772109E+03  0.00000000000E+00 0. -1.
        -11    1    3    3    0    0 -0.31247438684E+03 -0.55896659731E+03 -0.36898955854E+03  0.73907861129E+03  0.00000000000E+00 0.  1.
         22    1    1    2    0    0  0.45098475490E+03  0.92726438574E+03 -0.15759121849E+04  0.18832699501E+04  0.00000000000E+00 0. -1.
<mgrwt>
<rscale>  0 0.21666572E+04</rscale>
<asrwt>0</asrwt>
<pdfrwt beam="1">  1        1 0.40976051E+00 0.21666572E+04</pdfrwt>
<pdfrwt beam="2">  1       -1 0.67789685E-01 0.21666572E+04</pdfrwt>
<totfact> 0.20988493E+00</totfact>
</mgrwt>
</event>
<event>
 6    1  0.1014650E-006  0.3988972E+04  0.7818608E-02  0.8006775E-01
         -2   -1    0    0    0  501 -0.00000000000E+00  0.00000000000E+00  0.25500020358E+04  0.25500020358E+04  0.00000000000E+00 0.  1.
          2   -1    0    0  501    0  0.00000000000E+00 -0.00000000000E+00 -0.15599888242E+04  0.15599888242E+04  0.00000000000E+00 0. -1.
         23    2    1    2    0    0  0.14548669459E+04  0.61902372011E+03 -0.75569627794E+03  0.17547138448E+04  0.90086715740E+02 0.  0.
         13    1    3    3    0    0  0.27293573317E+03  0.15494504510E+03 -0.15354927934E+03  0.34939842964E+03  0.00000000000E+00 0.  1.
        -13    1    3    3    0    0  0.11819312128E+04  0.46407867500E+03 -0.60214699860E+03  0.14053154152E+04  0.00000000000E+00 0. -1.
         22    1    1    2    0    0 -0.14548669459E+04 -0.61902372011E+03  0.17457094895E+04  0.23552770152E+04  0.00000000000E+00 0.  1.
<mgrwt>
<rscale>  0 0.39889721E+04</rscale>
<asrwt>0</asrwt>
<pdfrwt beam="1">  1        2 0.23999828E+00 0.39889721E+04</pdfrwt>
<pdfrwt beam="2">  1       -2 0.39230800E+00 0.39889721E+04</pdfrwt>
<totfact> 0.77219644E-02</totfact>
</mgrwt>
</event>
<event>
 6    1  0.1014650E-006  0.1694338E+04  0.7818608E-02  0.8764600E-01
          1   -1    0    0  501    0  0.00000000000E+00  0.00000000000E+00  0.77538086486E+03  0.77538086486E+03  0.00000000000E+00 0. -1.
         -1   -1    0    0    0  501 -0.00000000000E+00 -0.00000000000E+00 -0.92560339202E+03  0.92560339202E+03  0.00000000000E+00 0.  1.
         23    2    1    2    0    0  0.48005029394E+03  0.47507558803E+03 -0.58479790506E+03  0.89786480241E+03  0.89596398274E+02 0.  0.
         13    1    3    3    0    0  0.53689437658E+02  0.64565312762E+02 -0.11400461735E+03  0.14159197755E+03  0.00000000000E+00 0.  1.
        -13    1    3    3    0    0  0.42636085628E+03  0.41051027527E+03 -0.47079328771E+03  0.75627282486E+03  0.00000000000E+00 0. -1.
         22    1    1    2    0    0 -0.48005029394E+03 -0.47507558803E+03  0.43457537791E+03  0.80311945446E+03  0.00000000000E+00 0.  1.
<mgrwt>
<rscale>  0 0.16943378E+04</rscale>
<asrwt>0</asrwt>
<pdfrwt beam="1">  1        1 0.11928936E+00 0.16943378E+04</pdfrwt>
<pdfrwt beam="2">  1       -1 0.14240052E+00 0.16943378E+04</pdfrwt>
<totfact> 0.88707502E+00</totfact>
</mgrwt>
</event>
<event>
 6    1  0.1014650E-006  0.4914738E+04  0.7818608E-02  0.7841796E-01
         -2   -1    0    0    0  501 -0.00000000000E+00  0.00000000000E+00  0.18998617562E+04  0.18998617562E+04  0.00000000000E+00 0.  1.
          2   -1    0    0  501    0  0.00000000000E+00 -0.00000000000E+00 -0.31784751585E+04  0.31784751585E+04  0.00000000000E+00 0. -1.
         23    2    1    2    0    0  0.20280712845E+04  0.13657369017E+04 -0.39473079905E+03  0.24784217476E+04  0.91932235193E+02 0.  0.
         11    1    3    3    0    0  0.15417438988E+04  0.10415270205E+04 -0.26059622208E+03  0.18787397837E+04  0.00000000000E+00 0. -1.
        -11    1    3    3    0    0  0.48632738571E+03  0.32420988114E+03 -0.13413457697E+03  0.59968196392E+03  0.00000000000E+00 0.  1.
         22    1    1    2    0    0 -0.20280712845E+04 -0.13657369017E+04 -0.88388260328E+03  0.25999151671E+04  0.00000000000E+00 0. -1.
<mgrwt>
<rscale>  0 0.49147384E+04</rscale>
<asrwt>0</asrwt>
<pdfrwt beam="1">  1        2 0.48899617E+00 0.49147384E+04</pdfrwt>
<pdfrwt beam="2">  1       -2 0.29228643E+00 0.49147384E+04</pdfrwt>
<totfact> 0.34750580E-02</totfact>
</mgrwt>
</event>
<event>
 6    1  0.1014650E-006  0.1487476E+04  0.7818608E-02  0.8892824E-01
          2   -1    0    0  501    0  0.00000000000E+00  0.00000000000E+00  0.52365287289E+03  0.52365287289E+03  0.00000000000E+00 0. -1.
         -2   -1    0    0    0  501 -0.00000000000E+00 -0.00000000000E+00 -0.10563222570E+04  0.10563222570E+04  0.00000000000E+00 0.  1.
         23    2    1    2    0    0 -0.45179528981E+03  0.40179809269E+03 -0.72218836552E+03  0.94635210675E+03  0.92008605442E+02 0.  0.
         13    1    3    3    0    0 -0.11676790502E+03  0.15077508508E+03 -0.26453338993E+03  0.32610701359E+03  0.00000000000E+00 0.  1.
        -13    1    3    3    0    0 -0.33502738479E+03  0.25102300761E+03 -0.45765497558E+03  0.62024509316E+03  0.00000000000E+00 0. -1.
         22    1    1    2    0    0  0.45179528981E+03 -0.40179809269E+03  0.18951898137E+03  0.63362302317E+03  0.00000000000E+00 0. -1.
<mgrwt>
<rscale>  0 0.14874760E+04</rscale>
<asrwt>0</asrwt>
<pdfrwt beam="1">  1        2 0.80561981E-01 0.14874760E+04</pdfrwt>
<pdfrwt beam="2">  1       -2 0.16251112E+00 0.14874760E+04</pdfrwt>
<totfact> 0.13605714E+01</totfact>
</mgrwt>
</event>
<event>
 6    1  0.1014650E-006  0.2439629E+04  0.7818608E-02  0.8424814E-01
         -2   -1    0    0    0  501 -0.00000000000E+00  0.00000000000E+00  0.18773798092E+04  0.18773798092E+04  0.00000000000E+00 0.  1.
          2   -1    0    0  501    0  0.00000000000E+00 -0.00000000000E+00 -0.79256590018E+03  0.79256590018E+03  0.00000000000E+00 0. -1.
         23    2    1    2    0    0 -0.87098569553E+03 -0.84622481270E+03  0.44197819887E+03  0.12959186843E+04  0.96685016791E+02 0.  0.
         13    1    3    3    0    0 -0.17488866088E+03 -0.11948386900E+03  0.71206191233E+02  0.22345639468E+03  0.00000000000E+00 0. -1.
        -13    1    3    3    0    0 -0.69609703465E+03 -0.72674094370E+03  0.37077200764E+03  0.10724622896E+04  0.00000000000E+00 0.  1.
         22    1    1    2    0    0  0.87098569553E+03  0.84622481270E+03  0.64283571011E+03  0.13740270251E+04  0.00000000000E+00 0.  1.
<mgrwt>
<rscale>  0 0.24396288E+04</rscale>
<asrwt>0</asrwt>
<pdfrwt beam="1">  1        2 0.12193322E+00 0.24396288E+04</pdfrwt>
<pdfrwt beam="2">  1       -2 0.28882766E+00 0.24396288E+04</pdfrwt>
<totfact> 0.11629876E+00</totfact>
</mgrwt>
</event>
<event>
 6    1  0.1014650E-006  0.2159448E+04  0.7818608E-02  0.8535499E-01
         -1   -1    0    0    0  501 -0.00000000000E+00  0.00000000000E+00  0.60717668342E+03  0.60717668342E+03  0.00000000000E+00 0.  1.
          1   -1    0    0  501    0  0.00000000000E+00 -0.00000000000E+00 -0.19200413059E+04  0.19200413059E+04  0.00000000000E+00 0. -1.
         23    2    1    2    0    0 -0.77511384470E+03 -0.67766515981E+03 -0.28333564526E+03  0.10712092476E+04  0.84726755961E+02 0.  0.
         11    1    3    3    0    0 -0.28241578023E+03 -0.25391982526E+03 -0.14679950090E+03  0.40716586798E+03  0.00000000000E+00 0.  1.
        -11    1    3    3    0    0 -0.49269806447E+03 -0.42374533455E+03 -0.13653614437E+03  0.66404337961E+03  0.00000000000E+00 0. -1.
         22    1    1    2    0    0  0.77511384470E+03  0.67766515981E+03 -0.10295289772E+04  0.14560087417E+04  0.00000000000E+00 0. -1.
<mgrwt>
<rscale>  0 0.21594484E+04</rscale>
<asrwt>0</asrwt>
<pdfrwt beam="1">  1        1 0.29539097E+00 0.21594484E+04</pdfrwt>
<pdfrwt beam="2">  1       -1 0.93411799E-01 0.21594484E+04</pdfrwt>
<totfact> 0.34350425E+00</totfact>
</mgrwt>
</event>
<event>
 6    1  0.1014650E-006  0.1070663E+04  0.7818608E-02  0.9234267E-01
         -1   -1    0    0    0  501 -0.00000000000E+00  0.00000000000E+00  0.14090420162E+04  0.14090420162E+04  0.00000000000E+00 0.  1.
          1   -1    0    0  501    0  0.00000000000E+00 -0.00000000000E+00 -0.20338612353E+03  0.20338612353E+03  0.00000000000E+00 0. -1.
         23    2    1    2    0    0  0.32014774872E+03 -0.36059309692E+03  0.94427874318E+03  0.10639393278E+04  0.88218965083E+02 0.  0.
         11    1    3    3    0    0  0.14776884997E+03 -0.11191050341E+03  0.40930801139E+03  0.44932465098E+03  0.00000000000E+00 0. -1.
        -11    1    3    3    0    0  0.17237889875E+03 -0.24868259351E+03  0.53497073180E+03  0.61461467679E+03  0.00000000000E+00 0.  1.
         22    1    1    2    0    0 -0.32014774872E+03  0.36059309692E+03  0.26137714948E+03  0.54848881195E+03  0.00000000000E+00 0. -1.
<mgrwt>
<rscale>  0 0.10706626E+04</rscale>
<asrwt>0</asrwt>
<pdfrwt beam="1">  1        1 0.31290174E-01 0.10706626E+04</pdfrwt>
<pdfrwt beam="2">  1       -1 0.21677569E+00 0.10706626E+04</pdfrwt>
<totfact> 0.16842571E+01</totfact>
</mgrwt>
</event>
<event>
 6    1  0.1014650E-006  0.1494467E+04  0.7818608E-02  0.8888140E-01
          2   -1    0    0  501    0  0.00000000000E+00  0.00000000000E+00  0.14662445311E+04  0.14662445311E+04  0.00000000000E+00 0. -1.
         -2   -1    0    0    0  501 -0.00000000000E+00 -0.00000000000E+00 -0.38080830303E+03  0.38080830303E+03  0.00000000000E+00 0.  1.
         23    2    1    2    0    0 -0.33965752923E+02 -0.19353559550E+03  0.14322357055E+04  0.14484558238E+04  0.90085838754E+02 0.  0.
         11    1    3    3    0    0  0.20348408260E+02 -0.10538034946E+02  0.23284082277E+03  0.23396571683E+03  0.00000000000E+00 0. -1.
        -11    1    3    3    0    0 -0.54314161183E+02 -0.18299756055E+03  0.11993948827E+04  0.12144901070E+04  0.00000000000E+00 0.  1.
         22    1    1    2    0    0  0.33965752923E+02  0.19353559550E+03 -0.34679947742E+03  0.39859701032E+03  0.00000000000E+00 0.  1.
<mgrwt>
<rscale>  0 0.14944673E+04</rscale>
<asrwt>0</asrwt>
<pdfrwt beam="1">  1        2 0.22557608E+00 0.14944673E+04</pdfrwt>
<pdfrwt beam="2">  1       -2 0.58585894E-01 0.14944673E+04</pdfrwt>
<totfact> 0.34919111E+01</totfact>
</mgrwt>
</event>
<event>
 6    1  0.1014650E-006  0.2378865E+04  0.7818608E-02  0.8447459E-01
         -2   -1    0    0    0  501 -0.00000000000E+00  0.00000000000E+00  0.75605639350E+03  0.75605639350E+03  0.00000000000E+00 0.  1.
          2   -1    0    0  501    0  0.00000000000E+00 -0.00000000000E+00 -0.18712232018E+04  0.18712232018E+04  0.00000000000E+00 0. -1.
         23    2    1    2    0    0 -0.62922215829E+03  0.97363026147E+03 -0.84355672853E+03  0.14366291655E+04  0.91863999515E+02 0.  0.
         11    1    3    3    0    0 -0.13355125998E+03  0.24803482647E+03 -0.16569938017E+03  0.32682334490E+03  0.00000000000E+00 0. -1.
        -11    1    3    3    0    0 -0.49567089832E+03  0.72559543500E+03 -0.67785734836E+03  0.11098058206E+04  0.00000000000E+00 0.  1.
         22    1    1    2    0    0  0.62922215829E+03 -0.97363026147E+03 -0.27161007978E+03  0.11906504298E+04  0.00000000000E+00 0.  1.
<mgrwt>
<rscale>  0 0.23788655E+04</rscale>
<asrwt>0</asrwt>
<pdfrwt beam="1">  1        2 0.28788049E+00 0.23788655E+04</pdfrwt>
<pdfrwt beam="2">  1       -2 0.11631637E+00 0.23788655E+04</pdfrwt>
<totfact> 0.40696375E+00</totfact>
</mgrwt>
</event>
<event>
 6    1  0.1014650E-006  0.2151997E+04  0.7818608E-02  0.8538678E-01
          2   -1    0    0  501    0  0.00000000000E+00  0.00000000000E+00  0.13726951827E+04  0.13726951827E+04  0.00000000000E+00 0. -1.
         -2   -1    0    0    0  501 -0.00000000000E+00 -0.00000000000E+00 -0.84343017901E+03  0.84343017901E+03  0.00000000000E+00 0.  1.
         23    2    1    2    0    0 -0.25030829317E+03 -0.27144603842E+03  0.13037404799E+04  0.13581338370E+04  0.91929792808E+02 0.  0.
         11    1    3    3    0    0 -0.12307383965E+03 -0.19699191545E+03  0.75363708403E+03  0.78862021226E+03  0.00000000000E+00 0.  1.
        -11    1    3    3    0    0 -0.12723445353E+03 -0.74454122968E+02  0.55010339586E+03  0.56951362470E+03  0.00000000000E+00 0. -1.
         22    1    1    2    0    0  0.25030829317E+03  0.27144603842E+03 -0.77447547616E+03  0.85799152477E+03  0.00000000000E+00 0.  1.
<mgrwt>
<rscale>  0 0.21519968E+04</rscale>
<asrwt>0</asrwt>
<pdfrwt beam="1">  1        2 0.21118387E+00 0.21519968E+04</pdfrwt>
<pdfrwt beam="2">  1       -2 0.12975849E+00 0.21519968E+04</pdfrwt>
<totfact> 0.60084258E+00</totfact>
</mgrwt>
</event>
<event>
 6    1  0.1014650E-006  0.2767238E+04  0.7818608E-02  0.8313512E-01
          2   -1    0    0  501    0  0.00000000000E+00  0.00000000000E+00  0.12470987551E+04  0.12470987551E+04  0.00000000000E+00 0. -1.
         -2   -1    0    0    0  501 -0.00000000000E+00 -0.00000000000E+00 -0.15350839729E+04  0.15350839729E+04  0.00000000000E+00 0.  1.
         23    2    1    2    0    0 -0.55793596058E+03  0.19695578657E+03  0.11115851607E+04  0.12626823620E+04  0.93064815328E+02 0.  0.
         11    1    3    3    0    0 -0.77007955366E+02 -0.73782040789E+00  0.18050435303E+03  0.19624625100E+03  0.00000000000E+00 0. -1.
        -11    1    3    3    0    0 -0.48092800522E+03  0.19769360698E+03  0.93108080763E+03  0.10664361110E+04  0.00000000000E+00 0.  1.
         22    1    1    2    0    0  0.55793596058E+03 -0.19695578657E+03 -0.13995703785E+04  0.15195003660E+04  0.00000000000E+00 0.  1.
<mgrwt>
<rscale>  0 0.27672378E+04</rscale>
<asrwt>0</asrwt>
<pdfrwt beam="1">  1        2 0.19186135E+00 0.27672378E+04</pdfrwt>
<pdfrwt beam="2">  1       -2 0.23616676E+00 0.27672378E+04</pdfrwt>
<totfact> 0.12123125E+00</totfact>
</mgrwt>
</event>
<event>
 6    1  0.1014650E-006  0.4908987E+04  0.7818608E-02  0.7842702E-01
         -2   -1    0    0    0  501 -0.00000000000E+00  0.00000000000E+00  0.24505763123E+04  0.24505763123E+04  0.00000000000E+00 0.  1.
          2   -1    0    0  501    0  0.00000000000E+00 -0.00000000000E+00 -0.24584172626E+04  0.24584172626E+04  0.00000000000E+00 0. -1.
         23    2    1    2    0    0 -0.20924140350E+04  0.10823497637E+04  0.68047596848E+03  0.24547202231E+04  0.11369399589E+03 0.  0.
         11    1    3    3    0    0 -0.14465905325E+04  0.76081619310E+03  0.52511147857E+03  0.17167432870E+04  0.00000000000E+00 0.  1.
        -11    1    3    3    0    0 -0.64582350256E+03  0.32153357062E+03  0.15536448991E+03  0.73797693610E+03  0.00000000000E+00 0. -1.
         22    1    1    2    0    0  0.20924140350E+04 -0.10823497637E+04 -0.68831691869E+03  0.24542733519E+04  0.00000000000E+00 0. -1.
<mgrwt>
<rscale>  0 0.49089873E+04</rscale>
<asrwt>0</asrwt>
<pdfrwt beam="1">  1        2 0.37821804E+00 0.49089873E+04</pdfrwt>
<pdfrwt beam="2">  1       -2 0.37701174E+00 0.49089873E+04</pdfrwt>
<totfact> 0.28247518E-02</totfact>
</mgrwt>
</event>
<event>
 6    1  0.1014650E-006  0.1204015E+04  0.7818608E-02  0.9109349E-01
          2   -1    0    0  501    0  0.00000000000E+00  0.00000000000E+00  0.35048653563E+03  0.35048653563E+03  0.00000000000E+00 0. -1.
         -2   -1    0    0    0  501 -0.00000000000E+00 -0.00000000000E+00 -0.10340283330E+04  0.10340283330E+04  0.00000000000E+00 0.  1.
         23    2    1    2    0    0  0.32698788515E+03 -0.44300303467E+03 -0.75354347338E+02  0.56410963941E+03  0.96791744758E+02 0.  0.
         11    1    3    3    0    0  0.20468317355E+03 -0.19916464287E+03 -0.52356291213E+02  0.29034968182E+03  0.00000000000E+00 0. -1.
        -11    1    3    3    0    0  0.12230471161E+03 -0.24383839180E+03 -0.22998056124E+02  0.27375995760E+03  0.00000000000E+00 0.  1.
         22    1    1    2    0    0 -0.32698788515E+03  0.44300303467E+03 -0.60818745008E+03  0.82040522926E+03  0.00000000000E+00 0.  1.
<mgrwt>
<rscale>  0 0.12040150E+04</rscale>
<asrwt>0</asrwt>
<pdfrwt beam="1">  1        2 0.53921005E-01 0.12040150E+04</pdfrwt>
<pdfrwt beam="2">  1       -2 0.15908128E+00 0.12040150E+04</pdfrwt>
<totfact> 0.23261894E+01</totfact>
</mgrwt>
</event>
<event>
 6    1  0.1014650E-006  0.1628564E+04  0.7818608E-02  0.8803190E-01
         -2   -1    0    0    0  501 -0.00000000000E+00  0.00000000000E+00  0.59459647737E+03  0.59459647737E+03  0.00000000000E+00 0.  1.
          2   -1    0    0  501    0  0.00000000000E+00 -0.00000000000E+00 -0.11151341410E+04  0.11151341410E+04  0.00000000000E+00 0. -1.
         23    2    1    2    0    0 -0.71123266933E+03  0.13629362509E+03 -0.64616124846E+03  0.97474140266E+03  0.90380201863E+02 0.  0.
         11    1    3    3    0    0 -0.67524823710E+03  0.14507149442E+03 -0.62802710620E+03  0.93350091929E+03  0.00000000000E+00 0. -1.
        -11    1    3    3    0    0 -0.35984432229E+02 -0.87778693296E+01 -0.18134142257E+02  0.41240483365E+02  0.00000000000E+00 0.  1.
         22    1    1    2    0    0  0.71123266933E+03 -0.13629362509E+03  0.12562358481E+03  0.73498921572E+03  0.00000000000E+00 0.  1.
<mgrwt>
<rscale>  0 0.16285636E+04</rscale>
<asrwt>0</asrwt>
<pdfrwt beam="1">  1        2 0.17155910E+00 0.16285636E+04</pdfrwt>
<pdfrwt beam="2">  1       -2 0.91476382E-01 0.16285636E+04</pdfrwt>
<totfact> 0.20769101E+01</totfact>
</mgrwt>
</event>
<event>
 6    1  0.1014650E-006  0.2882028E+04  0.7818608E-02  0.8278245E-01
          2   -1    0    0  501    0  0.00000000000E+00  0.00000000000E+00  0.15681092184E+04  0.15681092184E+04  0.00000000000E+00 0. -1.
         -2   -1    0    0    0  501 -0.00000000000E+00 -0.00000000000E+00 -0.13242202320E+04  0.13242202320E+04  0.00000000000E+00 0.  1.
         23    2    1    2    0    0  0.13188425347E+04  0.37672024341E+03 -0.31671825640E+03  0.14105925459E+04  0.90537855945E+02 0.  0.
         13    1    3    3    0    0  0.10562232527E+04  0.32833595617E+03 -0.22919605401E+03  0.11295764210E+04  0.00000000000E+00 0.  1.
        -13    1    3    3    0    0  0.26261928205E+03  0.48384287244E+02 -0.87522202390E+02  0.28101612493E+03  0.00000000000E+00 0. -1.
         22    1    1    2    0    0 -0.13188425347E+04 -0.37672024341E+03  0.56060724279E+03  0.14817369044E+04  0.00000000000E+00 0. -1.
<mgrwt>
<rscale>  0 0.28820284E+04</rscale>
<asrwt>0</asrwt>
<pdfrwt beam="1">  1        2 0.24124757E+00 0.28820284E+04</pdfrwt>
<pdfrwt beam="2">  1       -2 0.20372619E+00 0.28820284E+04</pdfrwt>
<totfact> 0.12630560E+00</totfact>
</mgrwt>
</event>
<event>
 6    1  0.1014650E-006  0.2109611E+04  0.7818608E-02  0.8557021E-01
         -2   -1    0    0    0  501 -0.00000000000E+00  0.00000000000E+00  0.61150553213E+03  0.61150553213E+03  0.00000000000E+00 0.  1.
          2   -1    0    0  501    0  0.00000000000E+00 -0.00000000000E+00 -0.18194676113E+04  0.18194676113E+04  0.00000000000E+00 0. -1.
         23    2    1    2    0    0  0.85162321429E+02 -0.82459642968E+03 -0.13530988024E+04  0.15893814602E+04  0.89694838023E+02 0.  0.
         13    1    3    3    0    0  0.78025534093E+02 -0.56666637142E+03 -0.86014474779E+03  0.10329800325E+04  0.00000000000E+00 0.  1.
        -13    1    3    3    0    0  0.71367873354E+01 -0.25793005826E+03 -0.49295405466E+03  0.55640142765E+03  0.00000000000E+00 0. -1.
         22    1    1    2    0    0 -0.85162321429E+02  0.82459642968E+03  0.14513672330E+03  0.84159168323E+03  0.00000000000E+00 0.  1.
<mgrwt>
<rscale>  0 0.21096109E+04</rscale>
<asrwt>0</asrwt>
<pdfrwt beam="1">  1        2 0.27991809E+00 0.21096109E+04</pdfrwt>
<pdfrwt beam="2">  1       -2 0.94077774E-01 0.21096109E+04</pdfrwt>
<totfact> 0.73897279E+00</totfact>
</mgrwt>
</event>
<event>
 6    1  0.1014650E-006  0.1564758E+04  0.7818608E-02  0.8842496E-01
         -2   -1    0    0    0  501 -0.00000000000E+00  0.00000000000E+00  0.28665470867E+03  0.28665470867E+03  0.00000000000E+00 0.  1.
          2   -1    0    0  501    0  0.00000000000E+00 -0.00000000000E+00 -0.21353794187E+04  0.21353794187E+04  0.00000000000E+00 0. -1.
         23    2    1    2    0    0  0.68941806707E+03 -0.33406019396E+03 -0.70248002498E+03  0.10433498407E+04  0.90593709074E+02 0.  0.
         13    1    3    3    0    0  0.21220799508E+03 -0.78287491591E+02 -0.16117075811E+03  0.27773580573E+03  0.00000000000E+00 0.  1.
        -13    1    3    3    0    0  0.47721007199E+03 -0.25577270237E+03 -0.54130926686E+03  0.76561403493E+03  0.00000000000E+00 0. -1.
         22    1    1    2    0    0 -0.68941806707E+03  0.33406019396E+03 -0.11462446850E+04  0.13786842867E+04  0.00000000000E+00 0.  1.
<mgrwt>
<rscale>  0 0.15647576E+04</rscale>
<asrwt>0</asrwt>
<pdfrwt beam="1">  1        2 0.32851992E+00 0.15647576E+04</pdfrwt>
<pdfrwt beam="2">  1       -2 0.44100724E-01 0.15647576E+04</pdfrwt>
<totfact> 0.26336821E+01</totfact>
</mgrwt>
</event>
<event>
 6    1  0.1014650E-006  0.6481792E+03  0.7818608E-02  0.9810202E-01
          2   -1    0    0  501    0  0.00000000000E+00  0.00000000000E+00  0.15943455030E+04  0.15943455030E+04  0.00000000000E+00 0. -1.
         -2   -1    0    0    0  501 -0.00000000000E+00 -0.00000000000E+00 -0.65879108627E+02  0.65879108627E+02  0.00000000000E+00 0.  1.
         23    2    1    2    0    0 -0.29227684905E+03  0.54810256500E+01  0.10942461617E+04  0.11367716447E+04  0.97053138320E+02 0.  0.
         11    1    3    3    0    0 -0.45791657072E+02 -0.35527195372E+02  0.22194363701E+03  0.22938621467E+03  0.00000000000E+00 0.  1.
        -11    1    3    3    0    0 -0.24648519197E+03  0.41008221022E+02  0.87230252472E+03  0.90738543006E+03  0.00000000000E+00 0. -1.
         22    1    1    2    0    0  0.29227684905E+03 -0.54810256500E+01  0.43422023269E+03  0.52345296694E+03  0.00000000000E+00 0. -1.
<mgrwt>
<rscale>  0 0.64817917E+03</rscale>
<asrwt>0</asrwt>
<pdfrwt beam="1">  1        2 0.24528390E+00 0.64817917E+03</pdfrwt>
<pdfrwt beam="2">  1       -2 0.10135249E-01 0.64817917E+03</pdfrwt>
<totfact> 0.76903077E+02</totfact>
</mgrwt>
</event>
<event>
 6    1  0.1014650E-006  0.2205881E+04  0.7818608E-02  0.8515984E-01
          1   -1    0    0  501    0  0.00000000000E+00  0.00000000000E+00  0.26801443619E+04  0.26801443619E+04  0.00000000000E+00 0. -1.
         -1   -1    0    0    0  501 -0.00000000000E+00 -0.00000000000E+00 -0.45388529399E+03  0.45388529399E+03  0.00000000000E+00 0.  1.
         23    2    1    2    0    0 -0.38035983055E+03 -0.35338219065E+03 -0.26427637272E+03  0.58995431220E+03  0.93013525566E+02 0.  0.
         11    1    3    3    0    0 -0.37019155765E+02 -0.76978871890E+02 -0.28273254984E+02  0.89975227470E+02  0.00000000000E+00 0.  1.
        -11    1    3    3    0    0 -0.34334067478E+03 -0.27640331876E+03 -0.23600311774E+03  0.49997908473E+03  0.00000000000E+00 0. -1.
         22    1    1    2    0    0  0.38035983055E+03  0.35338219065E+03  0.24905354406E+04  0.25440753437E+04  0.00000000000E+00 0. -1.
<mgrwt>
<rscale>  0 0.22058813E+04</rscale>
<asrwt>0</asrwt>
<pdfrwt beam="1">  1        1 0.41232989E+00 0.22058813E+04</pdfrwt>
<pdfrwt beam="2">  1       -1 0.69828508E-01 0.22058813E+04</pdfrwt>
<totfact> 0.19157346E+00</totfact>
</mgrwt>
</event>
<event>
 6    1  0.1014650E-006  0.1271912E+04  0.7818608E-02  0.9052141E-01
          2   -1    0    0  501    0  0.00000000000E+00  0.00000000000E+00  0.12486848387E+04  0.12486848387E+04  0.00000000000E+00 0. -1.
         -2   -1    0    0    0  501 -0.00000000000E+00 -0.00000000000E+00 -0.32389271502E+03  0.32389271502E+03  0.00000000000E+00 0.  1.
         23    2    1    2    0    0  0.37384033924E+03 -0.39383179247E+03  0.86725898863E+03  0.10265279757E+04  0.82228046105E+02 0.  0.
         11    1    3    3    0    0  0.43183114430E+02 -0.86285982807E+02  0.12864710624E+03  0.16081085207E+03  0.00000000000E+00 0. -1.
        -11    1    3    3    0    0  0.33065722481E+03 -0.30754580966E+03  0.73861188239E+03  0.86571712364E+03  0.00000000000E+00 0.  1.
         22    1    1    2    0    0 -0.37384033924E+03  0.39383179247E+03  0.57533135035E+02  0.54604957799E+03  0.00000000000E+00 0.  1.
<mgrwt>
<rscale>  0 0.12719118E+04</rscale>
<asrwt>0</asrwt>
<pdfrwt beam="1">  1        2 0.19210536E+00 0.12719118E+04</pdfrwt>
<pdfrwt beam="2">  1       -2 0.49829649E-01 0.12719118E+04</pdfrwt>
<totfact> 0.66293365E+01</totfact>
</mgrwt>
</event>
<event>
 6    1  0.1014650E-006  0.1931081E+04  0.7818608E-02  0.8639538E-01
         -2   -1    0    0    0  501 -0.00000000000E+00  0.00000000000E+00  0.41888082765E+03  0.41888082765E+03  0.00000000000E+00 0.  1.
          2   -1    0    0  501    0  0.00000000000E+00 -0.00000000000E+00 -0.22256164746E+04  0.22256164746E+04  0.00000000000E+00 0. -1.
         23    2    1    2    0    0  0.37372169005E+03  0.66790607384E+03 -0.17066789728E+04  0.18726308869E+04  0.90702245989E+02 0.  0.
         13    1    3    3    0    0  0.60204008082E+02  0.54803389461E+02 -0.15734230776E+03  0.17715681160E+03  0.00000000000E+00 0.  1.
        -13    1    3    3    0    0  0.31351768197E+03  0.61310268438E+03 -0.15493366650E+04  0.16954740753E+04  0.00000000000E+00 0. -1.
         22    1    1    2    0    0 -0.37372169005E+03 -0.66790607384E+03 -0.10005667419E+03  0.77186641534E+03  0.00000000000E+00 0.  1.
<mgrwt>
<rscale>  0 0.19310806E+04</rscale>
<asrwt>0</asrwt>
<pdfrwt beam="1">  1        2 0.34240254E+00 0.19310806E+04</pdfrwt>
<pdfrwt beam="2">  1       -2 0.64443203E-01 0.19310806E+04</pdfrwt>
<totfact> 0.10379309E+01</totfact>
</mgrwt>
</event>
<event>
 6    1  0.1014650E-006  0.3294125E+04  0.7818608E-02  0.8164392E-01
         -2   -1    0    0    0  501 -0.00000000000E+00  0.00000000000E+00  0.94919326245E+03  0.94919326245E+03  0.00000000000E+00 0.  1.
          2   -1    0    0  501    0  0.00000000000E+00 -0.00000000000E+00 -0.28580220697E+04  0.28580220697E+04  0.00000000000E+00 0. -1.
         23    2    1    2    0    0 -0.27010427336E+03  0.16232759334E+04 -0.98778866996E+03  0.19214009168E+04  0.89855172458E+02 0.  0.
         11    1    3    3    0    0 -0.67707714364E+02  0.49632286225E+03 -0.34620318838E+03  0.60891490852E+03  0.00000000000E+00 0. -1.
        -11    1    3    3    0    0 -0.20239655900E+03  0.11269530712E+04 -0.64158548158E+03  0.13124860083E+04  0.00000000000E+00 0.  1.
         22    1    1    2    0    0  0.27010427336E+03 -0.16232759334E+04 -0.92104013724E+03  0.18858144153E+04  0.00000000000E+00 0.  1.
<mgrwt>
<rscale>  0 0.32941253E+04</rscale>
<asrwt>0</asrwt>
<pdfrwt beam="1">  1        2 0.43969569E+00 0.32941253E+04</pdfrwt>
<pdfrwt beam="2">  1       -2 0.14602974E+00 0.32941253E+04</pdfrwt>
<totfact> 0.57264320E-01</totfact>
</mgrwt>
</event>
<event>
 6    1  0.1057696E-006  0.4098919E+04  0.7818608E-02  0.7984883E-01
          2   -1    0    0  501    0  0.00000000000E+00  0.00000000000E+00  0.19535502594E+04  0.19535502594E+04  0.00000000000E+00 0. -1.
         -2   -1    0    0    0  501 -0.00000000000E+00 -0.00000000000E+00 -0.21500777436E+04  0.21500777436E+04  0.00000000000E+00 0.  1.
         23    2    1    2    0    0  0.19315345801E+04  0.26062405148E+03  0.53284935545E+03  0.20225846818E+04  0.90386000366E+02 0.  0.
         13    1    3    3    0    0  0.10959590400E+04  0.14620191834E+03  0.25581144965E+03  0.11348747579E+04  0.00000000000E+00 0.  1.
        -13    1    3    3    0    0  0.83557554011E+03  0.11442213314E+03  0.27703790580E+03  0.88770992392E+03  0.00000000000E+00 0. -1.
         22    1    1    2    0    0 -0.19315345801E+04 -0.26062405148E+03 -0.72937683964E+03  0.20810433212E+04  0.00000000000E+00 0. -1.
<mgrwt>
<rscale>  0 0.40989193E+04</rscale>
<asrwt>0</asrwt>
<pdfrwt beam="1">  1        2 0.30054619E+00 0.40989193E+04</pdfrwt>
<pdfrwt beam="2">  1       -2 0.33078119E+00 0.40989193E+04</pdfrwt>
<totfact> 0.11390398E-01</totfact>
</mgrwt>
</event>
<event>
 6    1  0.1014650E-006  0.1022512E+04  0.7818608E-02  0.9284193E-01
          2   -1    0    0  501    0  0.00000000000E+00  0.00000000000E+00  0.53599368462E+03  0.53599368462E+03  0.00000000000E+00 0. -1.
         -2   -1    0    0    0  501 -0.00000000000E+00 -0.00000000000E+00 -0.48765968601E+03  0.48765968601E+03  0.00000000000E+00 0.  1.
         23    2    1    2    0    0 -0.34419247133E+03 -0.36882974533E+02 -0.34671236021E+03  0.49840063456E+03  0.91459940294E+02 0.  0.
         13    1    3    3    0    0 -0.15069828496E+03 -0.55897494998E+02 -0.18859982632E+03  0.24779910719E+03  0.00000000000E+00 0.  1.
        -13    1    3    3    0    0 -0.19349418637E+03  0.19014520465E+02 -0.15811253390E+03  0.25060152737E+03  0.00000000000E+00 0. -1.
         22    1    1    2    0    0  0.34419247133E+03  0.36882974533E+02  0.39504635882E+03  0.52525273607E+03  0.00000000000E+00 0. -1.
<mgrwt>
<rscale>  0 0.10225116E+04</rscale>
<asrwt>0</asrwt>
<pdfrwt beam="1">  1        2 0.82460567E-01 0.10225116E+04</pdfrwt>
<pdfrwt beam="2">  1       -2 0.75024567E-01 0.10225116E+04</pdfrwt>
<totfact> 0.90382443E+01</totfact>
</mgrwt>
</event>
<event>
 6    1  0.1014650E-006  0.2165721E+04  0.7818608E-02  0.8532833E-01
          2   -1    0    0  501    0  0.00000000000E+00  0.00000000000E+00  0.14250984890E+04  0.14250984890E+04  0.00000000000E+00 0. -1.
         -2   -1    0    0    0  501 -0.00000000000E+00 -0.00000000000E+00 -0.82281142391E+03  0.82281142391E+03  0.00000000000E+00 0.  1.
         23    2    1    2    0    0 -0.16950853154E+03 -0.42670921477E+03 -0.71404500606E+03  0.85379943745E+03  0.91100562456E+02 0.  0.
         11    1    3    3    0    0 -0.14903361101E+03 -0.25874428424E+03 -0.47010963124E+03  0.55692251456E+03  0.00000000000E+00 0. -1.
        -11    1    3    3    0    0 -0.20474920532E+02 -0.16796493053E+03 -0.24393537482E+03  0.29687692290E+03  0.00000000000E+00 0.  1.
         22    1    1    2    0    0  0.16950853154E+03  0.42670921477E+03  0.13163320712E+04  0.13941104755E+04  0.00000000000E+00 0. -1.
<mgrwt>
<rscale>  0 0.21657214E+04</rscale>
<asrwt>0</asrwt>
<pdfrwt beam="1">  1        2 0.21924592E+00 0.21657214E+04</pdfrwt>
<pdfrwt beam="2">  1       -2 0.12658637E+00 0.21657214E+04</pdfrwt>
<totfact> 0.59619861E+00</totfact>
</mgrwt>
</event>
<event>
 6    1  0.1014650E-006  0.2223671E+04  0.7818608E-02  0.8508640E-01
         -2   -1    0    0    0  501 -0.00000000000E+00  0.00000000000E+00  0.14099767471E+04  0.14099767471E+04  0.00000000000E+00 0.  1.
          2   -1    0    0  501    0  0.00000000000E+00 -0.00000000000E+00 -0.87673670196E+03  0.87673670196E+03  0.00000000000E+00 0. -1.
         23    2    1    2    0    0  0.37578912812E+03 -0.21852310414E+03 -0.78319241559E+03  0.90036420030E+03  0.91079731491E+02 0.  0.
         13    1    3    3    0    0  0.19793506428E+03 -0.62846083096E+02 -0.37631050840E+03  0.42981102658E+03  0.00000000000E+00 0. -1.
        -13    1    3    3    0    0  0.17785406383E+03 -0.15567702104E+03 -0.40688190719E+03  0.47055317372E+03  0.00000000000E+00 0.  1.
         22    1    1    2    0    0 -0.37578912812E+03  0.21852310414E+03  0.13164324608E+04  0.13863492488E+04  0.00000000000E+00 0.  1.
<mgrwt>
<rscale>  0 0.22236712E+04</rscale>
<asrwt>0</asrwt>
<pdfrwt beam="1">  1        2 0.13488257E+00 0.22236712E+04</pdfrwt>
<pdfrwt beam="2">  1       -2 0.21691950E+00 0.22236712E+04</pdfrwt>
<totfact> 0.28676521E+00</totfact>
</mgrwt>
</event>
<event>
 6    1  0.1014650E-006  0.2097858E+04  0.7818608E-02  0.8562187E-01
         -2   -1    0    0    0  501 -0.00000000000E+00  0.00000000000E+00  0.37956405818E+03  0.37956405818E+03  0.00000000000E+00 0.  1.
          2   -1    0    0  501    0  0.00000000000E+00 -0.00000000000E+00 -0.28987266709E+04  0.28987266709E+04  0.00000000000E+00 0. -1.
         23    2    1    2    0    0 -0.48515989199E+03 -0.50504806597E+03 -0.45427860703E+02  0.70733423526E+03  0.88342289448E+02 0.  0.
         13    1    3    3    0    0 -0.32272536168E+03 -0.27366726462E+03 -0.30504927164E+02  0.42423576155E+03  0.00000000000E+00 0.  1.
        -13    1    3    3    0    0 -0.16243453031E+03 -0.23138080136E+03 -0.14922933539E+02  0.28309847371E+03  0.00000000000E+00 0. -1.
         22    1    1    2    0    0  0.48515989199E+03  0.50504806597E+03 -0.24737347520E+04  0.25709564938E+04  0.00000000000E+00 0. -1.
<mgrwt>
<rscale>  0 0.20978584E+04</rscale>
<asrwt>0</asrwt>
<pdfrwt beam="1">  1        2 0.44595796E+00 0.20978584E+04</pdfrwt>
<pdfrwt beam="2">  1       -2 0.58394469E-01 0.20978584E+04</pdfrwt>
<totfact> 0.50949819E+00</totfact>
</mgrwt>
</event>
<event>
 6    1  0.1014650E-006  0.9675376E+03  0.7818608E-02  0.9344884E-01
          2   -1    0    0  501    0  0.00000000000E+00  0.00000000000E+00  0.39598008028E+03  0.39598008028E+03  0.00000000000E+00 0. -1.
         -2   -1    0    0    0  501 -0.00000000000E+00 -0.00000000000E+00 -0.59102021050E+03  0.59102021050E+03  0.00000000000E+00 0.  1.
         23    2    1    2    0    0  0.66922151001E+02  0.47173636640E+02 -0.58022387636E+03  0.59321044254E+03  0.92384826396E+02 0.  0.
         11    1    3    3    0    0 -0.29868240901E+00  0.54861995885E+02 -0.22423747723E+03  0.23085141108E+03  0.00000000000E+00 0.  1.
        -11    1    3    3    0    0  0.67220833410E+02 -0.76883592444E+01 -0.35598639913E+03  0.36235903145E+03  0.00000000000E+00 0. -1.
         22    1    1    2    0    0 -0.66922151001E+02 -0.47173636640E+02  0.38518374614E+03  0.39378984824E+03  0.00000000000E+00 0. -1.
<mgrwt>
<rscale>  0 0.96753756E+03</rscale>
<asrwt>0</asrwt>
<pdfrwt beam="1">  1        2 0.60920013E-01 0.96753756E+03</pdfrwt>
<pdfrwt beam="2">  1       -2 0.90926186E-01 0.96753756E+03</pdfrwt>
<totfact> 0.83058305E+01</totfact>
</mgrwt>
</event>
<event>
 6    1  0.1014650E-006  0.2010735E+04  0.7818608E-02  0.8601618E-01
          1   -1    0    0  501    0  0.00000000000E+00  0.00000000000E+00  0.10624499539E+04  0.10624499539E+04  0.00000000000E+00 0. -1.
         -1   -1    0    0    0  501 -0.00000000000E+00 -0.00000000000E+00 -0.95135149244E+03  0.95135149244E+03  0.00000000000E+00 0.  1.
         23    2    1    2    0    0 -0.19556219296E+03  0.95138532694E+03  0.30786544146E+03  0.10227939508E+04  0.89150009307E+02 0.  0.
         13    1    3    3    0    0 -0.15127403186E+03  0.51657330103E+03  0.16588428472E+03  0.56324897156E+03  0.00000000000E+00 0. -1.
        -13    1    3    3    0    0 -0.44288161095E+02  0.43481202592E+03  0.14198115675E+03  0.45954497926E+03  0.00000000000E+00 0.  1.
         22    1    1    2    0    0  0.19556219296E+03 -0.95138532694E+03 -0.19676698005E+03  0.99100749547E+03  0.00000000000E+00 0.  1.
<mgrwt>
<rscale>  0 0.20107345E+04</rscale>
<asrwt>0</asrwt>
<pdfrwt beam="1">  1        1 0.16345384E+00 0.20107345E+04</pdfrwt>
<pdfrwt beam="2">  1       -1 0.14636177E+00 0.20107345E+04</pdfrwt>
<totfact> 0.46766482E+00</totfact>
</mgrwt>
</event>
<event>
 6    1  0.1014650E-006  0.7612687E+03  0.7818608E-02  0.9617835E-01
          2   -1    0    0  501    0  0.00000000000E+00  0.00000000000E+00  0.20578200229E+04  0.20578200229E+04  0.00000000000E+00 0. -1.
         -2   -1    0    0    0  501 -0.00000000000E+00 -0.00000000000E+00 -0.70405829789E+02  0.70405829789E+02  0.00000000000E+00 0.  1.
         23    2    1    2    0    0  0.20537832248E+03  0.31383348071E+03  0.97553643300E+03  0.10490741903E+04  0.90629000614E+02 0.  0.
         13    1    3    3    0    0  0.11409209521E+03  0.14863974878E+03  0.60320136594E+03  0.63163491748E+03  0.00000000000E+00 0. -1.
        -13    1    3    3    0    0  0.91286227267E+02  0.16519373193E+03  0.37233506706E+03  0.41743927285E+03  0.00000000000E+00 0.  1.
         22    1    1    2    0    0 -0.20537832248E+03 -0.31383348071E+03  0.10118777601E+04  0.10791516624E+04  0.00000000000E+00 0.  1.
<mgrwt>
<rscale>  0 0.76126875E+03</rscale>
<asrwt>0</asrwt>
<pdfrwt beam="1">  1        2 0.31658765E+00 0.76126875E+03</pdfrwt>
<pdfrwt beam="2">  1       -2 0.10831668E-01 0.76126875E+03</pdfrwt>
<totfact> 0.38275773E+02</totfact>
</mgrwt>
</event>
<event>
 6    1  0.1014650E-006  0.2117534E+04  0.7818608E-02  0.8553559E-01
         -1   -1    0    0    0  501 -0.00000000000E+00  0.00000000000E+00  0.95021666312E+03  0.95021666312E+03  0.00000000000E+00 0.  1.
          1   -1    0    0  501    0  0.00000000000E+00 -0.00000000000E+00 -0.11797175105E+04  0.11797175105E+04  0.00000000000E+00 0. -1.
         23    2    1    2    0    0 -0.79334822924E+03 -0.30486542049E+03 -0.74670819357E+03  0.11350232347E+04  0.91434564665E+02 0.  0.
         13    1    3    3    0    0 -0.60051207214E+03 -0.19438616857E+03 -0.52336608339E+03  0.81994682057E+03  0.00000000000E+00 0. -1.
        -13    1    3    3    0    0 -0.19283615710E+03 -0.11047925193E+03 -0.22334211018E+03  0.31507641418E+03  0.00000000000E+00 0.  1.
         22    1    1    2    0    0  0.79334822924E+03  0.30486542049E+03  0.51720734616E+03  0.99491093892E+03  0.00000000000E+00 0. -1.
<mgrwt>
<rscale>  0 0.21175337E+04</rscale>
<asrwt>0</asrwt>
<pdfrwt beam="1">  1        1 0.18149500E+00 0.21175337E+04</pdfrwt>
<pdfrwt beam="2">  1       -1 0.14618718E+00 0.21175337E+04</pdfrwt>
<totfact> 0.37968849E+00</totfact>
</mgrwt>
</event>
<event>
 6    1  0.1014650E-006  0.1351898E+04  0.7818608E-02  0.8989393E-01
          2   -1    0    0  501    0  0.00000000000E+00  0.00000000000E+00  0.68878317455E+03  0.68878317455E+03  0.00000000000E+00 0. -1.
         -2   -1    0    0    0  501 -0.00000000000E+00 -0.00000000000E+00 -0.66335382003E+03  0.66335382003E+03  0.00000000000E+00 0.  1.
         23    2    1    2    0    0 -0.34356732220E+03 -0.15269029172E+03 -0.54543601635E+03  0.66858736088E+03  0.90309363439E+02 0.  0.
         13    1    3    3    0    0 -0.29514514802E+03 -0.12942098731E+03 -0.40080276890E+03  0.51429885272E+03  0.00000000000E+00 0. -1.
        -13    1    3    3    0    0 -0.48422174181E+02 -0.23269304405E+02 -0.14463324745E+03  0.15428850816E+03  0.00000000000E+00 0.  1.
         22    1    1    2    0    0  0.34356732220E+03  0.15269029172E+03  0.57086537087E+03  0.68354963370E+03  0.00000000000E+00 0. -1.
<mgrwt>
<rscale>  0 0.13518979E+04</rscale>
<asrwt>0</asrwt>
<pdfrwt beam="1">  1        2 0.10596664E+00 0.13518979E+04</pdfrwt>
<pdfrwt beam="2">  1       -2 0.10205443E+00 0.13518979E+04</pdfrwt>
<totfact> 0.32147038E+01</totfact>
</mgrwt>
</event>
<event>
 6    1  0.1014650E-006  0.3321432E+04  0.7818608E-02  0.8157463E-01
         -2   -1    0    0    0  501 -0.00000000000E+00  0.00000000000E+00  0.14451520942E+04  0.14451520942E+04  0.00000000000E+00 0.  1.
          2   -1    0    0  501    0  0.00000000000E+00 -0.00000000000E+00 -0.19084340917E+04  0.19084340917E+04  0.00000000000E+00 0. -1.
         23    2    1    2    0    0 -0.54773133322E+03  0.12064099473E+04 -0.12406719498E+04  0.18174319904E+04  0.91419793463E+02 0.  0.
         13    1    3    3    0    0 -0.84762681262E+02  0.27702754573E+03 -0.27790558067E+03  0.40144798541E+03  0.00000000000E+00 0. -1.
        -13    1    3    3    0    0 -0.46296865196E+03  0.92938240152E+03 -0.96276636909E+03  0.14159840050E+04  0.00000000000E+00 0.  1.
         22    1    1    2    0    0  0.54773133322E+03 -0.12064099473E+04  0.77738995225E+03  0.15361541954E+04  0.00000000000E+00 0.  1.
<mgrwt>
<rscale>  0 0.33214319E+04</rscale>
<asrwt>0</asrwt>
<pdfrwt beam="1">  1        2 0.29360525E+00 0.33214319E+04</pdfrwt>
<pdfrwt beam="2">  1       -2 0.22233109E+00 0.33214319E+04</pdfrwt>
<totfact> 0.59839320E-01</totfact>
</mgrwt>
</event>
<event>
 6    1  0.1014650E-006  0.2658279E+04  0.7818608E-02  0.8348670E-01
         -1   -1    0    0    0  501 -0.00000000000E+00  0.00000000000E+00  0.48938105491E+03  0.48938105491E+03  0.00000000000E+00 0.  1.
          1   -1    0    0  501    0  0.00000000000E+00 -0.00000000000E+00 -0.36098911641E+04  0.36098911641E+04  0.00000000000E+00 0. -1.
         23    2    1    2    0    0  0.48122773240E+02 -0.94281955099E+03 -0.30009420191E+04  0.31476835288E+04  0.10504327093E+03 0.  0.
         13    1    3    3    0    0 -0.11093278182E+02 -0.50474756828E+03 -0.14757712945E+04  0.15597416716E+04  0.00000000000E+00 0.  1.
        -13    1    3    3    0    0  0.59216051422E+02 -0.43807198271E+03 -0.15251707246E+04  0.15879418572E+04  0.00000000000E+00 0. -1.
         22    1    1    2    0    0 -0.48122773240E+02  0.94281955099E+03 -0.11956809007E+03  0.95158869014E+03  0.00000000000E+00 0.  1.
<mgrwt>
<rscale>  0 0.26582794E+04</rscale>
<asrwt>0</asrwt>
<pdfrwt beam="1">  1        1 0.55536788E+00 0.26582794E+04</pdfrwt>
<pdfrwt beam="2">  1       -1 0.75289392E-01 0.26582794E+04</pdfrwt>
<totfact> 0.31753327E-01</totfact>
</mgrwt>
</event>
<event>
 6    1  0.1014650E-006  0.9926068E+03  0.7818608E-02  0.9316691E-01
         -1   -1    0    0    0  501 -0.00000000000E+00  0.00000000000E+00  0.17289258136E+04  0.17289258136E+04  0.00000000000E+00 0.  1.
          1   -1    0    0  501    0  0.00000000000E+00 -0.00000000000E+00 -0.14246826890E+03  0.14246826890E+03  0.00000000000E+00 0. -1.
         23    2    1    2    0    0 -0.47080800324E+03 -0.12803171506E+03  0.92165976391E+03  0.10467678731E+04  0.90630920031E+02 0.  0.
         13    1    3    3    0    0 -0.16890173697E+03 -0.20563807714E+02  0.39781843019E+03  0.43267790599E+03  0.00000000000E+00 0. -1.
        -13    1    3    3    0    0 -0.30190626627E+03 -0.10746790735E+03  0.52384133372E+03  0.61408996706E+03  0.00000000000E+00 0.  1.
         22    1    1    2    0    0  0.47080800324E+03  0.12803171506E+03  0.66479778080E+03  0.82462620947E+03  0.00000000000E+00 0. -1.
<mgrwt>
<rscale>  0 0.99260681E+03</rscale>
<asrwt>0</asrwt>
<pdfrwt beam="1">  1        1 0.21918196E-01 0.99260681E+03</pdfrwt>
<pdfrwt beam="2">  1       -1 0.26598857E+00 0.99260681E+03</pdfrwt>
<totfact> 0.12893456E+01</totfact>
</mgrwt>
</event>
<event>
 6    1  0.1014650E-006  0.2962256E+04  0.7818608E-02  0.8254592E-01
          2   -1    0    0  501    0  0.00000000000E+00  0.00000000000E+00  0.30179902987E+04  0.30179902987E+04  0.00000000000E+00 0. -1.
         -2   -1    0    0    0  501 -0.00000000000E+00 -0.00000000000E+00 -0.72688795342E+03  0.72688795342E+03  0.00000000000E+00 0.  1.
         23    2    1    2    0    0  0.49313169756E+03  0.13271607078E+04  0.60213946423E+03  0.15409885024E+04  0.86828650269E+02 0.  0.
         11    1    3    3    0    0  0.27584778935E+03  0.63580908403E+03  0.26992667163E+03  0.74377792538E+03  0.00000000000E+00 0. -1.
        -11    1    3    3    0    0  0.21728390820E+03  0.69135162380E+03  0.33221279260E+03  0.79721057699E+03  0.00000000000E+00 0.  1.
         22    1    1    2    0    0 -0.49313169756E+03 -0.13271607078E+04  0.16889628811E+04  0.22038897498E+04  0.00000000000E+00 0. -1.
<mgrwt>
<rscale>  0 0.29622564E+04</rscale>
<asrwt>0</asrwt>
<pdfrwt beam="1">  1        2 0.46430619E+00 0.29622564E+04</pdfrwt>
<pdfrwt beam="2">  1       -2 0.11182892E+00 0.29622564E+04</pdfrwt>
<totfact> 0.91896032E-01</totfact>
</mgrwt>
</event>
<event>
 6    1  0.1014650E-006  0.1556691E+04  0.7818608E-02  0.8847605E-01
         -2   -1    0    0    0  501 -0.00000000000E+00  0.00000000000E+00  0.35855727626E+03  0.35855727626E+03  0.00000000000E+00 0.  1.
          2   -1    0    0  501    0  0.00000000000E+00 -0.00000000000E+00 -0.16896094432E+04  0.16896094432E+04  0.00000000000E+00 0. -1.
         23    2    1    2    0    0  0.26827669369E+03  0.72768442080E+03 -0.64987549987E+03  0.10159367778E+04  0.91062453882E+02 0.  0.
         11    1    3    3    0    0  0.21245209739E+02  0.71683479365E+02 -0.10089036843E+03  0.12557366998E+03  0.00000000000E+00 0. -1.
        -11    1    3    3    0    0  0.24703148396E+03  0.65600094144E+03 -0.54898513145E+03  0.89036310783E+03  0.00000000000E+00 0.  1.
         22    1    1    2    0    0 -0.26827669369E+03 -0.72768442080E+03 -0.68117666704E+03  0.10322299416E+04  0.00000000000E+00 0.  1.
<mgrwt>
<rscale>  0 0.15566911E+04</rscale>
<asrwt>0</asrwt>
<pdfrwt beam="1">  1        2 0.25993992E+00 0.15566911E+04</pdfrwt>
<pdfrwt beam="2">  1       -2 0.55162657E-01 0.15566911E+04</pdfrwt>
<totfact> 0.29540989E+01</totfact>
</mgrwt>
</event>
<event>
 6    1  0.1014650E-006  0.3528875E+04  0.7818608E-02  0.8106981E-01
          2   -1    0    0  501    0  0.00000000000E+00  0.00000000000E+00  0.16412195079E+04  0.16412195079E+04  0.00000000000E+00 0. -1.
         -2   -1    0    0    0  501 -0.00000000000E+00 -0.00000000000E+00 -0.18969060379E+04  0.18969060379E+04  0.00000000000E+00 0.  1.
         23    2    1    2    0    0  0.37906212499E+03 -0.15508327184E+04 -0.87837116343E+03  0.18245017925E+04  0.92199105122E+02 0.  0.
         11    1    3    3    0    0  0.33723852668E+03 -0.12341109006E+04 -0.68823708039E+03  0.14527318465E+04  0.00000000000E+00 0. -1.
        -11    1    3    3    0    0  0.41823598307E+02 -0.31672181778E+03 -0.19013408303E+03  0.37176994602E+03  0.00000000000E+00 0.  1.
         22    1    1    2    0    0 -0.37906212499E+03  0.15508327184E+04  0.62268463342E+03  0.17136237533E+04  0.00000000000E+00 0.  1.
<mgrwt>
<rscale>  0 0.35288747E+04</rscale>
<asrwt>0</asrwt>
<pdfrwt beam="1">  1        2 0.25249531E+00 0.35288747E+04</pdfrwt>
<pdfrwt beam="2">  1       -2 0.29183170E+00 0.35288747E+04</pdfrwt>
<totfact> 0.30913044E-01</totfact>
</mgrwt>
</event>
<event>
 6    1  0.1014650E-006  0.2146625E+04  0.7818608E-02  0.8540978E-01
         -2   -1    0    0    0  501 -0.00000000000E+00  0.00000000000E+00  0.74086665037E+03  0.74086665037E+03  0.00000000000E+00 0.  1.
          2   -1    0    0  501    0  0.00000000000E+00 -0.00000000000E+00 -0.15549347803E+04  0.15549347803E+04  0.00000000000E+00 0. -1.
         23    2    1    2    0    0  0.66954277259E+03  0.38901349804E+03  0.38432474763E+03  0.86899923171E+03  0.88516253239E+02 0.  0.
         11    1    3    3    0    0  0.51101807126E+03  0.33800286392E+03  0.29455459933E+03  0.67981454615E+03  0.00000000000E+00 0.  1.
        -11    1    3    3    0    0  0.15852470132E+03  0.51010634129E+02  0.89770148303E+02  0.18918468556E+03  0.00000000000E+00 0. -1.
         22    1    1    2    0    0 -0.66954277259E+03 -0.38901349804E+03 -0.11983928776E+04  0.14268021990E+04  0.00000000000E+00 0. -1.
<mgrwt>
<rscale>  0 0.21466246E+04</rscale>
<asrwt>0</asrwt>
<pdfrwt beam="1">  1        2 0.23922073E+00 0.21466246E+04</pdfrwt>
<pdfrwt beam="2">  1       -2 0.11397949E+00 0.21466246E+04</pdfrwt>
<totfact> 0.65403734E+00</totfact>
</mgrwt>
</event>
<event>
 6    1  0.1014650E-006  0.2034633E+04  0.7818608E-02  0.8590598E-01
          2   -1    0    0  501    0  0.00000000000E+00  0.00000000000E+00  0.85490261498E+03  0.85490261498E+03  0.00000000000E+00 0. -1.
         -2   -1    0    0    0  501 -0.00000000000E+00 -0.00000000000E+00 -0.12105853025E+04  0.12105853025E+04  0.00000000000E+00 0.  1.
         23    2    1    2    0    0 -0.44963685672E+03 -0.77692991873E+03 -0.65971243958E+03  0.11177392737E+04  0.91253380761E+02 0.  0.
         11    1    3    3    0    0 -0.20964594516E+03 -0.28439648704E+03 -0.28548000073E+03  0.45423739936E+03  0.00000000000E+00 0. -1.
        -11    1    3    3    0    0 -0.23999091156E+03 -0.49253343170E+03 -0.37423243885E+03  0.66350187434E+03  0.00000000000E+00 0.  1.
         22    1    1    2    0    0  0.44963685672E+03  0.77692991873E+03  0.30402975210E+03  0.94774864374E+03  0.00000000000E+00 0. -1.
<mgrwt>
<rscale>  0 0.20346327E+04</rscale>
<asrwt>0</asrwt>
<pdfrwt beam="1">  1        2 0.13152348E+00 0.20346327E+04</pdfrwt>
<pdfrwt beam="2">  1       -2 0.18624389E+00 0.20346327E+04</pdfrwt>
<totfact> 0.47918074E+00</totfact>
</mgrwt>
</event>
<event>
 6    1  0.1014650E-006  0.2875846E+04  0.7818608E-02  0.8280100E-01
          1   -1    0    0  501    0  0.00000000000E+00  0.00000000000E+00  0.21038135946E+04  0.21038135946E+04  0.00000000000E+00 0. -1.
         -1   -1    0    0    0  501 -0.00000000000E+00 -0.00000000000E+00 -0.98279744949E+03  0.98279744949E+03  0.00000000000E+00 0.  1.
         23    2    1    2    0    0  0.37565053902E+03  0.13750713989E+04  0.75190198649E+03  0.16141369555E+04  0.90259816186E+02 0.  0.
         11    1    3    3    0    0  0.34294758749E+03  0.12403176360E+04  0.70757935317E+03  0.14685603246E+04  0.00000000000E+00 0. -1.
        -11    1    3    3    0    0  0.32702951526E+02  0.13475376287E+03  0.44322633325E+02  0.14557663093E+03  0.00000000000E+00 0.  1.
         22    1    1    2    0    0 -0.37565053902E+03 -0.13750713989E+04  0.36911415861E+03  0.14724740886E+04  0.00000000000E+00 0.  1.
<mgrwt>
<rscale>  0 0.28758461E+04</rscale>
<asrwt>0</asrwt>
<pdfrwt beam="1">  1        1 0.32366363E+00 0.28758461E+04</pdfrwt>
<pdfrwt beam="2">  1       -1 0.15119961E+00 0.28758461E+04</pdfrwt>
<totfact> 0.74393634E-01</totfact>
</mgrwt>
</event>
<event>
 6    1  0.1014650E-006  0.2048181E+04  0.7818608E-02  0.8584420E-01
          1   -1    0    0  501    0  0.00000000000E+00  0.00000000000E+00  0.19503029317E+04  0.19503029317E+04  0.00000000000E+00 0. -1.
         -1   -1    0    0    0  501 -0.00000000000E+00 -0.00000000000E+00 -0.53774263381E+03  0.53774263381E+03  0.00000000000E+00 0.  1.
         23    2    1    2    0    0 -0.42055376238E+03  0.90186250221E+03  0.42539634530E+03  0.10863629662E+04  0.94873620039E+02 0.  0.
         13    1    3    3    0    0 -0.19846745421E+03  0.47094916897E+03  0.17112928723E+03  0.53895053862E+03  0.00000000000E+00 0.  1.
        -13    1    3    3    0    0 -0.22208630817E+03  0.43091333324E+03  0.25426705806E+03  0.54741242757E+03  0.00000000000E+00 0. -1.
         22    1    1    2    0    0  0.42055376238E+03 -0.90186250221E+03  0.98716395259E+03  0.14016825993E+04  0.00000000000E+00 0. -1.
<mgrwt>
<rscale>  0 0.20481807E+04</rscale>
<asrwt>0</asrwt>
<pdfrwt beam="1">  1        1 0.30004660E+00 0.20481807E+04</pdfrwt>
<pdfrwt beam="2">  1       -1 0.82729637E-01 0.20481807E+04</pdfrwt>
<totfact> 0.43186282E+00</totfact>
</mgrwt>
</event>
<event>
 6    1  0.1014650E-006  0.2442056E+04  0.7818608E-02  0.8423924E-01
         -3   -1    0    0    0  501 -0.00000000000E+00  0.00000000000E+00  0.98579667895E+03  0.98579667895E+03  0.00000000000E+00 0.  1.
          3   -1    0    0  501    0  0.00000000000E+00 -0.00000000000E+00 -0.15123904313E+04  0.15123904313E+04  0.00000000000E+00 0. -1.
         23    2    1    2    0    0 -0.70882722448E+03  0.30223930025E+03 -0.12302075236E+04  0.14547040160E+04  0.94702661588E+02 0.  0.
         11    1    3    3    0    0 -0.31930144895E+03  0.18756614262E+03 -0.58769692937E+03  0.69463814605E+03  0.00000000000E+00 0.  1.
        -11    1    3    3    0    0 -0.38952577553E+03  0.11467315763E+03 -0.64251059428E+03  0.76006586994E+03  0.00000000000E+00 0. -1.
         22    1    1    2    0    0  0.70882722448E+03 -0.30223930025E+03  0.70361377131E+03  0.10434830942E+04  0.00000000000E+00 0.  1.
<mgrwt>
<rscale>  0 0.24420561E+04</rscale>
<asrwt>0</asrwt>
<pdfrwt beam="1">  1        3 0.23267545E+00 0.24420561E+04</pdfrwt>
<pdfrwt beam="2">  1       -3 0.15166103E+00 0.24420561E+04</pdfrwt>
<totfact> 0.68196099E-02</totfact>
</mgrwt>
</event>
<event>
 6    1  0.1014650E-006  0.7150734E+04  0.7818608E-02  0.7562087E-01
          2   -1    0    0  501    0  0.00000000000E+00  0.00000000000E+00  0.37266534567E+04  0.37266534567E+04  0.00000000000E+00 0. -1.
         -2   -1    0    0    0  501 -0.00000000000E+00 -0.00000000000E+00 -0.34302222812E+04  0.34302222812E+04  0.00000000000E+00 0.  1.
         23    2    1    2    0    0 -0.21834262630E+04 -0.31399849923E+03  0.29638251929E+04  0.36955268465E+04  0.81936532592E+02 0.  0.
         13    1    3    3    0    0 -0.50586321235E+03 -0.45766049476E+02  0.64607924321E+03  0.82183362635E+03  0.00000000000E+00 0. -1.
        -13    1    3    3    0    0 -0.16775630507E+04 -0.26823244976E+03  0.23177459497E+04  0.28736932201E+04  0.00000000000E+00 0.  1.
         22    1    1    2    0    0  0.21834262630E+04  0.31399849923E+03 -0.26673940174E+04  0.34613488913E+04  0.00000000000E+00 0.  1.
<mgrwt>
<rscale>  0 0.71507342E+04</rscale>
<asrwt>0</asrwt>
<pdfrwt beam="1">  1        2 0.57333130E+00 0.71507342E+04</pdfrwt>
<pdfrwt beam="2">  1       -2 0.52772651E+00 0.71507342E+04</pdfrwt>
<totfact> 0.39457242E-04</totfact>
</mgrwt>
</event>
<event>
 6    1  0.1014650E-006  0.1216021E+04  0.7818608E-02  0.9098948E-01
         -1   -1    0    0    0  501 -0.00000000000E+00  0.00000000000E+00  0.18290312668E+03  0.18290312668E+03  0.00000000000E+00 0.  1.
          1   -1    0    0  501    0  0.00000000000E+00 -0.00000000000E+00 -0.20211627175E+04  0.20211627175E+04  0.00000000000E+00 0. -1.
         23    2    1    2    0    0  0.14367866460E+03  0.55460527810E+03 -0.57437095980E+03  0.81638971310E+03  0.91430799178E+02 0.  0.
         13    1    3    3    0    0  0.13845634272E+03  0.50919266899E+03 -0.55759276548E+03  0.76769591969E+03  0.00000000000E+00 0. -1.
        -13    1    3    3    0    0  0.52223218757E+01  0.45412609111E+02 -0.16778194317E+02  0.48693793409E+02  0.00000000000E+00 0.  1.
         22    1    1    2    0    0 -0.14367866460E+03 -0.55460527810E+03 -0.12638886310E+04  0.13876761311E+04  0.00000000000E+00 0. -1.
<mgrwt>
<rscale>  0 0.12160213E+04</rscale>
<asrwt>0</asrwt>
<pdfrwt beam="1">  1        1 0.31094810E+00 0.12160213E+04</pdfrwt>
<pdfrwt beam="2">  1       -1 0.28138943E-01 0.12160213E+04</pdfrwt>
<totfact> 0.32595193E+01</totfact>
</mgrwt>
</event>
<event>
 6    1  0.1014650E-006  0.4794601E+03  0.7818608E-02  0.1019284E+00
         -1   -1    0    0    0  501 -0.00000000000E+00  0.00000000000E+00  0.28306213932E+02  0.28306213932E+02  0.00000000000E+00 0.  1.
          1   -1    0    0  501    0  0.00000000000E+00 -0.00000000000E+00 -0.20303135273E+04  0.20303135273E+04  0.00000000000E+00 0. -1.
         23    2    1    2    0    0  0.22218539611E+03  0.65446136789E+02 -0.10566543909E+04  0.10853049437E+04  0.87856541944E+02 0.  0.
         13    1    3    3    0    0 -0.60918606247E+01  0.11173938776E+02 -0.68727762071E+02  0.69896158356E+02  0.00000000000E+00 0.  1.
        -13    1    3    3    0    0  0.22827725673E+03  0.54272198013E+02 -0.98792662878E+03  0.10154087853E+04  0.00000000000E+00 0. -1.
         22    1    1    2    0    0 -0.22218539611E+03 -0.65446136789E+02 -0.94535292253E+03  0.97331479759E+03  0.00000000000E+00 0. -1.
<mgrwt>
<rscale>  0 0.47946007E+03</rscale>
<asrwt>0</asrwt>
<pdfrwt beam="1">  1        1 0.31235593E+00 0.47946007E+03</pdfrwt>
<pdfrwt beam="2">  1       -1 0.43548020E-02 0.47946007E+03</pdfrwt>
<totfact> 0.68396135E+02</totfact>
</mgrwt>
</event>
<event>
 6    1  0.1014650E-006  0.1295107E+04  0.7818608E-02  0.9033454E-01
         -2   -1    0    0    0  501 -0.00000000000E+00  0.00000000000E+00  0.24893616131E+03  0.24893616131E+03  0.00000000000E+00 0.  1.
          2   -1    0    0  501    0  0.00000000000E+00 -0.00000000000E+00 -0.16844710777E+04  0.16844710777E+04  0.00000000000E+00 0. -1.
         23    2    1    2    0    0  0.90324345555E+02 -0.51011799727E+03 -0.12934761525E+04  0.13962298466E+04  0.89433600328E+02 0.  0.
         13    1    3    3    0    0 -0.77717490464E+01 -0.18234536790E+03 -0.49314073602E+03  0.52583078913E+03  0.00000000000E+00 0.  1.
        -13    1    3    3    0    0  0.98096094601E+02 -0.32777262937E+03 -0.80033541651E+03  0.87039905748E+03  0.00000000000E+00 0. -1.
         22    1    1    2    0    0 -0.90324345555E+02  0.51011799727E+03 -0.14205876389E+03  0.53717739242E+03  0.00000000000E+00 0.  1.
<mgrwt>
<rscale>  0 0.12951074E+04</rscale>
<asrwt>0</asrwt>
<pdfrwt beam="1">  1        2 0.25914940E+00 0.12951074E+04</pdfrwt>
<pdfrwt beam="2">  1       -2 0.38297870E-01 0.12951074E+04</pdfrwt>
<totfact> 0.63143557E+01</totfact>
</mgrwt>
</event>
<event>
 6    1  0.1014650E-006  0.2251117E+04  0.7818608E-02  0.8497448E-01
         -1   -1    0    0    0  501 -0.00000000000E+00  0.00000000000E+00  0.77551595589E+03  0.77551595589E+03  0.00000000000E+00 0.  1.
          1   -1    0    0  501    0  0.00000000000E+00 -0.00000000000E+00 -0.16335985401E+04  0.16335985401E+04  0.00000000000E+00 0. -1.
         23    2    1    2    0    0 -0.99338966848E+03 -0.46569028446E+03 -0.69003981913E+03  0.12991915954E+04  0.89740598622E+02 0.  0.
         11    1    3    3    0    0 -0.56053353156E+03 -0.31156940444E+03 -0.40487084266E+03  0.75841527742E+03  0.00000000000E+00 0.  1.
        -11    1    3    3    0    0 -0.43285613692E+03 -0.15412088001E+03 -0.28516897648E+03  0.54077631796E+03  0.00000000000E+00 0. -1.
         22    1    1    2    0    0  0.99338966848E+03  0.46569028446E+03 -0.16804276511E+03  0.11099229006E+04  0.00000000000E+00 0.  1.
<mgrwt>
<rscale>  0 0.22511168E+04</rscale>
<asrwt>0</asrwt>
<pdfrwt beam="1">  1        1 0.25132285E+00 0.22511168E+04</pdfrwt>
<pdfrwt beam="2">  1       -1 0.11931015E+00 0.22511168E+04</pdfrwt>
<totfact> 0.30156978E+00</totfact>
</mgrwt>
</event>
<event>
 6    1  0.1014650E-006  0.1865354E+04  0.7818608E-02  0.8672297E-01
          2   -1    0    0  501    0  0.00000000000E+00  0.00000000000E+00  0.11938576112E+04  0.11938576112E+04  0.00000000000E+00 0. -1.
         -2   -1    0    0    0  501 -0.00000000000E+00 -0.00000000000E+00 -0.72863511072E+03  0.72863511072E+03  0.00000000000E+00 0.  1.
         23    2    1    2    0    0  0.87545126482E+03 -0.23291207177E+03  0.45212179973E+03  0.10164935063E+04  0.90454277664E+02 0.  0.
         11    1    3    3    0    0  0.36532720889E+03 -0.14229518044E+03  0.18325836185E+03  0.43277651867E+03  0.00000000000E+00 0.  1.
        -11    1    3    3    0    0  0.51012405593E+03 -0.90616891338E+02  0.26886343789E+03  0.58371698765E+03  0.00000000000E+00 0. -1.
         22    1    1    2    0    0 -0.87545126482E+03  0.23291207177E+03  0.13100700714E+02  0.90599921557E+03  0.00000000000E+00 0. -1.
<mgrwt>
<rscale>  0 0.18653542E+04</rscale>
<asrwt>0</asrwt>
<pdfrwt beam="1">  1        2 0.18367040E+00 0.18653542E+04</pdfrwt>
<pdfrwt beam="2">  1       -2 0.11209771E+00 0.18653542E+04</pdfrwt>
<totfact> 0.11260321E+01</totfact>
</mgrwt>
</event>
<event>
 6    1  0.1014650E-006  0.4325745E+03  0.7818608E-02  0.1033050E+00
         -1   -1    0    0    0  501 -0.00000000000E+00  0.00000000000E+00  0.39591266159E+02  0.39591266159E+02  0.00000000000E+00 0.  1.
          1   -1    0    0  501    0  0.00000000000E+00 -0.00000000000E+00 -0.11815779381E+04  0.11815779381E+04  0.00000000000E+00 0. -1.
         23    2    1    2    0    0  0.13320571471E+03  0.15715436558E+03 -0.65746287131E+03  0.69466700063E+03  0.88676702416E+02 0.  0.
         11    1    3    3    0    0  0.57206255792E+02  0.65967987980E+02 -0.15053406214E+03  0.17402538609E+03  0.00000000000E+00 0. -1.
        -11    1    3    3    0    0  0.75999458918E+02  0.91186377600E+02 -0.50692880917E+03  0.52064161453E+03  0.00000000000E+00 0.  1.
         22    1    1    2    0    0 -0.13320571471E+03 -0.15715436558E+03 -0.48452380058E+03  0.52650220359E+03  0.00000000000E+00 0.  1.
<mgrwt>
<rscale>  0 0.43257446E+03</rscale>
<asrwt>0</asrwt>
<pdfrwt beam="1">  1        1 0.18178123E+00 0.43257446E+03</pdfrwt>
<pdfrwt beam="2">  1       -1 0.60909638E-02 0.43257446E+03</pdfrwt>
<totfact> 0.15368194E+03</totfact>
</mgrwt>
</event>
<event>
 6    1  0.1014650E-006  0.2826608E+04  0.7818608E-02  0.8295055E-01
         -1   -1    0    0    0  501 -0.00000000000E+00  0.00000000000E+00  0.90801530004E+03  0.90801530004E+03  0.00000000000E+00 0.  1.
          1   -1    0    0  501    0  0.00000000000E+00 -0.00000000000E+00 -0.21997741867E+04  0.21997741867E+04  0.00000000000E+00 0. -1.
         23    2    1    2    0    0 -0.23196994163E+03 -0.77664661152E+03  0.62463123746E+03  0.10270345466E+04  0.87440060255E+02 0.  0.
         11    1    3    3    0    0 -0.17373014568E+03 -0.63045280997E+03  0.46168019319E+03  0.80050078695E+03  0.00000000000E+00 0.  1.
        -11    1    3    3    0    0 -0.58239795948E+02 -0.14619380155E+03  0.16295104427E+03  0.22653375967E+03  0.00000000000E+00 0. -1.
         22    1    1    2    0    0  0.23196994163E+03  0.77664661152E+03 -0.19163901242E+04  0.20807549401E+04  0.00000000000E+00 0. -1.
<mgrwt>
<rscale>  0 0.28266083E+04</rscale>
<asrwt>0</asrwt>
<pdfrwt beam="1">  1        1 0.33842680E+00 0.28266083E+04</pdfrwt>
<pdfrwt beam="2">  1       -1 0.13969466E+00 0.28266083E+04</pdfrwt>
<totfact> 0.79337720E-01</totfact>
</mgrwt>
</event>
<event>
 6    1  0.1014650E-006  0.2459319E+04  0.7818608E-02  0.8417623E-01
         -2   -1    0    0    0  501 -0.00000000000E+00  0.00000000000E+00  0.63819685138E+03  0.63819685138E+03  0.00000000000E+00 0.  1.
          2   -1    0    0  501    0  0.00000000000E+00 -0.00000000000E+00 -0.23692728221E+04  0.23692728221E+04  0.00000000000E+00 0. -1.
         23    2    1    2    0    0 -0.86900235352E+02 -0.80262622915E+03  0.26472216626E+03  0.85457145986E+03  0.91945854085E+02 0.  0.
         11    1    3    3    0    0  0.16967113628E+02 -0.22543641796E+03  0.73096898698E+02  0.23759759697E+03  0.00000000000E+00 0.  1.
        -11    1    3    3    0    0 -0.10386734898E+03 -0.57718981119E+03  0.19162526756E+03  0.61697386290E+03  0.00000000000E+00 0. -1.
         22    1    1    2    0    0  0.86900235352E+02  0.80262622915E+03 -0.19957981370E+04  0.21528982136E+04  0.00000000000E+00 0. -1.
<mgrwt>
<rscale>  0 0.24593190E+04</rscale>
<asrwt>0</asrwt>
<pdfrwt beam="1">  1        2 0.36450351E+00 0.24593190E+04</pdfrwt>
<pdfrwt beam="2">  1       -2 0.98184130E-01 0.24593190E+04</pdfrwt>
<totfact> 0.31949799E+00</totfact>
</mgrwt>
</event>
<event>
 6    1  0.1014650E-006  0.1370045E+04  0.7818608E-02  0.8975791E-01
          2   -1    0    0  501    0  0.00000000000E+00  0.00000000000E+00  0.15142341532E+04  0.15142341532E+04  0.00000000000E+00 0. -1.
         -2   -1    0    0    0  501 -0.00000000000E+00 -0.00000000000E+00 -0.30989666261E+03  0.30989666261E+03  0.00000000000E+00 0.  1.
         23    2    1    2    0    0 -0.48943864575E+03  0.26598202532E+03  0.80714870803E+02  0.57000784838E+03  0.89985727225E+02 0.  0.
         13    1    3    3    0    0 -0.31788855428E+02  0.45709798420E+02 -0.35294631766E+00  0.55678016956E+02  0.00000000000E+00 0.  1.
        -13    1    3    3    0    0 -0.45764979032E+03  0.22027222690E+03  0.81067817120E+02  0.51432983143E+03  0.00000000000E+00 0. -1.
         22    1    1    2    0    0  0.48943864575E+03 -0.26598202532E+03  0.11236226198E+04  0.12541229675E+04  0.00000000000E+00 0. -1.
<mgrwt>
<rscale>  0 0.13700454E+04</rscale>
<asrwt>0</asrwt>
<pdfrwt beam="1">  1        2 0.23295910E+00 0.13700454E+04</pdfrwt>
<pdfrwt beam="2">  1       -2 0.47676410E-01 0.13700454E+04</pdfrwt>
<totfact> 0.50656124E+01</totfact>
</mgrwt>
</event>
<event>
 6    1  0.1014650E-006  0.3681075E+04  0.7818608E-02  0.8072169E-01
          2   -1    0    0  501    0  0.00000000000E+00  0.00000000000E+00  0.30163498346E+04  0.30163498346E+04  0.00000000000E+00 0. -1.
         -2   -1    0    0    0  501 -0.00000000000E+00 -0.00000000000E+00 -0.11230721609E+04  0.11230721609E+04  0.00000000000E+00 0.  1.
         23    2    1    2    0    0  0.11892559690E+04  0.95565253111E+03 -0.20820977606E+03  0.15425294252E+04  0.91892310420E+02 0.  0.
         11    1    3    3    0    0  0.28421122940E+03  0.17981708319E+03 -0.42091513231E+02  0.33894232815E+03  0.00000000000E+00 0. -1.
        -11    1    3    3    0    0  0.90504473965E+03  0.77583544792E+03 -0.16611826283E+03  0.12035870971E+04  0.00000000000E+00 0.  1.
         22    1    1    2    0    0 -0.11892559690E+04 -0.95565253111E+03  0.21014874497E+04  0.25968925703E+04  0.00000000000E+00 0. -1.
<mgrwt>
<rscale>  0 0.36810751E+04</rscale>
<asrwt>0</asrwt>
<pdfrwt beam="1">  1        2 0.46405382E+00 0.36810751E+04</pdfrwt>
<pdfrwt beam="2">  1       -2 0.17278033E+00 0.36810751E+04</pdfrwt>
<totfact> 0.28022533E-01</totfact>
</mgrwt>
</event>
<event>
 6    1  0.1014650E-006  0.3519726E+04  0.7818608E-02  0.8109131E-01
         -2   -1    0    0    0  501 -0.00000000000E+00  0.00000000000E+00  0.10646513880E+04  0.10646513880E+04  0.00000000000E+00 0.  1.
          2   -1    0    0  501    0  0.00000000000E+00 -0.00000000000E+00 -0.29090434363E+04  0.29090434363E+04  0.00000000000E+00 0. -1.
         23    2    1    2    0    0 -0.94071168227E+03  0.11200074576E+04  0.17966281231E+03  0.14764657093E+04  0.91198083258E+02 0.  0.
         13    1    3    3    0    0 -0.16484058414E+03  0.15180939060E+03  0.43740432868E+02  0.22832374980E+03  0.00000000000E+00 0. -1.
        -13    1    3    3    0    0 -0.77587109813E+03  0.96819806697E+03  0.13592237944E+03  0.12481419595E+04  0.00000000000E+00 0.  1.
         22    1    1    2    0    0  0.94071168227E+03 -0.11200074576E+04 -0.20240548606E+04  0.24972291150E+04  0.00000000000E+00 0. -1.
<mgrwt>
<rscale>  0 0.35197256E+04</rscale>
<asrwt>0</asrwt>
<pdfrwt beam="1">  1        2 0.44754514E+00 0.35197256E+04</pdfrwt>
<pdfrwt beam="2">  1       -2 0.16379252E+00 0.35197256E+04</pdfrwt>
<totfact> 0.38419883E-01</totfact>
</mgrwt>
</event>
<event>
 6    1  0.1014650E-006  0.2526439E+04  0.7818608E-02  0.8393627E-01
         -2   -1    0    0    0  501 -0.00000000000E+00  0.00000000000E+00  0.13224336316E+04  0.13224336316E+04  0.00000000000E+00 0.  1.
          2   -1    0    0  501    0  0.00000000000E+00 -0.00000000000E+00 -0.12066564899E+04  0.12066564899E+04  0.00000000000E+00 0. -1.
         23    2    1    2    0    0  0.74210834103E+03  0.74970573446E+02  0.10765226688E+04  0.13127935521E+04  0.90445991175E+02 0.  0.
         11    1    3    3    0    0  0.28962077353E+03  0.51885298818E+02  0.35862403560E+03  0.46387872942E+03  0.00000000000E+00 0. -1.
        -11    1    3    3    0    0  0.45248756750E+03  0.23085274628E+02  0.71789863319E+03  0.84891482269E+03  0.00000000000E+00 0.  1.
         22    1    1    2    0    0 -0.74210834103E+03 -0.74970573446E+02 -0.96074552714E+03  0.12162965694E+04  0.00000000000E+00 0. -1.
<mgrwt>
<rscale>  0 0.25264387E+04</rscale>
<asrwt>0</asrwt>
<pdfrwt beam="1">  1        2 0.18563946E+00 0.25264387E+04</pdfrwt>
<pdfrwt beam="2">  1       -2 0.20345133E+00 0.25264387E+04</pdfrwt>
<totfact> 0.21087495E+00</totfact>
</mgrwt>
</event>
<event>
 6    1  0.1014650E-006  0.9887332E+03  0.7818608E-02  0.9320989E-01
         -1   -1    0    0    0  501 -0.00000000000E+00  0.00000000000E+00  0.47807939022E+03  0.47807939022E+03  0.00000000000E+00 0.  1.
          1   -1    0    0  501    0  0.00000000000E+00 -0.00000000000E+00 -0.51120866464E+03  0.51120866464E+03  0.00000000000E+00 0. -1.
         23    2    1    2    0    0 -0.33102793218E+03 -0.71206767116E+02  0.33842350510E+03  0.48659394953E+03  0.87139585391E+02 0.  0.
         11    1    3    3    0    0 -0.26992461674E+03 -0.28168574394E+02  0.29183875950E+03  0.39852556863E+03  0.00000000000E+00 0. -1.
        -11    1    3    3    0    0 -0.61103315439E+02 -0.43038192722E+02  0.46584745602E+02  0.88068380894E+02  0.00000000000E+00 0.  1.
         22    1    1    2    0    0  0.33102793218E+03  0.71206767116E+02 -0.37155277953E+03  0.50269410534E+03  0.00000000000E+00 0. -1.
<mgrwt>
<rscale>  0 0.98873318E+03</rscale>
<asrwt>0</asrwt>
<pdfrwt beam="1">  1        1 0.78647487E-01 0.98873318E+03</pdfrwt>
<pdfrwt beam="2">  1       -1 0.73550675E-01 0.98873318E+03</pdfrwt>
<totfact> 0.80346249E+01</totfact>
</mgrwt>
</event>
<event>
 6    1  0.1014650E-006  0.1548322E+04  0.7818608E-02  0.8852940E-01
          1   -1    0    0  501    0  0.00000000000E+00  0.00000000000E+00  0.35094179678E+04  0.35094179678E+04  0.00000000000E+00 0. -1.
         -1   -1    0    0    0  501 -0.00000000000E+00 -0.00000000000E+00 -0.17077631083E+03  0.17077631083E+03  0.00000000000E+00 0.  1.
         23    2    1    2    0    0 -0.19176974695E+03  0.64799741995E+03  0.78990044625E+03  0.10433859710E+04  0.89639708377E+02 0.  0.
         11    1    3    3    0    0 -0.17774155577E+03  0.50633649777E+03  0.66042352965E+03  0.85095707773E+03  0.00000000000E+00 0.  1.
        -11    1    3    3    0    0 -0.14028191182E+02  0.14166092218E+03  0.12947691660E+03  0.19242889324E+03  0.00000000000E+00 0. -1.
         22    1    1    2    0    0  0.19176974695E+03 -0.64799741995E+03  0.25487412108E+04  0.26368083077E+04  0.00000000000E+00 0. -1.
<mgrwt>
<rscale>  0 0.15483223E+04</rscale>
<asrwt>0</asrwt>
<pdfrwt beam="1">  1        1 0.53991040E+00 0.15483223E+04</pdfrwt>
<pdfrwt beam="2">  1       -1 0.26273281E-01 0.15483223E+04</pdfrwt>
<totfact> 0.30765382E+00</totfact>
</mgrwt>
</event>
<event>
 6    1  0.1014650E-006  0.2176179E+04  0.7818608E-02  0.8528409E-01
          2   -1    0    0  501    0  0.00000000000E+00  0.00000000000E+00  0.10730283572E+04  0.10730283572E+04  0.00000000000E+00 0. -1.
         -2   -1    0    0    0  501 -0.00000000000E+00 -0.00000000000E+00 -0.11033618789E+04  0.11033618789E+04  0.00000000000E+00 0.  1.
         23    2    1    2    0    0  0.58898813220E+02  0.90188404272E+03 -0.61780468090E+03  0.10984355711E+04  0.89521972258E+02 0.  0.
         11    1    3    3    0    0 -0.35491126395E+01  0.59223747068E+03 -0.41061269187E+03  0.72066677501E+03  0.00000000000E+00 0. -1.
        -11    1    3    3    0    0  0.62447925859E+02  0.30964657204E+03 -0.20719198903E+03  0.37776879614E+03  0.00000000000E+00 0.  1.
         22    1    1    2    0    0 -0.58898813220E+02 -0.90188404272E+03  0.58747115918E+03  0.10779546649E+04  0.00000000000E+00 0. -1.
<mgrwt>
<rscale>  0 0.21761788E+04</rscale>
<asrwt>0</asrwt>
<pdfrwt beam="1">  1        2 0.16508128E+00 0.21761788E+04</pdfrwt>
<pdfrwt beam="2">  1       -2 0.16974798E+00 0.21761788E+04</pdfrwt>
<totfact> 0.44376458E+00</totfact>
</mgrwt>
</event>
<event>
 6    1  0.1014650E-006  0.3793983E+04  0.7818608E-02  0.8047447E-01
         -2   -1    0    0    0  501 -0.00000000000E+00  0.00000000000E+00  0.18869537933E+04  0.18869537933E+04  0.00000000000E+00 0.  1.
          2   -1    0    0  501    0  0.00000000000E+00 -0.00000000000E+00 -0.19070821246E+04  0.19070821246E+04  0.00000000000E+00 0. -1.
         23    2    1    2    0    0 -0.67960747788E+03 -0.39477049403E+03  0.17152940749E+04  0.18889372342E+04  0.90222192878E+02 0.  0.
         11    1    3    3    0    0 -0.19232702452E+03 -0.15560135338E+03  0.49581824193E+03  0.55410937058E+03  0.00000000000E+00 0. -1.
        -11    1    3    3    0    0 -0.48728045336E+03 -0.23916914065E+03  0.12194758330E+04  0.13348278636E+04  0.00000000000E+00 0.  1.
         22    1    1    2    0    0  0.67960747788E+03  0.39477049403E+03 -0.17354224063E+04  0.19050986838E+04  0.00000000000E+00 0. -1.
<mgrwt>
<rscale>  0 0.37939825E+04</rscale>
<asrwt>0</asrwt>
<pdfrwt beam="1">  1        2 0.29339725E+00 0.37939825E+04</pdfrwt>
<pdfrwt beam="2">  1       -2 0.29030059E+00 0.37939825E+04</pdfrwt>
<totfact> 0.21995040E-01</totfact>
</mgrwt>
</event>
<event>
 6    1  0.1014650E-006  0.2778345E+04  0.7818608E-02  0.8310023E-01
          2   -1    0    0  501    0  0.00000000000E+00  0.00000000000E+00  0.12823392988E+04  0.12823392988E+04  0.00000000000E+00 0. -1.
         -2   -1    0    0    0  501 -0.00000000000E+00 -0.00000000000E+00 -0.15049066262E+04  0.15049066262E+04  0.00000000000E+00 0.  1.
         23    2    1    2    0    0  0.64837709166E+03  0.11003517546E+04 -0.65580982267E+03  0.14385925610E+04  0.91077966919E+02 0.  0.
         11    1    3    3    0    0  0.60958680425E+03  0.10687235314E+04 -0.62893661032E+03  0.13817841070E+04  0.00000000000E+00 0.  1.
        -11    1    3    3    0    0  0.38790287408E+02  0.31628223174E+02 -0.26873212346E+02  0.56808453950E+02  0.00000000000E+00 0. -1.
         22    1    1    2    0    0 -0.64837709166E+03 -0.11003517546E+04  0.43324249526E+03  0.13486533641E+04  0.00000000000E+00 0.  1.
<mgrwt>
<rscale>  0 0.27783455E+04</rscale>
<asrwt>0</asrwt>
<pdfrwt beam="1">  1        2 0.19728297E+00 0.27783455E+04</pdfrwt>
<pdfrwt beam="2">  1       -2 0.23152410E+00 0.27783455E+04</pdfrwt>
<totfact> 0.12343409E+00</totfact>
</mgrwt>
</event>
<event>
 6    1  0.1014650E-006  0.9317655E+03  0.7818608E-02  0.9386722E-01
          2   -1    0    0  501    0  0.00000000000E+00  0.00000000000E+00  0.62422864976E+03  0.62422864976E+03  0.00000000000E+00 0. -1.
         -2   -1    0    0    0  501 -0.00000000000E+00 -0.00000000000E+00 -0.34770391464E+03  0.34770391464E+03  0.00000000000E+00 0.  1.
         23    2    1    2    0    0 -0.22324772761E+03 -0.37900041469E+03  0.29131553674E+03  0.53181936303E+03  0.66979330584E+02 0.  0.
         11    1    3    3    0    0 -0.18267757896E+03 -0.32956436491E+03  0.22127316853E+03  0.43697320694E+03  0.00000000000E+00 0.  1.
        -11    1    3    3    0    0 -0.40570148647E+02 -0.49436049778E+02  0.70042368217E+02  0.94846156086E+02  0.00000000000E+00 0. -1.
         22    1    1    2    0    0  0.22324772761E+03  0.37900041469E+03 -0.14790801621E+02  0.44011320138E+03  0.00000000000E+00 0.  1.
<mgrwt>
<rscale>  0 0.93176552E+03</rscale>
<asrwt>0</asrwt>
<pdfrwt beam="1">  1        2 0.96035177E-01 0.93176552E+03</pdfrwt>
<pdfrwt beam="2">  1       -2 0.53492910E-01 0.93176552E+03</pdfrwt>
<totfact> 0.15598428E+02</totfact>
</mgrwt>
</event>
<event>
 6    1  0.1014650E-006  0.8485306E+03  0.7818608E-02  0.9492311E-01
          2   -1    0    0  501    0  0.00000000000E+00  0.00000000000E+00  0.15176414677E+03  0.15176414677E+03  0.00000000000E+00 0. -1.
         -2   -1    0    0    0  501 -0.00000000000E+00 -0.00000000000E+00 -0.11860577294E+04  0.11860577294E+04  0.00000000000E+00 0.  1.
         23    2    1    2    0    0 -0.24274879761E+03 -0.68364955410E+02  0.56347834887E+01  0.26775096612E+03  0.89766826871E+02 0.  0.
         13    1    3    3    0    0 -0.80295587706E+02 -0.12380230834E+02  0.42976319021E+02  0.91910910762E+02  0.00000000000E+00 0. -1.
        -13    1    3    3    0    0 -0.16245320990E+03 -0.55984724576E+02 -0.37341535532E+02  0.17584005536E+03  0.00000000000E+00 0.  1.
         22    1    1    2    0    0  0.24274879761E+03  0.68364955410E+02 -0.10399283661E+04  0.10700709101E+04  0.00000000000E+00 0.  1.
<mgrwt>
<rscale>  0 0.84853059E+03</rscale>
<asrwt>0</asrwt>
<pdfrwt beam="1">  1        2 0.23348331E-01 0.84853059E+03</pdfrwt>
<pdfrwt beam="2">  1       -2 0.18247041E+00 0.84853059E+03</pdfrwt>
<totfact> 0.41699305E+01</totfact>
</mgrwt>
</event>
<event>
 6    1  0.1014650E-006  0.1920193E+04  0.7818608E-02  0.8644870E-01
         -2   -1    0    0    0  501 -0.00000000000E+00  0.00000000000E+00  0.77608361348E+03  0.77608361348E+03  0.00000000000E+00 0.  1.
          2   -1    0    0  501    0  0.00000000000E+00 -0.00000000000E+00 -0.11877398091E+04  0.11877398091E+04  0.00000000000E+00 0. -1.
         23    2    1    2    0    0 -0.27109581855E+03  0.90580437880E+03 -0.36326164076E+03  0.10170834644E+04  0.92332217679E+02 0.  0.
         11    1    3    3    0    0 -0.47512014774E+02  0.17194519970E+03 -0.31014177527E+02  0.18106469135E+03  0.00000000000E+00 0. -1.
        -11    1    3    3    0    0 -0.22358380377E+03  0.73385917910E+03 -0.33224746324E+03  0.83601877304E+03  0.00000000000E+00 0.  1.
         22    1    1    2    0    0  0.27109581855E+03 -0.90580437880E+03 -0.48394554860E+02  0.94673995818E+03  0.00000000000E+00 0.  1.
<mgrwt>
<rscale>  0 0.19201931E+04</rscale>
<asrwt>0</asrwt>
<pdfrwt beam="1">  1        2 0.18272920E+00 0.19201931E+04</pdfrwt>
<pdfrwt beam="2">  1       -2 0.11939748E+00 0.19201931E+04</pdfrwt>
<totfact> 0.96869099E+00</totfact>
</mgrwt>
</event>
<event>
 6    1  0.1014650E-006  0.9884747E+03  0.7818608E-02  0.9321277E-01
          2   -1    0    0  501    0  0.00000000000E+00  0.00000000000E+00  0.11276363907E+04  0.11276363907E+04  0.00000000000E+00 0. -1.
         -2   -1    0    0    0  501 -0.00000000000E+00 -0.00000000000E+00 -0.21662174107E+03  0.21662174107E+03  0.00000000000E+00 0.  1.
         23    2    1    2    0    0 -0.32165956819E+03 -0.36381045582E+03  0.36993676308E+03  0.61721741427E+03  0.91001111131E+02 0.  0.
         13    1    3    3    0    0 -0.61763315837E+02 -0.13073532142E+03  0.11947163416E+03  0.18756306358E+03  0.00000000000E+00 0.  1.
        -13    1    3    3    0    0 -0.25989625235E+03 -0.23307513440E+03  0.25046512893E+03  0.42965435069E+03  0.00000000000E+00 0. -1.
         22    1    1    2    0    0  0.32165956819E+03  0.36381045582E+03  0.54107788650E+03  0.72704071745E+03  0.00000000000E+00 0.  1.
<mgrwt>
<rscale>  0 0.98847470E+03</rscale>
<asrwt>0</asrwt>
<pdfrwt beam="1">  1        2 0.17348252E+00 0.98847470E+03</pdfrwt>
<pdfrwt beam="2">  1       -2 0.33326422E-01 0.98847470E+03</pdfrwt>
<totfact> 0.17579209E+02</totfact>
</mgrwt>
</event>
<event>
 6    1  0.1014650E-006  0.2210759E+04  0.7818608E-02  0.8513963E-01
         -1   -1    0    0    0  501 -0.00000000000E+00  0.00000000000E+00  0.15138582198E+04  0.15138582198E+04  0.00000000000E+00 0.  1.
          1   -1    0    0  501    0  0.00000000000E+00 -0.00000000000E+00 -0.80711877473E+03  0.80711877473E+03  0.00000000000E+00 0. -1.
         23    2    1    2    0    0 -0.62050851643E+03  0.91204177170E+03  0.35598139756E+03  0.11634441785E+04  0.10014284226E+03 0.  0.
         11    1    3    3    0    0 -0.15409389234E+03  0.23808600632E+03  0.13771471197E+03  0.31527006828E+03  0.00000000000E+00 0.  1.
        -11    1    3    3    0    0 -0.46641462409E+03  0.67395576538E+03  0.21826668559E+03  0.84817411025E+03  0.00000000000E+00 0. -1.
         22    1    1    2    0    0  0.62050851643E+03 -0.91204177170E+03  0.35075804756E+03  0.11575328160E+04  0.00000000000E+00 0. -1.
<mgrwt>
<rscale>  0 0.22107586E+04</rscale>
<asrwt>0</asrwt>
<pdfrwt beam="1">  1        1 0.12417212E+00 0.22107586E+04</pdfrwt>
<pdfrwt beam="2">  1       -1 0.23290126E+00 0.22107586E+04</pdfrwt>
<totfact> 0.17926728E+00</totfact>
</mgrwt>
</event>
<event>
 6    1  0.1014650E-006  0.2116260E+04  0.7818608E-02  0.8554115E-01
         -2   -1    0    0    0  501 -0.00000000000E+00  0.00000000000E+00  0.60502666491E+03  0.60502666491E+03  0.00000000000E+00 0.  1.
          2   -1    0    0  501    0  0.00000000000E+00 -0.00000000000E+00 -0.18505609159E+04  0.18505609159E+04  0.00000000000E+00 0. -1.
         23    2    1    2    0    0 -0.79425862886E+02  0.43486812635E+03 -0.17371674968E+04  0.17944355534E+04  0.82639508551E+02 0.  0.
         13    1    3    3    0    0 -0.16056796801E+02  0.36762582265E+02 -0.87969064169E+02  0.96684354624E+02  0.00000000000E+00 0. -1.
        -13    1    3    3    0    0 -0.63369066085E+02  0.39810554408E+03 -0.16491984327E+04  0.16977511988E+04  0.00000000000E+00 0.  1.
         22    1    1    2    0    0  0.79425862886E+02 -0.43486812635E+03  0.49163324579E+03  0.66115202743E+03  0.00000000000E+00 0.  1.
<mgrwt>
<rscale>  0 0.21162596E+04</rscale>
<asrwt>0</asrwt>
<pdfrwt beam="1">  1        2 0.28470168E+00 0.21162596E+04</pdfrwt>
<pdfrwt beam="2">  1       -2 0.93081027E-01 0.21162596E+04</pdfrwt>
<totfact> 0.72762846E+00</totfact>
</mgrwt>
</event>
<event>
 6    1  0.1014650E-006  0.5708020E+03  0.7818608E-02  0.9967906E-01
         -1   -1    0    0    0  501 -0.00000000000E+00  0.00000000000E+00  0.78389528502E+02  0.78389528502E+02  0.00000000000E+00 0.  1.
          1   -1    0    0  501    0  0.00000000000E+00 -0.00000000000E+00 -0.10390892841E+04  0.10390892841E+04  0.00000000000E+00 0. -1.
         23    2    1    2    0    0 -0.15885190922E+02  0.20228901654E+03 -0.12016776739E+03  0.25280129542E+03  0.91076984715E+02 0.  0.
         13    1    3    3    0    0  0.31319724993E+02  0.30875994925E+02 -0.16383387927E+02  0.46932586081E+02  0.00000000000E+00 0. -1.
        -13    1    3    3    0    0 -0.47204915916E+02  0.17141302162E+03 -0.10378437946E+03  0.20586870934E+03  0.00000000000E+00 0.  1.
         22    1    1    2    0    0  0.15885190922E+02 -0.20228901654E+03 -0.84053198817E+03  0.86467751714E+03  0.00000000000E+00 0. -1.
<mgrwt>
<rscale>  0 0.57080196E+03</rscale>
<asrwt>0</asrwt>
<pdfrwt beam="1">  1        1 0.15985988E+00 0.57080196E+03</pdfrwt>
<pdfrwt beam="2">  1       -1 0.12059928E-01 0.57080196E+03</pdfrwt>
<totfact> 0.67079180E+02</totfact>
</mgrwt>
</event>
<event>
 6    1  0.1014650E-006  0.7299513E+03  0.7818608E-02  0.9667339E-01
          2   -1    0    0  501    0  0.00000000000E+00  0.00000000000E+00  0.24647879630E+03  0.24647879630E+03  0.00000000000E+00 0. -1.
         -2   -1    0    0    0  501 -0.00000000000E+00 -0.00000000000E+00 -0.54044093047E+03  0.54044093047E+03  0.00000000000E+00 0.  1.
         23    2    1    2    0    0  0.11823858676E+03  0.18853531964E+03  0.15480773888E+03  0.28600024312E+03  0.91130526707E+02 0.  0.
         11    1    3    3    0    0  0.64719252006E+02  0.12386245081E+03  0.14516443126E+03  0.20150235831E+03  0.00000000000E+00 0. -1.
        -11    1    3    3    0    0  0.53519334753E+02  0.64672868833E+02  0.96433076106E+01  0.84497884809E+02  0.00000000000E+00 0.  1.
         22    1    1    2    0    0 -0.11823858676E+03 -0.18853531964E+03 -0.44876987304E+03  0.50091948365E+03  0.00000000000E+00 0.  1.
<mgrwt>
<rscale>  0 0.72995131E+03</rscale>
<asrwt>0</asrwt>
<pdfrwt beam="1">  1        2 0.37919815E-01 0.72995131E+03</pdfrwt>
<pdfrwt beam="2">  1       -2 0.83144758E-01 0.72995131E+03</pdfrwt>
<totfact> 0.17484688E+02</totfact>
</mgrwt>
</event>
<event>
 6    1  0.1014650E-006  0.4098499E+04  0.7818608E-02  0.7984966E-01
          2   -1    0    0  501    0  0.00000000000E+00  0.00000000000E+00  0.21945549081E+04  0.21945549081E+04  0.00000000000E+00 0. -1.
         -2   -1    0    0    0  501 -0.00000000000E+00 -0.00000000000E+00 -0.19135646175E+04  0.19135646175E+04  0.00000000000E+00 0.  1.
         23    2    1    2    0    0  0.16080829496E+04  0.75512561673E+03  0.11622440684E+04  0.21250023604E+04  0.93157325078E+02 0.  0.
         13    1    3    3    0    0  0.56102639177E+03  0.31074575587E+03  0.40362263982E+03  0.75777620208E+03  0.00000000000E+00 0. -1.
        -13    1    3    3    0    0  0.10470565578E+04  0.44437986086E+03  0.75862142857E+03  0.13672261583E+04  0.00000000000E+00 0.  1.
         22    1    1    2    0    0 -0.16080829496E+04 -0.75512561673E+03 -0.88125377778E+03  0.19831171651E+04  0.00000000000E+00 0.  1.
<mgrwt>
<rscale>  0 0.40984986E+04</rscale>
<asrwt>0</asrwt>
<pdfrwt beam="1">  1        2 0.33762383E+00 0.40984986E+04</pdfrwt>
<pdfrwt beam="2">  1       -2 0.29439456E+00 0.40984986E+04</pdfrwt>
<totfact> 0.13999683E-01</totfact>
</mgrwt>
</event>
<event>
 6    1  0.1014650E-006  0.3684674E+04  0.7818608E-02  0.8071367E-01
          2   -1    0    0  501    0  0.00000000000E+00  0.00000000000E+00  0.34767916878E+04  0.34767916878E+04  0.00000000000E+00 0. -1.
         -2   -1    0    0    0  501 -0.00000000000E+00 -0.00000000000E+00 -0.97624644377E+03  0.97624644377E+03  0.00000000000E+00 0.  1.
         23    2    1    2    0    0  0.11682224487E+04 -0.23447588393E+03 -0.44551616005E+03  0.12751456811E+04  0.88256611370E+02 0.  0.
         11    1    3    3    0    0  0.83339146016E+03 -0.12908245238E+03 -0.29892735855E+03  0.89474084017E+03  0.00000000000E+00 0. -1.
        -11    1    3    3    0    0  0.33483098855E+03 -0.10539343155E+03 -0.14658880150E+03  0.38040484097E+03  0.00000000000E+00 0.  1.
         22    1    1    2    0    0 -0.11682224487E+04  0.23447588393E+03  0.29460614041E+04  0.31778924504E+04  0.00000000000E+00 0. -1.
<mgrwt>
<rscale>  0 0.36846739E+04</rscale>
<asrwt>0</asrwt>
<pdfrwt beam="1">  1        2 0.53489102E+00 0.36846739E+04</pdfrwt>
<pdfrwt beam="2">  1       -2 0.15019176E+00 0.36846739E+04</pdfrwt>
<totfact> 0.20362571E-01</totfact>
</mgrwt>
</event>
<event>
 6    1  0.1014650E-006  0.5370225E+04  0.7818608E-02  0.7773803E-01
          2   -1    0    0  501    0  0.00000000000E+00  0.00000000000E+00  0.37029161872E+04  0.37029161872E+04  0.00000000000E+00 0. -1.
         -2   -1    0    0    0  501 -0.00000000000E+00 -0.00000000000E+00 -0.19470675638E+04  0.19470675638E+04  0.00000000000E+00 0.  1.
         23    2    1    2    0    0 -0.89499793156E+03  0.24893489077E+04  0.39890795661E+03  0.26769100461E+04  0.94024227381E+02 0.  0.
         11    1    3    3    0    0 -0.37686198445E+03  0.10645174328E+04  0.21702224302E+03  0.11499221600E+04  0.00000000000E+00 0.  1.
        -11    1    3    3    0    0 -0.51813594712E+03  0.14248314749E+04  0.18188571359E+03  0.15269878861E+04  0.00000000000E+00 0. -1.
         22    1    1    2    0    0  0.89499793156E+03 -0.24893489077E+04  0.13569406668E+04  0.29730737049E+04  0.00000000000E+00 0. -1.
<mgrwt>
<rscale>  0 0.53702246E+04</rscale>
<asrwt>0</asrwt>
<pdfrwt beam="1">  1        2 0.56967941E+00 0.53702246E+04</pdfrwt>
<pdfrwt beam="2">  1       -2 0.29954886E+00 0.53702246E+04</pdfrwt>
<totfact> 0.13094812E-02</totfact>
</mgrwt>
</event>
<event>
 6    1  0.1014650E-006  0.1862966E+04  0.7818608E-02  0.8673513E-01
         -1   -1    0    0    0  501 -0.00000000000E+00  0.00000000000E+00  0.44698674588E+03  0.44698674588E+03  0.00000000000E+00 0.  1.
          1   -1    0    0  501    0  0.00000000000E+00 -0.00000000000E+00 -0.19411323879E+04  0.19411323879E+04  0.00000000000E+00 0. -1.
         23    2    1    2    0    0  0.26599454985E+03 -0.87354566633E+03 -0.52888630983E+03  0.10593750989E+04  0.93379547092E+02 0.  0.
         11    1    3    3    0    0  0.19911687948E+03 -0.50717490102E+03 -0.33323373053E+03  0.63868507974E+03  0.00000000000E+00 0. -1.
        -11    1    3    3    0    0  0.66877670366E+02 -0.36637076531E+03 -0.19565257930E+03  0.42069001920E+03  0.00000000000E+00 0.  1.
         22    1    1    2    0    0 -0.26599454985E+03  0.87354566633E+03 -0.96525933216E+03  0.13287440348E+04  0.00000000000E+00 0.  1.
<mgrwt>
<rscale>  0 0.18629659E+04</rscale>
<asrwt>0</asrwt>
<pdfrwt beam="1">  1        1 0.29863574E+00 0.18629659E+04</pdfrwt>
<pdfrwt beam="2">  1       -1 0.68767193E-01 0.18629659E+04</pdfrwt>
<totfact> 0.65617742E+00</totfact>
</mgrwt>
</event>
<event>
 6    1  0.1014650E-006  0.1456628E+04  0.7818608E-02  0.8913818E-01
         -2   -1    0    0    0  501 -0.00000000000E+00  0.00000000000E+00  0.47679306416E+03  0.47679306416E+03  0.00000000000E+00 0.  1.
          2   -1    0    0  501    0  0.00000000000E+00 -0.00000000000E+00 -0.11125193124E+04  0.11125193124E+04  0.00000000000E+00 0. -1.
         23    2    1    2    0    0 -0.26859533829E+03 -0.67339591647E+03 -0.35014310199E+03  0.81010556866E+03  0.89807151419E+02 0.  0.
         11    1    3    3    0    0 -0.16301428206E+03 -0.32391018643E+03 -0.21006627022E+03  0.41906956810E+03  0.00000000000E+00 0. -1.
        -11    1    3    3    0    0 -0.10558105622E+03 -0.34948573004E+03 -0.14007683178E+03  0.39103600056E+03  0.00000000000E+00 0.  1.
         22    1    1    2    0    0  0.26859533829E+03  0.67339591647E+03 -0.28558314626E+03  0.77920680791E+03  0.00000000000E+00 0.  1.
<mgrwt>
<rscale>  0 0.14566283E+04</rscale>
<asrwt>0</asrwt>
<pdfrwt beam="1">  1        2 0.17115682E+00 0.14566283E+04</pdfrwt>
<pdfrwt beam="2">  1       -2 0.73352779E-01 0.14566283E+04</pdfrwt>
<totfact> 0.34801728E+01</totfact>
</mgrwt>
</event>
<event>
 6    1  0.1014650E-006  0.1612876E+04  0.7818608E-02  0.8812676E-01
         -2   -1    0    0    0  501 -0.00000000000E+00  0.00000000000E+00  0.37558697776E+03  0.37558697776E+03  0.00000000000E+00 0.  1.
          2   -1    0    0  501    0  0.00000000000E+00 -0.00000000000E+00 -0.17315363151E+04  0.17315363151E+04  0.00000000000E+00 0. -1.
         23    2    1    2    0    0  0.47631083105E+03 -0.24722226014E+02  0.16522990912E+03  0.51292459254E+03  0.91145589722E+02 0.  0.
         11    1    3    3    0    0  0.35694369617E+03 -0.20671816888E+02  0.80514918595E+02  0.36649526377E+03  0.00000000000E+00 0. -1.
        -11    1    3    3    0    0  0.11936713488E+03 -0.40504091262E+01  0.84714990525E+02  0.14642932877E+03  0.00000000000E+00 0.  1.
         22    1    1    2    0    0 -0.47631083105E+03  0.24722226014E+02 -0.15211792465E+04  0.15941987003E+04  0.00000000000E+00 0. -1.
<mgrwt>
<rscale>  0 0.16128763E+04</rscale>
<asrwt>0</asrwt>
<pdfrwt beam="1">  1        2 0.26639021E+00 0.16128763E+04</pdfrwt>
<pdfrwt beam="2">  1       -2 0.57782611E-01 0.16128763E+04</pdfrwt>
<totfact> 0.25297840E+01</totfact>
</mgrwt>
</event>
<event>
 6    1  0.1014650E-006  0.3486155E+04  0.7818608E-02  0.8117079E-01
          2   -1    0    0  501    0  0.00000000000E+00  0.00000000000E+00  0.26140780684E+04  0.26140780684E+04  0.00000000000E+00 0. -1.
         -2   -1    0    0    0  501 -0.00000000000E+00 -0.00000000000E+00 -0.11622906216E+04  0.11622906216E+04  0.00000000000E+00 0.  1.
         23    2    1    2    0    0  0.10065027227E+04  0.11123540509E+04 -0.23252933204E+03  0.15208638071E+04  0.92615139763E+02 0.  0.
         11    1    3    3    0    0  0.78120080359E+03  0.90741639066E+03 -0.16238155773E+03  0.12083240343E+04  0.00000000000E+00 0.  1.
        -11    1    3    3    0    0  0.22530191909E+03  0.20493766022E+03 -0.70147774311E+02  0.31253977277E+03  0.00000000000E+00 0. -1.
         22    1    1    2    0    0 -0.10065027227E+04 -0.11123540509E+04  0.16843167789E+04  0.22555048829E+04  0.00000000000E+00 0. -1.
<mgrwt>
<rscale>  0 0.34861546E+04</rscale>
<asrwt>0</asrwt>
<pdfrwt beam="1">  1        2 0.40216585E+00 0.34861546E+04</pdfrwt>
<pdfrwt beam="2">  1       -2 0.17881394E+00 0.34861546E+04</pdfrwt>
<totfact> 0.45378484E-01</totfact>
</mgrwt>
</event>
<event>
 6    1  0.1014650E-006  0.3329490E+04  0.7818608E-02  0.8155432E-01
         -1   -1    0    0    0  501 -0.00000000000E+00  0.00000000000E+00  0.11108364241E+04  0.11108364241E+04  0.00000000000E+00 0.  1.
          1   -1    0    0  501    0  0.00000000000E+00 -0.00000000000E+00 -0.24948543646E+04  0.24948543646E+04  0.00000000000E+00 0. -1.
         23    2    1    2    0    0 -0.14360457324E+04  0.52298446677E+03  0.18844122944E+02  0.15311397369E+04  0.91069725267E+02 0.  0.
         13    1    3    3    0    0 -0.89211810266E+03  0.32340548908E+03 -0.32477489242E+02  0.94948438996E+03  0.00000000000E+00 0.  1.
        -13    1    3    3    0    0 -0.54392762971E+03  0.19957897769E+03  0.51321612186E+02  0.58165534690E+03  0.00000000000E+00 0. -1.
         22    1    1    2    0    0  0.14360457324E+04 -0.52298446677E+03 -0.14028620634E+04  0.20745510519E+04  0.00000000000E+00 0. -1.
<mgrwt>
<rscale>  0 0.33294895E+04</rscale>
<asrwt>0</asrwt>
<pdfrwt beam="1">  1        1 0.38382374E+00 0.33294895E+04</pdfrwt>
<pdfrwt beam="2">  1       -1 0.17089791E+00 0.33294895E+04</pdfrwt>
<totfact> 0.27388698E-01</totfact>
</mgrwt>
</event>
<event>
 6    1  0.1014650E-006  0.1054500E+04  0.7818608E-02  0.9250710E-01
          2   -1    0    0  501    0  0.00000000000E+00  0.00000000000E+00  0.65037649184E+03  0.65037649184E+03  0.00000000000E+00 0. -1.
         -2   -1    0    0    0  501 -0.00000000000E+00 -0.00000000000E+00 -0.42743349494E+03  0.42743349494E+03  0.00000000000E+00 0.  1.
         23    2    1    2    0    0 -0.16164275487E+03  0.22384735657E+03  0.56655583514E+03  0.63700866891E+03  0.92512219135E+02 0.  0.
         11    1    3    3    0    0 -0.26484699532E+02  0.97429880179E+02  0.26009073539E+03  0.27900037903E+03  0.00000000000E+00 0. -1.
        -11    1    3    3    0    0 -0.13515805534E+03  0.12641747639E+03  0.30646509974E+03  0.35800828988E+03  0.00000000000E+00 0.  1.
         22    1    1    2    0    0  0.16164275487E+03 -0.22384735657E+03 -0.34361283823E+03  0.44080131788E+03  0.00000000000E+00 0.  1.
<mgrwt>
<rscale>  0 0.10545003E+04</rscale>
<asrwt>0</asrwt>
<pdfrwt beam="1">  1        2 0.10005792E+00 0.10545003E+04</pdfrwt>
<pdfrwt beam="2">  1       -2 0.65758999E-01 0.10545003E+04</pdfrwt>
<totfact> 0.95291978E+01</totfact>
</mgrwt>
</event>
<event>
 6    1  0.1014650E-006  0.4537122E+03  0.7818608E-02  0.1026621E+00
          1   -1    0    0  501    0  0.00000000000E+00  0.00000000000E+00  0.68073850042E+02  0.68073850042E+02  0.00000000000E+00 0. -1.
         -1   -1    0    0    0  501 -0.00000000000E+00 -0.00000000000E+00 -0.75599804536E+03  0.75599804536E+03  0.00000000000E+00 0.  1.
         23    2    1    2    0    0  0.13240675991E+03 -0.31108823378E+02 -0.66665274653E+03  0.68640641862E+03  0.90711510333E+02 0.  0.
         11    1    3    3    0    0  0.10193753561E+03 -0.24852318478E+02 -0.62841957461E+03  0.63711856090E+03  0.00000000000E+00 0.  1.
        -11    1    3    3    0    0  0.30469224302E+02 -0.62565048997E+01 -0.38233171926E+02  0.49287857720E+02  0.00000000000E+00 0. -1.
         22    1    1    2    0    0 -0.13240675991E+03  0.31108823378E+02 -0.21271448783E+02  0.13766547678E+03  0.00000000000E+00 0.  1.
<mgrwt>
<rscale>  0 0.45371223E+03</rscale>
<asrwt>0</asrwt>
<pdfrwt beam="1">  1        1 0.10472900E-01 0.45371223E+03</pdfrwt>
<pdfrwt beam="2">  1       -1 0.11630739E+00 0.45371223E+03</pdfrwt>
<totfact> 0.42830472E+02</totfact>
</mgrwt>
</event>
<event>
 6    1  0.1014650E-006  0.2387843E+04  0.7818608E-02  0.8444069E-01
          1   -1    0    0  501    0  0.00000000000E+00  0.00000000000E+00  0.91161148624E+03  0.91161148624E+03  0.00000000000E+00 0. -1.
         -1   -1    0    0    0  501 -0.00000000000E+00 -0.00000000000E+00 -0.15636585915E+04  0.15636585915E+04  0.00000000000E+00 0.  1.
         23    2    1    2    0    0  0.50349812160E+03 -0.71505913281E+03 -0.11663478985E+04  0.14607134121E+04  0.92175539047E+02 0.  0.
         11    1    3    3    0    0  0.80087455981E+02 -0.14511073580E+03 -0.27577559889E+03  0.32175038025E+03  0.00000000000E+00 0. -1.
        -11    1    3    3    0    0  0.42341066561E+03 -0.56994839701E+03 -0.89057229960E+03  0.11389630318E+04  0.00000000000E+00 0.  1.
         22    1    1    2    0    0 -0.50349812160E+03  0.71505913281E+03  0.51430079327E+03  0.10145566657E+04  0.00000000000E+00 0. -1.
<mgrwt>
<rscale>  0 0.23878435E+04</rscale>
<asrwt>0</asrwt>
<pdfrwt beam="1">  1        1 0.14024792E+00 0.23878435E+04</pdfrwt>
<pdfrwt beam="2">  1       -1 0.24056286E+00 0.23878435E+04</pdfrwt>
<totfact> 0.12836891E+00</totfact>
</mgrwt>
</event>
<event>
 6    1  0.1014650E-006  0.2379808E+04  0.7818608E-02  0.8447102E-01
          2   -1    0    0  501    0  0.00000000000E+00  0.00000000000E+00  0.17893130303E+04  0.17893130303E+04  0.00000000000E+00 0. -1.
         -2   -1    0    0    0  501 -0.00000000000E+00 -0.00000000000E+00 -0.79129328681E+03  0.79129328681E+03  0.00000000000E+00 0.  1.
         23    2    1    2    0    0  0.56220694326E+03  0.61324115228E+03  0.14196477418E+04  0.16479158396E+04  0.89919661269E+02 0.  0.
         13    1    3    3    0    0  0.13419136931E+03  0.12583158058E+03  0.24925518021E+03  0.30978872660E+03  0.00000000000E+00 0. -1.
        -13    1    3    3    0    0  0.42801557395E+03  0.48740957170E+03  0.11703925616E+04  0.13381271130E+04  0.00000000000E+00 0.  1.
         22    1    1    2    0    0 -0.56220694326E+03 -0.61324115228E+03 -0.42162799836E+03  0.93269047754E+03  0.00000000000E+00 0.  1.
<mgrwt>
<rscale>  0 0.23798079E+04</rscale>
<asrwt>0</asrwt>
<pdfrwt beam="1">  1        2 0.27527893E+00 0.23798079E+04</pdfrwt>
<pdfrwt beam="2">  1       -2 0.12173743E+00 0.23798079E+04</pdfrwt>
<totfact> 0.40369137E+00</totfact>
</mgrwt>
</event>
<event>
 6    1  0.1014650E-006  0.3643961E+04  0.7818608E-02  0.8080495E-01
          2   -1    0    0  501    0  0.00000000000E+00  0.00000000000E+00  0.28224246404E+04  0.28224246404E+04  0.00000000000E+00 0. -1.
         -2   -1    0    0    0  501 -0.00000000000E+00 -0.00000000000E+00 -0.11761564611E+04  0.11761564611E+04  0.00000000000E+00 0.  1.
         23    2    1    2    0    0  0.12799853885E+04 -0.12881856616E+04  0.67691108596E+03  0.19400772594E+04  0.88917156360E+02 0.  0.
         11    1    3    3    0    0  0.58267665848E+03 -0.52727357823E+03  0.30781559264E+03  0.84396679657E+03  0.00000000000E+00 0.  1.
        -11    1    3    3    0    0  0.69730872999E+03 -0.76091208338E+03  0.36909549332E+03  0.10961104628E+04  0.00000000000E+00 0. -1.
         22    1    1    2    0    0 -0.12799853885E+04  0.12881856616E+04  0.96935709336E+03  0.20585038421E+04  0.00000000000E+00 0. -1.
<mgrwt>
<rscale>  0 0.36439610E+04</rscale>
<asrwt>0</asrwt>
<pdfrwt beam="1">  1        2 0.43421917E+00 0.36439610E+04</pdfrwt>
<pdfrwt beam="2">  1       -2 0.18094715E+00 0.36439610E+04</pdfrwt>
<totfact> 0.32495229E-01</totfact>
</mgrwt>
</event>
<event>
 6    1  0.1014650E-006  0.1833272E+04  0.7818608E-02  0.8688803E-01
          1   -1    0    0  501    0  0.00000000000E+00  0.00000000000E+00  0.43051547267E+03  0.43051547267E+03  0.00000000000E+00 0. -1.
         -1   -1    0    0    0  501 -0.00000000000E+00 -0.00000000000E+00 -0.19516642601E+04  0.19516642601E+04  0.00000000000E+00 0.  1.
         23    2    1    2    0    0  0.40748423781E+03 -0.67874111783E+03 -0.13570053411E+04  0.15736774260E+04  0.90907844849E+02 0.  0.
         13    1    3    3    0    0  0.19260167756E+03 -0.36519611366E+03 -0.78377661744E+03  0.88587210909E+03  0.00000000000E+00 0.  1.
        -13    1    3    3    0    0  0.21488256025E+03 -0.31354500417E+03 -0.57322872362E+03  0.68780531687E+03  0.00000000000E+00 0. -1.
         22    1    1    2    0    0 -0.40748423781E+03  0.67874111783E+03 -0.16414344637E+03  0.80850230679E+03  0.00000000000E+00 0. -1.
<mgrwt>
<rscale>  0 0.18332721E+04</rscale>
<asrwt>0</asrwt>
<pdfrwt beam="1">  1        1 0.66233149E-01 0.18332721E+04</pdfrwt>
<pdfrwt beam="2">  1       -1 0.30025604E+00 0.18332721E+04</pdfrwt>
<totfact> 0.16846217E+00</totfact>
</mgrwt>
</event>
<event>
 6    1  0.1014650E-006  0.4313185E+04  0.7818608E-02  0.7944185E-01
          2   -1    0    0  501    0  0.00000000000E+00  0.00000000000E+00  0.36188616612E+04  0.36188616612E+04  0.00000000000E+00 0. -1.
         -2   -1    0    0    0  501 -0.00000000000E+00 -0.00000000000E+00 -0.12851809056E+04  0.12851809056E+04  0.00000000000E+00 0.  1.
         23    2    1    2    0    0  0.10450051498E+04  0.13732563596E+04  0.26361868301E+04  0.31520783213E+04  0.90818215230E+02 0.  0.
         11    1    3    3    0    0  0.51072531475E+03  0.59931086352E+03  0.11787997457E+04  0.14175975094E+04  0.00000000000E+00 0. -1.
        -11    1    3    3    0    0  0.53427983504E+03  0.77394549604E+03  0.14573870845E+04  0.17344808119E+04  0.00000000000E+00 0.  1.
         22    1    1    2    0    0 -0.10450051498E+04 -0.13732563596E+04 -0.30250607455E+03  0.17519642454E+04  0.00000000000E+00 0.  1.
<mgrwt>
<rscale>  0 0.43131853E+04</rscale>
<asrwt>0</asrwt>
<pdfrwt beam="1">  1        2 0.55674794E+00 0.43131853E+04</pdfrwt>
<pdfrwt beam="2">  1       -2 0.19772014E+00 0.43131853E+04</pdfrwt>
<totfact> 0.70700304E-02</totfact>
</mgrwt>
</event>
<event>
 6    1  0.1014650E-006  0.3209658E+04  0.7818608E-02  0.8186271E-01
         -2   -1    0    0    0  501 -0.00000000000E+00  0.00000000000E+00  0.11669193067E+04  0.11669193067E+04  0.00000000000E+00 0.  1.
          2   -1    0    0  501    0  0.00000000000E+00 -0.00000000000E+00 -0.22070732249E+04  0.22070732249E+04  0.00000000000E+00 0. -1.
         23    2    1    2    0    0  0.15313192412E+04 -0.44193655126E+03 -0.33528753838E+03  0.16312696199E+04  0.91522159895E+02 0.  0.
         11    1    3    3    0    0  0.35160352411E+03 -0.14165792366E+03 -0.84636930854E+02  0.38840110140E+03  0.00000000000E+00 0.  1.
        -11    1    3    3    0    0  0.11797157171E+04 -0.30027862760E+03 -0.25065060753E+03  0.12428685185E+04  0.00000000000E+00 0. -1.
         22    1    1    2    0    0 -0.15313192412E+04  0.44193655126E+03 -0.70486637977E+03  0.17427229117E+04  0.00000000000E+00 0. -1.
<mgrwt>
<rscale>  0 0.32096581E+04</rscale>
<asrwt>0</asrwt>
<pdfrwt beam="1">  1        2 0.33954972E+00 0.32096581E+04</pdfrwt>
<pdfrwt beam="2">  1       -2 0.17952605E+00 0.32096581E+04</pdfrwt>
<totfact> 0.78655646E-01</totfact>
</mgrwt>
</event>
<event>
 6    1  0.1014650E-006  0.1858877E+04  0.7818608E-02  0.8675601E-01
         -1   -1    0    0    0  501 -0.00000000000E+00  0.00000000000E+00  0.17380933526E+04  0.17380933526E+04  0.00000000000E+00 0.  1.
          1   -1    0    0  501    0  0.00000000000E+00 -0.00000000000E+00 -0.49701356687E+03  0.49701356687E+03  0.00000000000E+00 0. -1.
         23    2    1    2    0    0 -0.22868082310E+03 -0.79835128816E+03  0.12765656698E+03  0.84608893464E+03  0.99551936545E+02 0.  0.
         11    1    3    3    0    0 -0.10666985468E+03 -0.49983879664E+03  0.44331666400E+02  0.51301323294E+03  0.00000000000E+00 0.  1.
        -11    1    3    3    0    0 -0.12201096842E+03 -0.29851249152E+03  0.83324900583E+02  0.33307570170E+03  0.00000000000E+00 0. -1.
         22    1    1    2    0    0  0.22868082310E+03  0.79835128816E+03  0.11134232188E+04  0.13890179849E+04  0.00000000000E+00 0. -1.
<mgrwt>
<rscale>  0 0.18588771E+04</rscale>
<asrwt>0</asrwt>
<pdfrwt beam="1">  1        1 0.76463626E-01 0.18588771E+04</pdfrwt>
<pdfrwt beam="2">  1       -1 0.26739898E+00 0.18588771E+04</pdfrwt>
<totfact> 0.22546503E+00</totfact>
</mgrwt>
</event>
<event>
 6    1  0.1014650E-006  0.3961312E+04  0.7818608E-02  0.8012397E-01
          2   -1    0    0  501    0  0.00000000000E+00  0.00000000000E+00  0.38023289957E+04  0.38023289957E+04  0.00000000000E+00 0. -1.
         -2   -1    0    0    0  501 -0.00000000000E+00 -0.00000000000E+00 -0.10317356571E+04  0.10317356571E+04  0.00000000000E+00 0.  1.
         23    2    1    2    0    0  0.18903919573E+04  0.27789496970E+03  0.75426689883E+03  0.20562274224E+04  0.91352567387E+02 0.  0.
         13    1    3    3    0    0  0.98474197170E+03  0.12708739453E+03  0.43718205614E+03  0.10848945142E+04  0.00000000000E+00 0.  1.
        -13    1    3    3    0    0  0.90564998561E+03  0.15080757517E+03  0.31708484269E+03  0.97133290824E+03  0.00000000000E+00 0. -1.
         22    1    1    2    0    0 -0.18903919573E+04 -0.27789496970E+03  0.20163264399E+04  0.27778372304E+04  0.00000000000E+00 0. -1.
<mgrwt>
<rscale>  0 0.39613121E+04</rscale>
<asrwt>0</asrwt>
<pdfrwt beam="1">  1        2 0.58497368E+00 0.39613121E+04</pdfrwt>
<pdfrwt beam="2">  1       -2 0.15872856E+00 0.39613121E+04</pdfrwt>
<totfact> 0.99357387E-02</totfact>
</mgrwt>
</event>
<event>
 6    1  0.1014650E-006  0.2654071E+04  0.7818608E-02  0.8350063E-01
          1   -1    0    0  501    0  0.00000000000E+00  0.00000000000E+00  0.22688464936E+04  0.22688464936E+04  0.00000000000E+00 0. -1.
         -1   -1    0    0    0  501 -0.00000000000E+00 -0.00000000000E+00 -0.77617569388E+03  0.77617569388E+03  0.00000000000E+00 0.  1.
         23    2    1    2    0    0  0.11834255872E+04 -0.12680871954E+03  0.77796516610E+02  0.11961182395E+04  0.89833029335E+02 0.  0.
         11    1    3    3    0    0  0.79835949846E+03 -0.11989517049E+03  0.77144631241E+02  0.81098954051E+03  0.00000000000E+00 0.  1.
        -11    1    3    3    0    0  0.38506608873E+03 -0.69135490545E+01  0.65188536911E+00  0.38512869901E+03  0.00000000000E+00 0. -1.
         22    1    1    2    0    0 -0.11834255872E+04  0.12680871954E+03  0.14148742831E+04  0.18489039479E+04  0.00000000000E+00 0. -1.
<mgrwt>
<rscale>  0 0.26540712E+04</rscale>
<asrwt>0</asrwt>
<pdfrwt beam="1">  1        1 0.34905330E+00 0.26540712E+04</pdfrwt>
<pdfrwt beam="2">  1       -1 0.11941165E+00 0.26540712E+04</pdfrwt>
<totfact> 0.10734505E+00</totfact>
</mgrwt>
</event>
<event>
 6    1  0.1014650E-006  0.1488278E+04  0.7818608E-02  0.8892286E-01
          2   -1    0    0  501    0  0.00000000000E+00  0.00000000000E+00  0.14350919734E+04  0.14350919734E+04  0.00000000000E+00 0. -1.
         -2   -1    0    0    0  501 -0.00000000000E+00 -0.00000000000E+00 -0.38585880921E+03  0.38585880921E+03  0.00000000000E+00 0.  1.
         23    2    1    2    0    0 -0.54226670082E+03 -0.48982647173E+03  0.37430970585E+03  0.82621221301E+03  0.92388948517E+02 0.  0.
         11    1    3    3    0    0 -0.46979117767E+03 -0.45231234213E+03  0.35436018207E+03  0.74220033959E+03  0.00000000000E+00 0. -1.
        -11    1    3    3    0    0 -0.72475523148E+02 -0.37514129602E+02  0.19949523776E+02  0.84011873412E+02  0.00000000000E+00 0.  1.
         22    1    1    2    0    0  0.54226670082E+03  0.48982647173E+03  0.67492345831E+03  0.99473856957E+03  0.00000000000E+00 0. -1.
<mgrwt>
<rscale>  0 0.14882780E+04</rscale>
<asrwt>0</asrwt>
<pdfrwt beam="1">  1        2 0.22078338E+00 0.14882780E+04</pdfrwt>
<pdfrwt beam="2">  1       -2 0.59362895E-01 0.14882780E+04</pdfrwt>
<totfact> 0.35392985E+01</totfact>
</mgrwt>
</event>
<event>
 6    1  0.1014650E-006  0.2294000E+04  0.7818608E-02  0.8480290E-01
          2   -1    0    0  501    0  0.00000000000E+00  0.00000000000E+00  0.20386255412E+04  0.20386255412E+04  0.00000000000E+00 0. -1.
         -2   -1    0    0    0  501 -0.00000000000E+00 -0.00000000000E+00 -0.64534131969E+03  0.64534131969E+03  0.00000000000E+00 0.  1.
         23    2    1    2    0    0  0.35880840679E+03  0.53082340335E+03  0.18083272462E+04  0.19205680984E+04  0.89540119995E+02 0.  0.
         13    1    3    3    0    0  0.62284542752E+02  0.11159144205E+03  0.26817943031E+03  0.29707275380E+03  0.00000000000E+00 0.  1.
        -13    1    3    3    0    0  0.29652386404E+03  0.41923196130E+03  0.15401478158E+04  0.16234953446E+04  0.00000000000E+00 0. -1.
         22    1    1    2    0    0 -0.35880840679E+03 -0.53082340335E+03 -0.41504302462E+03  0.76339876252E+03  0.00000000000E+00 0.  1.
<mgrwt>
<rscale>  0 0.22940003E+04</rscale>
<asrwt>0</asrwt>
<pdfrwt beam="1">  1        2 0.31363470E+00 0.22940003E+04</pdfrwt>
<pdfrwt beam="2">  1       -2 0.99283281E-01 0.22940003E+04</pdfrwt>
<totfact> 0.48453026E+00</totfact>
</mgrwt>
</event>
<event>
 6    1  0.1014650E-006  0.1183238E+04  0.7818608E-02  0.9127656E-01
         -1   -1    0    0    0  501 -0.00000000000E+00  0.00000000000E+00  0.73720242187E+03  0.73720242187E+03  0.00000000000E+00 0.  1.
          1   -1    0    0  501    0  0.00000000000E+00 -0.00000000000E+00 -0.47478582277E+03  0.47478582277E+03  0.00000000000E+00 0. -1.
         23    2    1    2    0    0  0.55359874713E+03  0.23135303928E+02  0.33391249368E+03  0.65331259808E+03  0.91175557382E+02 0.  0.
         13    1    3    3    0    0  0.23393128392E+03  0.24636366294E+02  0.19165214219E+03  0.30341611649E+03  0.00000000000E+00 0. -1.
        -13    1    3    3    0    0  0.31966746321E+03 -0.15010623663E+01  0.14226035149E+03  0.34989648159E+03  0.00000000000E+00 0.  1.
         22    1    1    2    0    0 -0.55359874713E+03 -0.23135303928E+02 -0.71495894575E+02  0.55867564656E+03  0.00000000000E+00 0. -1.
<mgrwt>
<rscale>  0 0.11832384E+04</rscale>
<asrwt>0</asrwt>
<pdfrwt beam="1">  1        1 0.73043973E-01 0.11832384E+04</pdfrwt>
<pdfrwt beam="2">  1       -1 0.11341576E+00 0.11832384E+04</pdfrwt>
<totfact> 0.33481745E+01</totfact>
</mgrwt>
</event>
<event>
 6    1  0.1014650E-006  0.3127650E+04  0.7818608E-02  0.8208190E-01
          1   -1    0    0  501    0  0.00000000000E+00  0.00000000000E+00  0.21683776366E+04  0.21683776366E+04  0.00000000000E+00 0. -1.
         -1   -1    0    0    0  501 -0.00000000000E+00 -0.00000000000E+00 -0.11278244888E+04  0.11278244888E+04  0.00000000000E+00 0.  1.
         23    2    1    2    0    0  0.50282520554E+03  0.67385759442E+03 -0.86717665480E+03  0.12114119095E+04  0.92769709376E+02 0.  0.
         13    1    3    3    0    0  0.46480876639E+03  0.62174166608E+03 -0.83211172583E+03  0.11379893729E+04  0.00000000000E+00 0.  1.
        -13    1    3    3    0    0  0.38016439150E+02  0.52115928341E+02 -0.35064928967E+02  0.73422536567E+02  0.00000000000E+00 0. -1.
         22    1    1    2    0    0 -0.50282520554E+03 -0.67385759442E+03  0.19077298026E+04  0.20847902160E+04  0.00000000000E+00 0. -1.
<mgrwt>
<rscale>  0 0.31276505E+04</rscale>
<asrwt>0</asrwt>
<pdfrwt beam="1">  1        1 0.33359656E+00 0.31276505E+04</pdfrwt>
<pdfrwt beam="2">  1       -1 0.17351146E+00 0.31276505E+04</pdfrwt>
<totfact> 0.44694204E-01</totfact>
</mgrwt>
</event>
<event>
 6    1  0.1014650E-006  0.1418986E+04  0.7818608E-02  0.8940189E-01
         -2   -1    0    0    0  501 -0.00000000000E+00  0.00000000000E+00  0.24874757455E+03  0.24874757455E+03  0.00000000000E+00 0.  1.
          2   -1    0    0  501    0  0.00000000000E+00 -0.00000000000E+00 -0.20236600918E+04  0.20236600918E+04  0.00000000000E+00 0. -1.
         23    2    1    2    0    0  0.16652127698E+03 -0.42560481642E+03 -0.28060489858E+02  0.46676074598E+03  0.90605780459E+02 0.  0.
         11    1    3    3    0    0  0.76568631494E+02 -0.15074274687E+03  0.30182896374E+02  0.17174730943E+03  0.00000000000E+00 0. -1.
        -11    1    3    3    0    0  0.89952645487E+02 -0.27486206955E+03 -0.58243386232E+02  0.29501343655E+03  0.00000000000E+00 0.  1.
         22    1    1    2    0    0 -0.16652127698E+03  0.42560481642E+03 -0.17468520274E+04  0.18056469204E+04  0.00000000000E+00 0. -1.
<mgrwt>
<rscale>  0 0.14189863E+04</rscale>
<asrwt>0</asrwt>
<pdfrwt beam="1">  1        2 0.31133234E+00 0.14189863E+04</pdfrwt>
<pdfrwt beam="2">  1       -2 0.38268856E-01 0.14189863E+04</pdfrwt>
<totfact> 0.40647984E+01</totfact>
</mgrwt>
</event>
<event>
 6    1  0.1014650E-006  0.3301347E+04  0.7818608E-02  0.8162553E-01
          1   -1    0    0  501    0  0.00000000000E+00  0.00000000000E+00  0.16523352366E+04  0.16523352366E+04  0.00000000000E+00 0. -1.
         -1   -1    0    0    0  501 -0.00000000000E+00 -0.00000000000E+00 -0.16490135839E+04  0.16490135839E+04  0.00000000000E+00 0.  1.
         23    2    1    2    0    0  0.49749898835E+03 -0.15251335065E+04  0.38534152450E+03  0.16522652452E+04  0.89190212533E+02 0.  0.
         13    1    3    3    0    0  0.28949221894E+02 -0.17420218096E+03  0.51186032356E+02  0.18385991191E+03  0.00000000000E+00 0. -1.
        -13    1    3    3    0    0  0.46854976646E+03 -0.13509313255E+04  0.33415549214E+03  0.14684053333E+04  0.00000000000E+00 0.  1.
         22    1    1    2    0    0 -0.49749898835E+03  0.15251335065E+04 -0.38201987185E+03  0.16490835753E+04  0.00000000000E+00 0. -1.
<mgrwt>
<rscale>  0 0.33013471E+04</rscale>
<asrwt>0</asrwt>
<pdfrwt beam="1">  1        1 0.25420542E+00 0.33013471E+04</pdfrwt>
<pdfrwt beam="2">  1       -1 0.25369440E+00 0.33013471E+04</pdfrwt>
<totfact> 0.28106447E-01</totfact>
</mgrwt>
</event>
<event>
 6    1  0.1014650E-006  0.2024181E+04  0.7818608E-02  0.8595398E-01
          1   -1    0    0  501    0  0.00000000000E+00  0.00000000000E+00  0.19699512719E+04  0.19699512719E+04  0.00000000000E+00 0. -1.
         -1   -1    0    0    0  501 -0.00000000000E+00 -0.00000000000E+00 -0.51997593319E+03  0.51997593319E+03  0.00000000000E+00 0.  1.
         23    2    1    2    0    0 -0.67145094691E+03  0.47934147748E+03  0.94307539149E+01  0.82987198705E+03  0.89352949734E+02 0.  0.
         11    1    3    3    0    0 -0.33302734410E+03  0.18778222049E+03  0.22525912332E+02  0.38298406100E+03  0.00000000000E+00 0. -1.
        -11    1    3    3    0    0 -0.33842360280E+03  0.29155925699E+03 -0.13095158417E+02  0.44688792605E+03  0.00000000000E+00 0.  1.
         22    1    1    2    0    0  0.67145094691E+03 -0.47934147748E+03  0.14405445848E+04  0.16600552180E+04  0.00000000000E+00 0. -1.
<mgrwt>
<rscale>  0 0.20241811E+04</rscale>
<asrwt>0</asrwt>
<pdfrwt beam="1">  1        1 0.30306942E+00 0.20241811E+04</pdfrwt>
<pdfrwt beam="2">  1       -1 0.79996299E-01 0.20241811E+04</pdfrwt>
<totfact> 0.45101482E+00</totfact>
</mgrwt>
</event>
<event>
 6    1  0.1150477E-006  0.5039633E+04  0.7818608E-02  0.7822422E-01
         -1   -1    0    0    0  501 -0.00000000000E+00  0.00000000000E+00  0.19259099685E+04  0.19259099685E+04  0.00000000000E+00 0.  1.
          1   -1    0    0  501    0  0.00000000000E+00 -0.00000000000E+00 -0.32968701957E+04  0.32968701957E+04  0.00000000000E+00 0. -1.
         23    2    1    2    0    0 -0.85014322023E+03 -0.13389153945E+03  0.17677261734E+04  0.19682413703E+04  0.91912068246E+02 0.  0.
         13    1    3    3    0    0 -0.35285484022E+03 -0.30370917797E+02  0.81328554231E+03  0.88705259385E+03  0.00000000000E+00 0. -1.
        -13    1    3    3    0    0 -0.49728838001E+03 -0.10352062166E+03  0.95444063111E+03  0.10811887764E+04  0.00000000000E+00 0.  1.
         22    1    1    2    0    0  0.85014322023E+03  0.13389153945E+03 -0.31386864007E+04  0.32545387939E+04  0.00000000000E+00 0. -1.
<mgrwt>
<rscale>  0 0.50396330E+04</rscale>
<asrwt>0</asrwt>
<pdfrwt beam="1">  1        1 0.50721079E+00 0.50396330E+04</pdfrwt>
<pdfrwt beam="2">  1       -1 0.29629385E+00 0.50396330E+04</pdfrwt>
<totfact> 0.90152805E-03</totfact>
</mgrwt>
</event>
<event>
 6    1  0.1014650E-006  0.7606355E+03  0.7818608E-02  0.9618811E-01
         -1   -1    0    0    0  501 -0.00000000000E+00  0.00000000000E+00  0.17259426616E+03  0.17259426616E+03  0.00000000000E+00 0.  1.
          1   -1    0    0  501    0  0.00000000000E+00 -0.00000000000E+00 -0.83804398520E+03  0.83804398520E+03  0.00000000000E+00 0. -1.
         23    2    1    2    0    0 -0.29951312786E+03 -0.15455064937E+03 -0.55557553005E+03  0.65614374592E+03  0.90919902823E+02 0.  0.
         13    1    3    3    0    0 -0.24994296051E+03 -0.11322260662E+03 -0.37714636841E+03  0.46640135652E+03  0.00000000000E+00 0.  1.
        -13    1    3    3    0    0 -0.49570167348E+02 -0.41328042751E+02 -0.17842916165E+03  0.18974238940E+03  0.00000000000E+00 0. -1.
         22    1    1    2    0    0  0.29951312786E+03  0.15455064937E+03 -0.10987418898E+03  0.35449450544E+03  0.00000000000E+00 0.  1.
<mgrwt>
<rscale>  0 0.76063549E+03</rscale>
<asrwt>0</asrwt>
<pdfrwt beam="1">  1        1 0.12892984E+00 0.76063549E+03</pdfrwt>
<pdfrwt beam="2">  1       -1 0.26552965E-01 0.76063549E+03</pdfrwt>
<totfact> 0.26152321E+02</totfact>
</mgrwt>
</event>
<event>
 6    1  0.1014650E-006  0.1530182E+04  0.7818608E-02  0.8864627E-01
          1   -1    0    0  501    0  0.00000000000E+00  0.00000000000E+00  0.72259739623E+03  0.72259739623E+03  0.00000000000E+00 0. -1.
         -1   -1    0    0    0  501 -0.00000000000E+00 -0.00000000000E+00 -0.81008334445E+03  0.81008334445E+03  0.00000000000E+00 0.  1.
         23    2    1    2    0    0  0.14045477165E+03 -0.83283009241E+02  0.70177704273E+03  0.72670327736E+03  0.94567611294E+02 0.  0.
         11    1    3    3    0    0  0.49444758787E+02  0.26082701524E+01  0.34674273157E+03  0.35026005930E+03  0.00000000000E+00 0.  1.
        -11    1    3    3    0    0  0.91010012860E+02 -0.85891279394E+02  0.35503431117E+03  0.37644321806E+03  0.00000000000E+00 0. -1.
         22    1    1    2    0    0 -0.14045477165E+03  0.83283009241E+02 -0.78926299095E+03  0.80597746333E+03  0.00000000000E+00 0.  1.
<mgrwt>
<rscale>  0 0.15301818E+04</rscale>
<asrwt>0</asrwt>
<pdfrwt beam="1">  1        1 0.11116883E+00 0.15301818E+04</pdfrwt>
<pdfrwt beam="2">  1       -1 0.12462821E+00 0.15301818E+04</pdfrwt>
<totfact> 0.14121936E+01</totfact>
</mgrwt>
</event>
<event>
 6    1  0.1014650E-006  0.2092592E+04  0.7818608E-02  0.8564514E-01
         -1   -1    0    0    0  501 -0.00000000000E+00  0.00000000000E+00  0.13678201174E+04  0.13678201174E+04  0.00000000000E+00 0.  1.
          1   -1    0    0  501    0  0.00000000000E+00 -0.00000000000E+00 -0.80035055758E+03  0.80035055758E+03  0.00000000000E+00 0. -1.
         23    2    1    2    0    0  0.27569182660E+03 -0.10012605399E+04  0.39750249553E+03  0.11158316350E+04  0.92430253589E+02 0.  0.
         13    1    3    3    0    0  0.20243812873E+03 -0.64209027623E+03  0.29622233662E+03  0.73553299824E+03  0.00000000000E+00 0. -1.
        -13    1    3    3    0    0  0.73253697874E+02 -0.35917026367E+03  0.10128015891E+03  0.38029863679E+03  0.00000000000E+00 0.  1.
         22    1    1    2    0    0 -0.27569182660E+03  0.10012605399E+04  0.16996706429E+03  0.10523390399E+04  0.00000000000E+00 0. -1.
<mgrwt>
<rscale>  0 0.20925923E+04</rscale>
<asrwt>0</asrwt>
<pdfrwt beam="1">  1        1 0.12313085E+00 0.20925923E+04</pdfrwt>
<pdfrwt beam="2">  1       -1 0.21043386E+00 0.20925923E+04</pdfrwt>
<totfact> 0.25959575E+00</totfact>
</mgrwt>
</event>
<event>
 6    1  0.1093999E-006  0.3366546E+04  0.7818608E-02  0.8146166E-01
         -2   -1    0    0    0  501 -0.00000000000E+00  0.00000000000E+00  0.18205268226E+04  0.18205268226E+04  0.00000000000E+00 0.  1.
          2   -1    0    0  501    0  0.00000000000E+00 -0.00000000000E+00 -0.15563669740E+04  0.15563669740E+04  0.00000000000E+00 0. -1.
         23    2    1    2    0    0 -0.46176663660E+03  0.77391102383E+03  0.15567828906E+04  0.18011269902E+04  0.91207273967E+02 0.  0.
         11    1    3    3    0    0 -0.17706275962E+03  0.23473607185E+03  0.56451123531E+03  0.63649444543E+03  0.00000000000E+00 0. -1.
        -11    1    3    3    0    0 -0.28470387698E+03  0.53917495198E+03  0.99227165526E+03  0.11646325447E+04  0.00000000000E+00 0.  1.
         22    1    1    2    0    0  0.46176663660E+03 -0.77391102383E+03 -0.12926230420E+04  0.15757668064E+04  0.00000000000E+00 0. -1.
<mgrwt>
<rscale>  0 0.33665459E+04</rscale>
<asrwt>0</asrwt>
<pdfrwt beam="1">  1        2 0.23944107E+00 0.33665459E+04</pdfrwt>
<pdfrwt beam="2">  1       -2 0.28008105E+00 0.33665459E+04</pdfrwt>
<totfact> 0.41225861E-01</totfact>
</mgrwt>
</event>
<event>
 6    1  0.1014650E-006  0.5378298E+04  0.7818608E-02  0.7772661E-01
          2   -1    0    0  501    0  0.00000000000E+00  0.00000000000E+00  0.50594648717E+04  0.50594648717E+04  0.00000000000E+00 0. -1.
         -2   -1    0    0    0  501 -0.00000000000E+00 -0.00000000000E+00 -0.14293056865E+04  0.14293056865E+04  0.00000000000E+00 0.  1.
         23    2    1    2    0    0  0.23473360554E+04  0.28617453877E+03  0.27269542610E+03  0.23821362528E+04  0.91257372096E+02 0.  0.
         13    1    3    3    0    0  0.10009432488E+04  0.96623969540E+02  0.15361318025E+03  0.10172613174E+04  0.00000000000E+00 0. -1.
        -13    1    3    3    0    0  0.13463928066E+04  0.18955056923E+03  0.11908224586E+03  0.13648749354E+04  0.00000000000E+00 0.  1.
         22    1    1    2    0    0 -0.23473360554E+04 -0.28617453877E+03  0.33574637591E+04  0.41066343053E+04  0.00000000000E+00 0. -1.
<mgrwt>
<rscale>  0 0.53782978E+04</rscale>
<asrwt>0</asrwt>
<pdfrwt beam="1">  1        2 0.77837920E+00 0.53782978E+04</pdfrwt>
<pdfrwt beam="2">  1       -2 0.21989319E+00 0.53782978E+04</pdfrwt>
<totfact> 0.19725402E-03</totfact>
</mgrwt>
</event>
<event>
 6    1  0.1014650E-006  0.4831403E+04  0.7818608E-02  0.7855054E-01
          2   -1    0    0  501    0  0.00000000000E+00  0.00000000000E+00  0.26208525695E+04  0.26208525695E+04  0.00000000000E+00 0. -1.
         -2   -1    0    0    0  501 -0.00000000000E+00 -0.00000000000E+00 -0.22266090940E+04  0.22266090940E+04  0.00000000000E+00 0.  1.
         23    2    1    2    0    0  0.78201490509E+03 -0.93978776772E+03  0.22865636032E+04  0.25945471453E+04  0.92484688609E+02 0.  0.
         13    1    3    3    0    0  0.32820719696E+03 -0.41743409898E+03  0.90172380329E+03  0.10464592723E+04  0.00000000000E+00 0.  1.
        -13    1    3    3    0    0  0.45380770813E+03 -0.52235366874E+03  0.13848397999E+04  0.15480878730E+04  0.00000000000E+00 0. -1.
         22    1    1    2    0    0 -0.78201490509E+03  0.93978776772E+03 -0.18923201277E+04  0.22529145181E+04  0.00000000000E+00 0.  1.
<mgrwt>
<rscale>  0 0.48314032E+04</rscale>
<asrwt>0</asrwt>
<pdfrwt beam="1">  1        2 0.40320809E+00 0.48314032E+04</pdfrwt>
<pdfrwt beam="2">  1       -2 0.34255524E+00 0.48314032E+04</pdfrwt>
<totfact> 0.37827407E-02</totfact>
</mgrwt>
</event>
<event>
 6    1  0.1014650E-006  0.4322147E+03  0.7818608E-02  0.1033163E+00
          2   -1    0    0  501    0  0.00000000000E+00  0.00000000000E+00  0.55997281868E+03  0.55997281868E+03  0.00000000000E+00 0. -1.
         -2   -1    0    0    0  501 -0.00000000000E+00 -0.00000000000E+00 -0.83401158449E+02  0.83401158449E+02  0.00000000000E+00 0.  1.
         23    2    1    2    0    0  0.44311523966E+02 -0.82988927235E+02 -0.26837748838E+02  0.13124927909E+03  0.87495344448E+02 0.  0.
         11    1    3    3    0    0  0.56362718851E+01 -0.14258844269E+02 -0.47342023878E+02  0.49762932244E+02  0.00000000000E+00 0. -1.
        -11    1    3    3    0    0  0.38675252081E+02 -0.68730082966E+02  0.20504275040E+02  0.81486346850E+02  0.00000000000E+00 0.  1.
         22    1    1    2    0    0 -0.44311523966E+02  0.82988927235E+02  0.50340940907E+03  0.51212469804E+03  0.00000000000E+00 0. -1.
<mgrwt>
<rscale>  0 0.43221468E+03</rscale>
<asrwt>0</asrwt>
<pdfrwt beam="1">  1        2 0.86149662E-01 0.43221468E+03</pdfrwt>
<pdfrwt beam="2">  1       -2 0.12830948E-01 0.43221468E+03</pdfrwt>
<totfact> 0.24378462E+03</totfact>
</mgrwt>
</event>
<event>
 6    1  0.1014650E-006  0.2781131E+04  0.7818608E-02  0.8309151E-01
          2   -1    0    0  501    0  0.00000000000E+00  0.00000000000E+00  0.19033697181E+04  0.19033697181E+04  0.00000000000E+00 0. -1.
         -2   -1    0    0    0  501 -0.00000000000E+00 -0.00000000000E+00 -0.10159203551E+04  0.10159203551E+04  0.00000000000E+00 0.  1.
         23    2    1    2    0    0  0.11124255006E+04 -0.80831885316E+03  0.65063364257E+03  0.15239580166E+04  0.90851728785E+02 0.  0.
         13    1    3    3    0    0  0.44323660876E+03 -0.31546350889E+03  0.30647345134E+03  0.62442124657E+03  0.00000000000E+00 0.  1.
        -13    1    3    3    0    0  0.66918889187E+03 -0.49285534427E+03  0.34416019123E+03  0.89953677001E+03  0.00000000000E+00 0. -1.
         22    1    1    2    0    0 -0.11124255006E+04  0.80831885316E+03  0.23681572038E+03  0.13953320566E+04  0.00000000000E+00 0. -1.
<mgrwt>
<rscale>  0 0.27811307E+04</rscale>
<asrwt>0</asrwt>
<pdfrwt beam="1">  1        2 0.29282611E+00 0.27811307E+04</pdfrwt>
<pdfrwt beam="2">  1       -2 0.15629544E+00 0.27811307E+04</pdfrwt>
<totfact> 0.17689451E+00</totfact>
</mgrwt>
</event>
<event>
 6    1  0.1014650E-006  0.3938612E+04  0.7818608E-02  0.8017046E-01
          2   -1    0    0  501    0  0.00000000000E+00  0.00000000000E+00  0.11741179874E+04  0.11741179874E+04  0.00000000000E+00 0. -1.
         -2   -1    0    0    0  501 -0.00000000000E+00 -0.00000000000E+00 -0.33030459932E+04  0.33030459932E+04  0.00000000000E+00 0.  1.
         23    2    1    2    0    0 -0.18283433584E+04 -0.65929998532E+03 -0.71201459616E+03  0.20719281259E+04  0.91681333574E+02 0.  0.
         11    1    3    3    0    0 -0.96499627171E+03 -0.30957497679E+03 -0.34101563991E+03  0.10692736494E+04  0.00000000000E+00 0. -1.
        -11    1    3    3    0    0 -0.86334708664E+03 -0.34972500853E+03 -0.37099895624E+03  0.10026544764E+04  0.00000000000E+00 0.  1.
         22    1    1    2    0    0  0.18283433584E+04  0.65929998532E+03 -0.14169134097E+04  0.24052358548E+04  0.00000000000E+00 0.  1.
<mgrwt>
<rscale>  0 0.39386118E+04</rscale>
<asrwt>0</asrwt>
<pdfrwt beam="1">  1        2 0.18063354E+00 0.39386118E+04</pdfrwt>
<pdfrwt beam="2">  1       -2 0.50816092E+00 0.39386118E+04</pdfrwt>
<totfact> 0.22897603E-02</totfact>
</mgrwt>
</event>
<event>
 6    1  0.1014650E-006  0.2799779E+04  0.7818608E-02  0.8303337E-01
         -2   -1    0    0    0  501 -0.00000000000E+00  0.00000000000E+00  0.69028427853E+03  0.69028427853E+03  0.00000000000E+00 0.  1.
          2   -1    0    0  501    0  0.00000000000E+00 -0.00000000000E+00 -0.28389609468E+04  0.28389609468E+04  0.00000000000E+00 0. -1.
         23    2    1    2    0    0 -0.11096836257E+04  0.86512621945E+02 -0.84775154749E+01  0.11169155222E+04  0.92445836608E+02 0.  0.
         13    1    3    3    0    0 -0.52545956043E+03  0.76123488746E+02 -0.34088188907E+02  0.53203809996E+03  0.00000000000E+00 0. -1.
        -13    1    3    3    0    0 -0.58422406523E+03  0.10389133200E+02  0.25610673432E+02  0.58487742226E+03  0.00000000000E+00 0.  1.
         22    1    1    2    0    0  0.11096836257E+04 -0.86512621945E+02 -0.21401991528E+04  0.24123297031E+04  0.00000000000E+00 0. -1.
<mgrwt>
<rscale>  0 0.27997786E+04</rscale>
<asrwt>0</asrwt>
<pdfrwt beam="1">  1        2 0.43676322E+00 0.27997786E+04</pdfrwt>
<pdfrwt beam="2">  1       -2 0.10619758E+00 0.27997786E+04</pdfrwt>
<totfact> 0.13624453E+00</totfact>
</mgrwt>
</event>
<event>
 6    1  0.1014650E-006  0.2807953E+04  0.7818608E-02  0.8300803E-01
         -2   -1    0    0    0  501 -0.00000000000E+00  0.00000000000E+00  0.14238628307E+04  0.14238628307E+04  0.00000000000E+00 0.  1.
          2   -1    0    0  501    0  0.00000000000E+00 -0.00000000000E+00 -0.13843681872E+04  0.13843681872E+04  0.00000000000E+00 0. -1.
         23    2    1    2    0    0  0.43334802808E+02  0.77656159491E+03 -0.11473977200E+04  0.13892034289E+04  0.91863067397E+02 0.  0.
         11    1    3    3    0    0 -0.23832156600E+02  0.32136677588E+03 -0.50376350418E+03  0.59801525438E+03  0.00000000000E+00 0.  1.
        -11    1    3    3    0    0  0.67166959407E+02  0.45519481903E+03 -0.64363421581E+03  0.79118817450E+03  0.00000000000E+00 0. -1.
         22    1    1    2    0    0 -0.43334802808E+02 -0.77656159491E+03  0.11868923635E+04  0.14190275890E+04  0.00000000000E+00 0.  1.
<mgrwt>
<rscale>  0 0.28079533E+04</rscale>
<asrwt>0</asrwt>
<pdfrwt beam="1">  1        2 0.21297972E+00 0.28079533E+04</pdfrwt>
<pdfrwt beam="2">  1       -2 0.21905582E+00 0.28079533E+04</pdfrwt>
<totfact> 0.12873486E+00</totfact>
</mgrwt>
</event>
<event>
 6    1  0.1014650E-006  0.1354924E+04  0.7818608E-02  0.8987109E-01
         -2   -1    0    0    0  501 -0.00000000000E+00  0.00000000000E+00  0.32403367284E+03  0.32403367284E+03  0.00000000000E+00 0.  1.
          2   -1    0    0  501    0  0.00000000000E+00 -0.00000000000E+00 -0.14163804919E+04  0.14163804919E+04  0.00000000000E+00 0. -1.
         23    2    1    2    0    0  0.62140134012E+02  0.24385205277E+03  0.25457405920E+03  0.37018751481E+03  0.94369616964E+02 0.  0.
         11    1    3    3    0    0  0.70380780467E+02  0.22233538972E+03  0.18740765506E+03  0.29917905835E+03  0.00000000000E+00 0.  1.
        -11    1    3    3    0    0 -0.82406464559E+01  0.21516663053E+02  0.67166404149E+02  0.71008456463E+02  0.00000000000E+00 0. -1.
         22    1    1    2    0    0 -0.62140134012E+02 -0.24385205277E+03 -0.13469208783E+04  0.13702266500E+04  0.00000000000E+00 0. -1.
<mgrwt>
<rscale>  0 0.13549243E+04</rscale>
<asrwt>0</asrwt>
<pdfrwt beam="1">  1        2 0.21790469E+00 0.13549243E+04</pdfrwt>
<pdfrwt beam="2">  1       -2 0.49851335E-01 0.13549243E+04</pdfrwt>
<totfact> 0.52633984E+01</totfact>
</mgrwt>
</event>
<event>
 6    1  0.1014650E-006  0.4106301E+04  0.7818608E-02  0.7983439E-01
         -2   -1    0    0    0  501 -0.00000000000E+00  0.00000000000E+00  0.24459343890E+04  0.24459343890E+04  0.00000000000E+00 0.  1.
          2   -1    0    0  501    0  0.00000000000E+00 -0.00000000000E+00 -0.17234422069E+04  0.17234422069E+04  0.00000000000E+00 0. -1.
         23    2    1    2    0    0  0.19882206546E+04 -0.32201204756E+03  0.76098330438E+03  0.21548804562E+04  0.87755686634E+02 0.  0.
         13    1    3    3    0    0  0.22918963559E+03 -0.33796795969E+02  0.11783641390E+03  0.25991447232E+03  0.00000000000E+00 0. -1.
        -13    1    3    3    0    0  0.17590310190E+04 -0.28821525159E+03  0.64314689048E+03  0.18949659839E+04  0.00000000000E+00 0.  1.
         22    1    1    2    0    0 -0.19882206546E+04  0.32201204756E+03 -0.38491122292E+02  0.20144961397E+04  0.00000000000E+00 0. -1.
<mgrwt>
<rscale>  0 0.41063008E+04</rscale>
<asrwt>0</asrwt>
<pdfrwt beam="1">  1        2 0.26514495E+00 0.41063008E+04</pdfrwt>
<pdfrwt beam="2">  1       -2 0.37629760E+00 0.41063008E+04</pdfrwt>
<totfact> 0.78710548E-02</totfact>
</mgrwt>
</event>
<event>
 6    1  0.1014650E-006  0.1552881E+04  0.7818608E-02  0.8850030E-01
          2   -1    0    0  501    0  0.00000000000E+00  0.00000000000E+00  0.33631116343E+03  0.33631116343E+03  0.00000000000E+00 0. -1.
         -2   -1    0    0    0  501 -0.00000000000E+00 -0.00000000000E+00 -0.17925645460E+04  0.17925645460E+04  0.00000000000E+00 0.  1.
         23    2    1    2    0    0  0.64732986515E+03 -0.27256840650E+03 -0.11755869425E+04  0.13725007091E+04  0.91782605432E+02 0.  0.
         11    1    3    3    0    0  0.32255757330E+03 -0.93530327113E+02 -0.60554955499E+03  0.69244608002E+03  0.00000000000E+00 0. -1.
        -11    1    3    3    0    0  0.32477229185E+03 -0.17903807938E+03 -0.57003738751E+03  0.68005462912E+03  0.00000000000E+00 0.  1.
         22    1    1    2    0    0 -0.64732986515E+03  0.27256840650E+03 -0.28066644012E+03  0.75637500035E+03  0.00000000000E+00 0. -1.
<mgrwt>
<rscale>  0 0.15528805E+04</rscale>
<asrwt>0</asrwt>
<pdfrwt beam="1">  1        2 0.51740180E-01 0.15528805E+04</pdfrwt>
<pdfrwt beam="2">  1       -2 0.27577915E+00 0.15528805E+04</pdfrwt>
<totfact> 0.41628773E+00</totfact>
</mgrwt>
</event>
<event>
 6    1  0.1014650E-006  0.4793629E+04  0.7818608E-02  0.7861155E-01
         -2   -1    0    0    0  501 -0.00000000000E+00  0.00000000000E+00  0.14850133874E+04  0.14850133874E+04  0.00000000000E+00 0.  1.
          2   -1    0    0  501    0  0.00000000000E+00 -0.00000000000E+00 -0.38684625232E+04  0.38684625232E+04  0.00000000000E+00 0. -1.
         23    2    1    2    0    0 -0.10453614709E+04  0.41821964222E+03  0.11693244541E+04  0.16265618446E+04  0.10341896135E+03 0.  0.
         11    1    3    3    0    0 -0.12894483232E+03  0.70365155587E+02  0.19860494123E+03  0.24702620829E+03  0.00000000000E+00 0. -1.
        -11    1    3    3    0    0 -0.91641663857E+03  0.34785448663E+03  0.97071951284E+03  0.13795356363E+04  0.00000000000E+00 0.  1.
         22    1    1    2    0    0  0.10453614709E+04 -0.41821964222E+03 -0.35527735899E+04  0.37269140660E+04  0.00000000000E+00 0. -1.
<mgrwt>
<rscale>  0 0.47936285E+04</rscale>
<asrwt>0</asrwt>
<pdfrwt beam="1">  1        2 0.59514807E+00 0.47936285E+04</pdfrwt>
<pdfrwt beam="2">  1       -2 0.22846360E+00 0.47936285E+04</pdfrwt>
<totfact> 0.28040544E-02</totfact>
</mgrwt>
</event>
<event>
 6    1  0.1014650E-006  0.2045147E+04  0.7818608E-02  0.8585799E-01
         -2   -1    0    0    0  501 -0.00000000000E+00  0.00000000000E+00  0.65004750783E+03  0.65004750783E+03  0.00000000000E+00 0.  1.
          2   -1    0    0  501    0  0.00000000000E+00 -0.00000000000E+00 -0.16085843820E+04  0.16085843820E+04  0.00000000000E+00 0. -1.
         23    2    1    2    0    0 -0.19611504257E+03  0.77508713187E+03 -0.11805745552E+04  0.14288596899E+04  0.93072880997E+02 0.  0.
         11    1    3    3    0    0 -0.10390330372E+03  0.47758883968E+03 -0.79467365184E+03  0.93294866378E+03  0.00000000000E+00 0. -1.
        -11    1    3    3    0    0 -0.92211738857E+02  0.29749829219E+03 -0.38590090337E+03  0.49591102615E+03  0.00000000000E+00 0.  1.
         22    1    1    2    0    0  0.19611504257E+03 -0.77508713187E+03  0.22203768105E+03  0.82977219990E+03  0.00000000000E+00 0. -1.
<mgrwt>
<rscale>  0 0.20451467E+04</rscale>
<asrwt>0</asrwt>
<pdfrwt beam="1">  1        2 0.24747452E+00 0.20451467E+04</pdfrwt>
<pdfrwt beam="2">  1       -2 0.10000731E+00 0.20451467E+04</pdfrwt>
<totfact> 0.84323076E+00</totfact>
</mgrwt>
</event>
<event>
 6    1  0.1014650E-006  0.2483980E+04  0.7818608E-02  0.8408715E-01
         -2   -1    0    0    0  501 -0.00000000000E+00  0.00000000000E+00  0.20168870663E+04  0.20168870663E+04  0.00000000000E+00 0.  1.
          2   -1    0    0  501    0  0.00000000000E+00 -0.00000000000E+00 -0.76481211179E+03  0.76481211179E+03  0.00000000000E+00 0. -1.
         23    2    1    2    0    0  0.12167748190E+04 -0.15378443730E+03  0.83387779936E+03  0.14859061877E+04  0.91511752953E+02 0.  0.
         13    1    3    3    0    0  0.92508804147E+03 -0.90260406796E+02  0.59546653064E+03  0.11038637663E+04  0.00000000000E+00 0. -1.
        -13    1    3    3    0    0  0.29168677756E+03 -0.63524030508E+02  0.23841126872E+03  0.38204242135E+03  0.00000000000E+00 0.  1.
         22    1    1    2    0    0 -0.12167748190E+04  0.15378443730E+03  0.41819715515E+03  0.12957929904E+04  0.00000000000E+00 0. -1.
<mgrwt>
<rscale>  0 0.24839804E+04</rscale>
<asrwt>0</asrwt>
<pdfrwt beam="1">  1        2 0.11766340E+00 0.24839804E+04</pdfrwt>
<pdfrwt beam="2">  1       -2 0.31029032E+00 0.24839804E+04</pdfrwt>
<totfact> 0.89742634E-01</totfact>
</mgrwt>
</event>
<event>
 6    1  0.1014650E-006  0.1607004E+04  0.7818608E-02  0.8816257E-01
          1   -1    0    0  501    0  0.00000000000E+00  0.00000000000E+00  0.11316802952E+04  0.11316802952E+04  0.00000000000E+00 0. -1.
         -1   -1    0    0    0  501 -0.00000000000E+00 -0.00000000000E+00 -0.57049278343E+03  0.57049278343E+03  0.00000000000E+00 0.  1.
         23    2    1    2    0    0 -0.19519934817E+03 -0.66218720884E+03 -0.14857406386E+03  0.71204370359E+03  0.91308807305E+02 0.  0.
         11    1    3    3    0    0 -0.91427420402E+02 -0.27366713602E+03 -0.10709866282E+03  0.30777069080E+03  0.00000000000E+00 0.  1.
        -11    1    3    3    0    0 -0.10377192777E+03 -0.38852007282E+03 -0.41475401039E+02  0.40427301278E+03  0.00000000000E+00 0. -1.
         22    1    1    2    0    0  0.19519934817E+03  0.66218720884E+03  0.70976157563E+03  0.99012937504E+03  0.00000000000E+00 0. -1.
<mgrwt>
<rscale>  0 0.16070040E+04</rscale>
<asrwt>0</asrwt>
<pdfrwt beam="1">  1        1 0.17410466E+00 0.16070040E+04</pdfrwt>
<pdfrwt beam="2">  1       -1 0.87768121E-01 0.16070040E+04</pdfrwt>
<totfact> 0.14697308E+01</totfact>
</mgrwt>
</event>
<event>
 6    1  0.1014650E-006  0.2430567E+04  0.7818608E-02  0.8428148E-01
         -2   -1    0    0    0  501 -0.00000000000E+00  0.00000000000E+00  0.87084755753E+03  0.87084755753E+03  0.00000000000E+00 0.  1.
          2   -1    0    0  501    0  0.00000000000E+00 -0.00000000000E+00 -0.16959495106E+04  0.16959495106E+04  0.00000000000E+00 0. -1.
         23    2    1    2    0    0  0.66227730533E+03 -0.59244303233E+03  0.45972735208E+03  0.10046234801E+04  0.91209225630E+02 0.  0.
         11    1    3    3    0    0  0.40524098536E+03 -0.35609388404E+03  0.22875304446E+03  0.58596165900E+03  0.00000000000E+00 0.  1.
        -11    1    3    3    0    0  0.25703631997E+03 -0.23634914829E+03  0.23097430762E+03  0.41866182111E+03  0.00000000000E+00 0. -1.
         22    1    1    2    0    0 -0.66227730533E+03  0.59244303233E+03 -0.12848293051E+04  0.15621735880E+04  0.00000000000E+00 0. -1.
<mgrwt>
<rscale>  0 0.24305666E+04</rscale>
<asrwt>0</asrwt>
<pdfrwt beam="1">  1        2 0.26091530E+00 0.24305666E+04</pdfrwt>
<pdfrwt beam="2">  1       -2 0.13397655E+00 0.24305666E+04</pdfrwt>
<totfact> 0.35574630E+00</totfact>
</mgrwt>
</event>
<event>
 6    1  0.1014650E-006  0.2051157E+04  0.7818608E-02  0.8583070E-01
          2   -1    0    0  501    0  0.00000000000E+00  0.00000000000E+00  0.10387030948E+04  0.10387030948E+04  0.00000000000E+00 0. -1.
         -2   -1    0    0    0  501 -0.00000000000E+00 -0.00000000000E+00 -0.10126193005E+04  0.10126193005E+04  0.00000000000E+00 0.  1.
         23    2    1    2    0    0 -0.24351282584E+03  0.42055278233E+03  0.91383824645E+03  0.10392595977E+04  0.93792492679E+02 0.  0.
         13    1    3    3    0    0 -0.24476211629E+03  0.37499446371E+03  0.80311258546E+03  0.91952116143E+03  0.00000000000E+00 0. -1.
        -13    1    3    3    0    0  0.12492904514E+01  0.45558318618E+02  0.11072566099E+03  0.11973843629E+03  0.00000000000E+00 0.  1.
         22    1    1    2    0    0  0.24351282584E+03 -0.42055278233E+03 -0.88775445215E+03  0.10120627976E+04  0.00000000000E+00 0.  1.
<mgrwt>
<rscale>  0 0.20511566E+04</rscale>
<asrwt>0</asrwt>
<pdfrwt beam="1">  1        2 0.15980048E+00 0.20511566E+04</pdfrwt>
<pdfrwt beam="2">  1       -2 0.15578758E+00 0.20511566E+04</pdfrwt>
<totfact> 0.59615193E+00</totfact>
</mgrwt>
</event>
<event>
 6    1  0.1014650E-006  0.2124130E+04  0.7818608E-02  0.8550688E-01
         -2   -1    0    0    0  501 -0.00000000000E+00  0.00000000000E+00  0.54153522881E+03  0.54153522881E+03  0.00000000000E+00 0.  1.
          2   -1    0    0  501    0  0.00000000000E+00 -0.00000000000E+00 -0.20829342602E+04  0.20829342602E+04  0.00000000000E+00 0. -1.
         23    2    1    2    0    0 -0.95985234569E+03 -0.40463800669E+03 -0.10153380801E+04  0.14575125204E+04  0.91558114759E+02 0.  0.
         11    1    3    3    0    0 -0.59842037564E+03 -0.23083973862E+03 -0.56833559576E+03  0.85697099153E+03  0.00000000000E+00 0.  1.
        -11    1    3    3    0    0 -0.36143197004E+03 -0.17379826807E+03 -0.44700248429E+03  0.60054152888E+03  0.00000000000E+00 0. -1.
         22    1    1    2    0    0  0.95985234569E+03  0.40463800669E+03 -0.52606095130E+03  0.11669569686E+04  0.00000000000E+00 0.  1.
<mgrwt>
<rscale>  0 0.21241302E+04</rscale>
<asrwt>0</asrwt>
<pdfrwt beam="1">  1        2 0.32045142E+00 0.21241302E+04</pdfrwt>
<pdfrwt beam="2">  1       -2 0.83313113E-01 0.21241302E+04</pdfrwt>
<totfact> 0.69660338E+00</totfact>
</mgrwt>
</event>
<event>
 6    1  0.1014650E-006  0.5259120E+03  0.7818608E-02  0.1007228E+00
         -2   -1    0    0    0  501 -0.00000000000E+00  0.00000000000E+00  0.11305900306E+03  0.11305900306E+03  0.00000000000E+00 0.  1.
          2   -1    0    0  501    0  0.00000000000E+00 -0.00000000000E+00 -0.61159081002E+03  0.61159081002E+03  0.00000000000E+00 0. -1.
         23    2    1    2    0    0 -0.79855849295E+02 -0.24228202965E+03 -0.24995770973E+03  0.36846640474E+03  0.90615099249E+02 0.  0.
         11    1    3    3    0    0 -0.16336478944E+01 -0.37987887122E+02 -0.89282372707E+02  0.97041694388E+02  0.00000000000E+00 0. -1.
        -11    1    3    3    0    0 -0.78222201401E+02 -0.20429414253E+03 -0.16067533702E+03  0.27142471035E+03  0.00000000000E+00 0.  1.
         22    1    1    2    0    0  0.79855849295E+02  0.24228202965E+03 -0.24857409724E+03  0.35618340834E+03  0.00000000000E+00 0. -1.
<mgrwt>
<rscale>  0 0.52591196E+03</rscale>
<asrwt>0</asrwt>
<pdfrwt beam="1">  1        2 0.94090891E-01 0.52591196E+03</pdfrwt>
<pdfrwt beam="2">  1       -2 0.17393693E-01 0.52591196E+03</pdfrwt>
<totfact> 0.13202579E+03</totfact>
</mgrwt>
</event>
<event>
 6    1  0.1014650E-006  0.2961537E+04  0.7818608E-02  0.8254800E-01
          2   -1    0    0  501    0  0.00000000000E+00  0.00000000000E+00  0.25490281758E+04  0.25490281758E+04  0.00000000000E+00 0. -1.
         -2   -1    0    0    0  501 -0.00000000000E+00 -0.00000000000E+00 -0.86020060804E+03  0.86020060804E+03  0.00000000000E+00 0.  1.
         23    2    1    2    0    0  0.10815285622E+04 -0.10062350676E+04  0.93938742944E+03  0.17527646089E+04  0.86729404110E+02 0.  0.
         13    1    3    3    0    0  0.39014852857E+03 -0.42042664160E+03  0.35927843813E+03  0.67679792510E+03  0.00000000000E+00 0. -1.
        -13    1    3    3    0    0  0.69138003361E+03 -0.58580842599E+03  0.58010899131E+03  0.10759666838E+04  0.00000000000E+00 0.  1.
         22    1    1    2    0    0 -0.10815285622E+04  0.10062350676E+04  0.74944013834E+03  0.16564641750E+04  0.00000000000E+00 0. -1.
<mgrwt>
<rscale>  0 0.29615372E+04</rscale>
<asrwt>0</asrwt>
<pdfrwt beam="1">  1        2 0.39215818E+00 0.29615372E+04</pdfrwt>
<pdfrwt beam="2">  1       -2 0.13233856E+00 0.29615372E+04</pdfrwt>
<totfact> 0.11615996E+00</totfact>
</mgrwt>
</event>
<event>
 6    1  0.1014650E-006  0.2135947E+04  0.7818608E-02  0.8545572E-01
          2   -1    0    0  501    0  0.00000000000E+00  0.00000000000E+00  0.30662519966E+04  0.30662519966E+04  0.00000000000E+00 0. -1.
         -2   -1    0    0    0  501 -0.00000000000E+00 -0.00000000000E+00 -0.37197438131E+03  0.37197438131E+03  0.00000000000E+00 0.  1.
         23    2    1    2    0    0 -0.79698142742E+03  0.64534913434E+03  0.88140785848E+03  0.13554033763E+04  0.92647712617E+02 0.  0.
         11    1    3    3    0    0 -0.24843653086E+03  0.19235486182E+03  0.32689815021E+03  0.45341317067E+03  0.00000000000E+00 0. -1.
        -11    1    3    3    0    0 -0.54854489657E+03  0.45299427252E+03  0.55450970827E+03  0.90199020563E+03  0.00000000000E+00 0.  1.
         22    1    1    2    0    0  0.79698142742E+03 -0.64534913434E+03  0.18128697568E+04  0.20828230016E+04  0.00000000000E+00 0. -1.
<mgrwt>
<rscale>  0 0.21359468E+04</rscale>
<asrwt>0</asrwt>
<pdfrwt beam="1">  1        2 0.47173106E+00 0.21359468E+04</pdfrwt>
<pdfrwt beam="2">  1       -2 0.57226830E-01 0.21359468E+04</pdfrwt>
<totfact> 0.41653397E+00</totfact>
</mgrwt>
</event>
<event>
 6    1  0.1014650E-006  0.2232304E+04  0.7818608E-02  0.8505101E-01
         -1   -1    0    0    0  501 -0.00000000000E+00  0.00000000000E+00  0.10659997677E+04  0.10659997677E+04  0.00000000000E+00 0.  1.
          1   -1    0    0  501    0  0.00000000000E+00 -0.00000000000E+00 -0.11686639557E+04  0.11686639557E+04  0.00000000000E+00 0. -1.
         23    2    1    2    0    0  0.56768791459E+03  0.71767611067E+03  0.58499714449E+03  0.10900211258E+04  0.92713684740E+02 0.  0.
         13    1    3    3    0    0  0.18217519365E+03  0.18222688111E+03  0.19940825832E+03  0.32581910758E+03  0.00000000000E+00 0.  1.
        -13    1    3    3    0    0  0.38551272094E+03  0.53544922956E+03  0.38558888617E+03  0.76420201817E+03  0.00000000000E+00 0. -1.
         22    1    1    2    0    0 -0.56768791459E+03 -0.71767611067E+03 -0.68766133246E+03  0.11446425977E+04  0.00000000000E+00 0. -1.
<mgrwt>
<rscale>  0 0.22323042E+04</rscale>
<asrwt>0</asrwt>
<pdfrwt beam="1">  1        1 0.17979445E+00 0.22323042E+04</pdfrwt>
<pdfrwt beam="2">  1       -1 0.16399997E+00 0.22323042E+04</pdfrwt>
<totfact> 0.27932669E+00</totfact>
</mgrwt>
</event>
<event>
 6    1  0.1014650E-006  0.1635142E+04  0.7818608E-02  0.8799245E-01
          2   -1    0    0  501    0  0.00000000000E+00  0.00000000000E+00  0.55711609663E+03  0.55711609663E+03  0.00000000000E+00 0. -1.
         -2   -1    0    0    0  501 -0.00000000000E+00 -0.00000000000E+00 -0.11997894999E+04  0.11997894999E+04  0.00000000000E+00 0.  1.
         23    2    1    2    0    0 -0.34380621878E+03 -0.40333552336E+03 -0.98766498133E+03  0.11245279803E+04  0.90547240359E+02 0.  0.
         11    1    3    3    0    0 -0.11915000667E+03 -0.18074113594E+03 -0.32842570665E+03  0.39335420056E+03  0.00000000000E+00 0. -1.
        -11    1    3    3    0    0 -0.22465621211E+03 -0.22259438743E+03 -0.65923927468E+03  0.73117377978E+03  0.00000000000E+00 0.  1.
         22    1    1    2    0    0  0.34380621878E+03  0.40333552336E+03  0.34499157809E+03  0.63237761617E+03  0.00000000000E+00 0. -1.
<mgrwt>
<rscale>  0 0.16351416E+04</rscale>
<asrwt>0</asrwt>
<pdfrwt beam="1">  1        2 0.85710170E-01 0.16351416E+04</pdfrwt>
<pdfrwt beam="2">  1       -2 0.18458300E+00 0.16351416E+04</pdfrwt>
<totfact> 0.87359956E+00</totfact>
</mgrwt>
</event>
<event>
 6    1  0.1014650E-006  0.1339083E+04  0.7818608E-02  0.8999133E-01
         -1   -1    0    0    0  501 -0.00000000000E+00  0.00000000000E+00  0.55682330675E+03  0.55682330675E+03  0.00000000000E+00 0.  1.
          1   -1    0    0  501    0  0.00000000000E+00 -0.00000000000E+00 -0.80507763116E+03  0.80507763116E+03  0.00000000000E+00 0. -1.
         23    2    1    2    0    0  0.89093085251E+02  0.65793480544E+03 -0.18393283887E+03  0.69485293398E+03  0.90407547211E+02 0.  0.
         11    1    3    3    0    0  0.51005229161E+02  0.42876916536E+03 -0.16325971706E+03  0.46162567713E+03  0.00000000000E+00 0. -1.
        -11    1    3    3    0    0  0.38087856090E+02  0.22916564007E+03 -0.20673121817E+02  0.23322725685E+03  0.00000000000E+00 0.  1.
         22    1    1    2    0    0 -0.89093085251E+02 -0.65793480544E+03 -0.64321485540E+02  0.66704800393E+03  0.00000000000E+00 0.  1.
<mgrwt>
<rscale>  0 0.13390833E+04</rscale>
<asrwt>0</asrwt>
<pdfrwt beam="1">  1        1 0.12385810E+00 0.13390833E+04</pdfrwt>
<pdfrwt beam="2">  1       -1 0.85665125E-01 0.13390833E+04</pdfrwt>
<totfact> 0.28871644E+01</totfact>
</mgrwt>
</event>
<event>
 6    1  0.1014650E-006  0.1734913E+04  0.7818608E-02  0.8741699E-01
         -2   -1    0    0    0  501 -0.00000000000E+00  0.00000000000E+00  0.12713883571E+04  0.12713883571E+04  0.00000000000E+00 0.  1.
          2   -1    0    0  501    0  0.00000000000E+00 -0.00000000000E+00 -0.59185767523E+03  0.59185767523E+03  0.00000000000E+00 0. -1.
         23    2    1    2    0    0 -0.71333863485E+03 -0.42168645880E+02 -0.18305470946E+03  0.74311936091E+03  0.89928611861E+02 0.  0.
         13    1    3    3    0    0 -0.41412692843E+03  0.18093871984E+02 -0.11879202670E+03  0.43120766072E+03  0.00000000000E+00 0. -1.
        -13    1    3    3    0    0 -0.29921170643E+03 -0.60262517864E+02 -0.64262682760E+02  0.31191170019E+03  0.00000000000E+00 0.  1.
         22    1    1    2    0    0  0.71333863485E+03  0.42168645880E+02  0.86258539129E+03  0.11201266714E+04  0.00000000000E+00 0.  1.
<mgrwt>
<rscale>  0 0.17349132E+04</rscale>
<asrwt>0</asrwt>
<pdfrwt beam="1">  1        2 0.91055027E-01 0.17349132E+04</pdfrwt>
<pdfrwt beam="2">  1       -2 0.19559821E+00 0.17349132E+04</pdfrwt>
<totfact> 0.67985423E+00</totfact>
</mgrwt>
</event>
<event>
 6    1  0.1014650E-006  0.2846063E+04  0.7818608E-02  0.8289109E-01
          1   -1    0    0  501    0  0.00000000000E+00  0.00000000000E+00  0.23051619318E+04  0.23051619318E+04  0.00000000000E+00 0. -1.
         -1   -1    0    0    0  501 -0.00000000000E+00 -0.00000000000E+00 -0.87847141823E+03  0.87847141823E+03  0.00000000000E+00 0.  1.
         23    2    1    2    0    0 -0.69292259918E+03 -0.98796769076E+03 -0.12655719703E+03  0.12167067279E+04  0.90203387344E+02 0.  0.
         13    1    3    3    0    0 -0.60135931784E+03 -0.82486267810E+03 -0.13372461060E+03  0.10295211209E+04  0.00000000000E+00 0.  1.
        -13    1    3    3    0    0 -0.91563281343E+02 -0.16310501266E+03  0.71674135710E+01  0.18718560698E+03  0.00000000000E+00 0. -1.
         22    1    1    2    0    0  0.69292259918E+03  0.98796769076E+03  0.15532477106E+04  0.19669266221E+04  0.00000000000E+00 0. -1.
<mgrwt>
<rscale>  0 0.28460632E+04</rscale>
<asrwt>0</asrwt>
<pdfrwt beam="1">  1        1 0.35464030E+00 0.28460632E+04</pdfrwt>
<pdfrwt beam="2">  1       -1 0.13514945E+00 0.28460632E+04</pdfrwt>
<totfact> 0.73100243E-01</totfact>
</mgrwt>
</event>
<event>
 6    1  0.1014650E-006  0.2807282E+04  0.7818608E-02  0.8301011E-01
          2   -1    0    0  501    0  0.00000000000E+00  0.00000000000E+00  0.35914918424E+04  0.35914918424E+04  0.00000000000E+00 0. -1.
         -2   -1    0    0    0  501 -0.00000000000E+00 -0.00000000000E+00 -0.54857633689E+03  0.54857633689E+03  0.00000000000E+00 0.  1.
         23    2    1    2    0    0 -0.97286876105E+02  0.93209268473E+03 -0.16428942240E+02  0.94040414081E+03  0.76344801478E+02 0.  0.
         13    1    3    3    0    0 -0.57503793498E+02  0.71934588368E+03  0.14404616011E+02  0.72178437195E+03  0.00000000000E+00 0. -1.
        -13    1    3    3    0    0 -0.39783082607E+02  0.21274680105E+03 -0.30833558251E+02  0.21861976886E+03  0.00000000000E+00 0.  1.
         22    1    1    2    0    0  0.97286876105E+02 -0.93209268473E+03  0.30593444478E+04  0.31996640385E+04  0.00000000000E+00 0. -1.
<mgrwt>
<rscale>  0 0.28072816E+04</rscale>
<asrwt>0</asrwt>
<pdfrwt beam="1">  1        2 0.55253719E+00 0.28072816E+04</pdfrwt>
<pdfrwt beam="2">  1       -2 0.84396362E-01 0.28072816E+04</pdfrwt>
<totfact> 0.74561845E-01</totfact>
</mgrwt>
</event>
<event>
 6    1  0.1014650E-006  0.3340460E+04  0.7818608E-02  0.8152676E-01
         -2   -1    0    0    0  501 -0.00000000000E+00  0.00000000000E+00  0.12085974673E+04  0.12085974673E+04  0.00000000000E+00 0.  1.
          2   -1    0    0  501    0  0.00000000000E+00 -0.00000000000E+00 -0.23081869938E+04  0.23081869938E+04  0.00000000000E+00 0. -1.
         23    2    1    2    0    0 -0.60818848139E+03 -0.15505851992E+04 -0.66227308855E+03  0.17947352877E+04  0.90892354786E+02 0.  0.
         13    1    3    3    0    0 -0.14853499428E+03 -0.33183855265E+03 -0.10898257845E+03  0.37954798373E+03  0.00000000000E+00 0.  1.
        -13    1    3    3    0    0 -0.45965348710E+03 -0.12187466466E+04 -0.55329051010E+03  0.14151873040E+04  0.00000000000E+00 0. -1.
         22    1    1    2    0    0  0.60818848139E+03  0.15505851992E+04 -0.43731643793E+03  0.17220491735E+04  0.00000000000E+00 0.  1.
<mgrwt>
<rscale>  0 0.33404604E+04</rscale>
<asrwt>0</asrwt>
<pdfrwt beam="1">  1        2 0.35510569E+00 0.33404604E+04</pdfrwt>
<pdfrwt beam="2">  1       -2 0.18593807E+00 0.33404604E+04</pdfrwt>
<totfact> 0.61647114E-01</totfact>
</mgrwt>
</event>
<event>
 6    1  0.1014650E-006  0.1158465E+04  0.7818608E-02  0.9150010E-01
         -1   -1    0    0    0  501 -0.00000000000E+00  0.00000000000E+00  0.23864232066E+03  0.23864232066E+03  0.00000000000E+00 0.  1.
          1   -1    0    0  501    0  0.00000000000E+00 -0.00000000000E+00 -0.14059128021E+04  0.14059128021E+04  0.00000000000E+00 0. -1.
         23    2    1    2    0    0  0.47389603044E+03  0.10052739003E+03 -0.10285937682E+04  0.11406558922E+04  0.91692532611E+02 0.  0.
         11    1    3    3    0    0  0.25081271179E+03  0.35137077676E+02 -0.43790009004E+03  0.50586373608E+03  0.00000000000E+00 0.  1.
        -11    1    3    3    0    0  0.22308331865E+03  0.65390312351E+02 -0.59069367815E+03  0.63479215608E+03  0.00000000000E+00 0. -1.
         22    1    1    2    0    0 -0.47389603044E+03 -0.10052739003E+03 -0.13867671328E+03  0.50389923062E+03  0.00000000000E+00 0.  1.
<mgrwt>
<rscale>  0 0.11584650E+04</rscale>
<asrwt>0</asrwt>
<pdfrwt beam="1">  1        1 0.21629428E+00 0.11584650E+04</pdfrwt>
<pdfrwt beam="2">  1       -1 0.36714203E-01 0.11584650E+04</pdfrwt>
<totfact> 0.53751699E+01</totfact>
</mgrwt>
</event>
<event>
 6    1  0.1014650E-006  0.1393953E+04  0.7818608E-02  0.8958208E-01
          2   -1    0    0  501    0  0.00000000000E+00  0.00000000000E+00  0.19140968472E+04  0.19140968472E+04  0.00000000000E+00 0. -1.
         -2   -1    0    0    0  501 -0.00000000000E+00 -0.00000000000E+00 -0.25378863365E+03  0.25378863365E+03  0.00000000000E+00 0.  1.
         23    2    1    2    0    0  0.18778241131E+03 -0.44716076250E+03  0.16058291253E+04  0.16798455720E+04  0.89325162809E+02 0.  0.
         13    1    3    3    0    0  0.93711737842E+02 -0.17977421922E+03  0.81209050476E+03  0.83701352894E+03  0.00000000000E+00 0. -1.
        -13    1    3    3    0    0  0.94070673465E+02 -0.26738654328E+03  0.79373862051E+03  0.84283204307E+03  0.00000000000E+00 0.  1.
         22    1    1    2    0    0 -0.18778241131E+03  0.44716076250E+03  0.54479088227E+02  0.48803990879E+03  0.00000000000E+00 0.  1.
<mgrwt>
<rscale>  0 0.13939527E+04</rscale>
<asrwt>0</asrwt>
<pdfrwt beam="1">  1        2 0.29447643E+00 0.13939527E+04</pdfrwt>
<pdfrwt beam="2">  1       -2 0.39044406E-01 0.13939527E+04</pdfrwt>
<totfact> 0.45044054E+01</totfact>
</mgrwt>
</event>
<event>
 6    1  0.1014650E-006  0.9494164E+03  0.7818608E-02  0.9365833E-01
          1   -1    0    0  501    0  0.00000000000E+00  0.00000000000E+00  0.31376628655E+03  0.31376628655E+03  0.00000000000E+00 0. -1.
         -1   -1    0    0    0  501 -0.00000000000E+00 -0.00000000000E+00 -0.71820290586E+03  0.71820290586E+03  0.00000000000E+00 0.  1.
         23    2    1    2    0    0 -0.31646459694E+03 -0.41890217910E+02 -0.57964096212E+03  0.66782472491E+03  0.90008814881E+02 0.  0.
         11    1    3    3    0    0 -0.18971057480E+03  0.91217103601E+01 -0.27805427626E+03  0.33673058717E+03  0.00000000000E+00 0. -1.
        -11    1    3    3    0    0 -0.12675402215E+03 -0.51011928270E+02 -0.30158668586E+03  0.33109413773E+03  0.00000000000E+00 0.  1.
         22    1    1    2    0    0  0.31646459694E+03  0.41890217910E+02  0.17520434280E+03  0.36414446750E+03  0.00000000000E+00 0. -1.
<mgrwt>
<rscale>  0 0.94941637E+03</rscale>
<asrwt>0</asrwt>
<pdfrwt beam="1">  1        1 0.48271736E-01 0.94941637E+03</pdfrwt>
<pdfrwt beam="2">  1       -1 0.11049275E+00 0.94941637E+03</pdfrwt>
<totfact> 0.62803157E+01</totfact>
</mgrwt>
</event>
<event>
 6    1  0.1014650E-006  0.3642485E+04  0.7818608E-02  0.8080829E-01
         -2   -1    0    0    0  501 -0.00000000000E+00  0.00000000000E+00  0.22444396143E+04  0.22444396143E+04  0.00000000000E+00 0.  1.
          2   -1    0    0  501    0  0.00000000000E+00 -0.00000000000E+00 -0.14778404839E+04  0.14778404839E+04  0.00000000000E+00 0. -1.
         23    2    1    2    0    0  0.18194477611E+04 -0.32031861899E+02  0.34779554628E+03  0.18549792017E+04  0.92573760976E+02 0.  0.
         13    1    3    3    0    0  0.51900779087E+03  0.51650022138E+01  0.59361416365E+02  0.52241701924E+03  0.00000000000E+00 0. -1.
        -13    1    3    3    0    0  0.13004399703E+04 -0.37196864113E+02  0.28843412992E+03  0.13325621825E+04  0.00000000000E+00 0.  1.
         22    1    1    2    0    0 -0.18194477611E+04  0.32031861899E+02  0.41880358412E+03  0.18673008964E+04  0.00000000000E+00 0.  1.
<mgrwt>
<rscale>  0 0.36424847E+04</rscale>
<asrwt>0</asrwt>
<pdfrwt beam="1">  1        2 0.22736007E+00 0.36424847E+04</pdfrwt>
<pdfrwt beam="2">  1       -2 0.34529840E+00 0.36424847E+04</pdfrwt>
<totfact> 0.17668861E-01</totfact>
</mgrwt>
</event>
<event>
 6    1  0.1014650E-006  0.3070580E+04  0.7818608E-02  0.8223859E-01
          2   -1    0    0  501    0  0.00000000000E+00  0.00000000000E+00  0.17448928107E+04  0.17448928107E+04  0.00000000000E+00 0. -1.
         -2   -1    0    0    0  501 -0.00000000000E+00 -0.00000000000E+00 -0.13508650175E+04  0.13508650175E+04  0.00000000000E+00 0.  1.
         23    2    1    2    0    0  0.58576358028E+03  0.14166124634E+04  0.13878427815E+03  0.15417117879E+04  0.87774242004E+02 0.  0.
         11    1    3    3    0    0  0.14624460674E+03  0.28754425135E+03  0.54664027906E+02  0.32719617576E+03  0.00000000000E+00 0. -1.
        -11    1    3    3    0    0  0.43951897354E+03  0.11290682120E+04  0.84120250242E+02  0.12145156121E+04  0.00000000000E+00 0.  1.
         22    1    1    2    0    0 -0.58576358028E+03 -0.14166124634E+04  0.25524351508E+03  0.15540460403E+04  0.00000000000E+00 0.  1.
<mgrwt>
<rscale>  0 0.30705795E+04</rscale>
<asrwt>0</asrwt>
<pdfrwt beam="1">  1        2 0.26844505E+00 0.30705795E+04</pdfrwt>
<pdfrwt beam="2">  1       -2 0.20782539E+00 0.30705795E+04</pdfrwt>
<totfact> 0.93204190E-01</totfact>
</mgrwt>
</event>
<event>
 6    1  0.1014650E-006  0.8596343E+03  0.7818608E-02  0.9477497E-01
         -1   -1    0    0    0  501 -0.00000000000E+00  0.00000000000E+00  0.13769492077E+03  0.13769492077E+03  0.00000000000E+00 0.  1.
          1   -1    0    0  501    0  0.00000000000E+00 -0.00000000000E+00 -0.13416819502E+04  0.13416819502E+04  0.00000000000E+00 0. -1.
         23    2    1    2    0    0 -0.22947462185E+03  0.15036220641E+03 -0.11673863467E+04  0.12025971658E+04  0.90452559861E+02 0.  0.
         13    1    3    3    0    0 -0.17117286678E+03  0.62420603925E+02 -0.68602282410E+03  0.70980546441E+03  0.00000000000E+00 0.  1.
        -13    1    3    3    0    0 -0.58301755078E+02  0.87941602481E+02 -0.48136352260E+03  0.49279170141E+03  0.00000000000E+00 0. -1.
         22    1    1    2    0    0  0.22947462185E+03 -0.15036220641E+03 -0.36600682699E+02  0.27677970512E+03  0.00000000000E+00 0.  1.
<mgrwt>
<rscale>  0 0.85963432E+03</rscale>
<asrwt>0</asrwt>
<pdfrwt beam="1">  1        1 0.20641262E+00 0.85963432E+03</pdfrwt>
<pdfrwt beam="2">  1       -1 0.21183833E-01 0.85963432E+03</pdfrwt>
<totfact> 0.15835642E+02</totfact>
</mgrwt>
</event>
<event>
 6    1  0.1014650E-006  0.1901172E+04  0.7818608E-02  0.8654273E-01
          1   -1    0    0  501    0  0.00000000000E+00  0.00000000000E+00  0.18464314402E+04  0.18464314402E+04  0.00000000000E+00 0. -1.
         -1   -1    0    0    0  501 -0.00000000000E+00 -0.00000000000E+00 -0.48938397891E+03  0.48938397891E+03  0.00000000000E+00 0.  1.
         23    2    1    2    0    0 -0.33239392461E+03 -0.71843132758E+03  0.38261028162E+02  0.79769092811E+03  0.90651072460E+02 0.  0.
         11    1    3    3    0    0 -0.56379276389E+02 -0.21892247738E+03  0.12815138427E+02  0.22642857964E+03  0.00000000000E+00 0. -1.
        -11    1    3    3    0    0 -0.27601464822E+03 -0.49950885021E+03  0.25445889735E+02  0.57126234847E+03  0.00000000000E+00 0.  1.
         22    1    1    2    0    0  0.33239392461E+03  0.71843132758E+03  0.13187864331E+04  0.15381244910E+04  0.00000000000E+00 0. -1.
<mgrwt>
<rscale>  0 0.19011722E+04</rscale>
<asrwt>0</asrwt>
<pdfrwt beam="1">  1        1 0.28406637E+00 0.19011722E+04</pdfrwt>
<pdfrwt beam="2">  1       -1 0.75289844E-01 0.19011722E+04</pdfrwt>
<totfact> 0.62852249E+00</totfact>
</mgrwt>
</event>
<event>
 6    1  0.1014650E-006  0.1445924E+04  0.7818608E-02  0.8921231E-01
         -2   -1    0    0    0  501 -0.00000000000E+00  0.00000000000E+00  0.52679319366E+03  0.52679319366E+03  0.00000000000E+00 0.  1.
          2   -1    0    0  501    0  0.00000000000E+00 -0.00000000000E+00 -0.99218076643E+03  0.99218076643E+03  0.00000000000E+00 0. -1.
         23    2    1    2    0    0 -0.36123042690E+03  0.62209108760E+03 -0.19458159203E+03  0.75032539163E+03  0.87415415055E+02 0.  0.
         11    1    3    3    0    0 -0.13555122276E+03  0.31558991338E+03 -0.10707776921E+03  0.35977322869E+03  0.00000000000E+00 0. -1.
        -11    1    3    3    0    0 -0.22567920414E+03  0.30650117421E+03 -0.87503822825E+02  0.39055216295E+03  0.00000000000E+00 0.  1.
         22    1    1    2    0    0  0.36123042690E+03 -0.62209108760E+03 -0.27080598075E+03  0.76864856846E+03  0.00000000000E+00 0.  1.
<mgrwt>
<rscale>  0 0.14459240E+04</rscale>
<asrwt>0</asrwt>
<pdfrwt beam="1">  1        2 0.15264319E+00 0.14459240E+04</pdfrwt>
<pdfrwt beam="2">  1       -2 0.81045107E-01 0.14459240E+04</pdfrwt>
<totfact> 0.33193436E+01</totfact>
</mgrwt>
</event>
<event>
 6    1  0.1014650E-006  0.2270877E+04  0.7818608E-02  0.8489493E-01
          2   -1    0    0  501    0  0.00000000000E+00  0.00000000000E+00  0.15248320622E+04  0.15248320622E+04  0.00000000000E+00 0. -1.
         -2   -1    0    0    0  501 -0.00000000000E+00 -0.00000000000E+00 -0.84548377372E+03  0.84548377372E+03  0.00000000000E+00 0.  1.
         23    2    1    2    0    0  0.91395642490E+03  0.37624574280E+03 -0.23928068982E+03  0.10209617662E+04  0.90721959946E+02 0.  0.
         11    1    3    3    0    0  0.40700588255E+03  0.21538132542E+03 -0.10124318590E+03  0.47147967768E+03  0.00000000000E+00 0.  1.
        -11    1    3    3    0    0  0.50695054234E+03  0.16086441739E+03 -0.13803750393E+03  0.54948208856E+03  0.00000000000E+00 0. -1.
         22    1    1    2    0    0 -0.91395642490E+03 -0.37624574280E+03  0.91862897829E+03  0.13493540697E+04  0.00000000000E+00 0.  1.
<mgrwt>
<rscale>  0 0.22708772E+04</rscale>
<asrwt>0</asrwt>
<pdfrwt beam="1">  1        2 0.23458955E+00 0.22708772E+04</pdfrwt>
<pdfrwt beam="2">  1       -2 0.13007443E+00 0.22708772E+04</pdfrwt>
<totfact> 0.48446743E+00</totfact>
</mgrwt>
</event>
<event>
 6    1  0.1014650E-006  0.4112023E+04  0.7818608E-02  0.7982321E-01
         -1   -1    0    0    0  501 -0.00000000000E+00  0.00000000000E+00  0.85087934416E+03  0.85087934416E+03  0.00000000000E+00 0.  1.
          1   -1    0    0  501    0  0.00000000000E+00 -0.00000000000E+00 -0.49680178558E+04  0.49680178558E+04  0.00000000000E+00 0. -1.
         23    2    1    2    0    0  0.10045959054E+04  0.14391712233E+04 -0.54694108792E+03  0.18406141045E+04  0.91043864239E+02 0.  0.
         11    1    3    3    0    0  0.72621227635E+03  0.99816137127E+03 -0.41977408263E+03  0.13038100605E+04  0.00000000000E+00 0. -1.
        -11    1    3    3    0    0  0.27838362903E+03  0.44100985198E+03 -0.12716700530E+03  0.53680404404E+03  0.00000000000E+00 0.  1.
         22    1    1    2    0    0 -0.10045959054E+04 -0.14391712233E+04 -0.35701974237E+04  0.39782830954E+04  0.00000000000E+00 0. -1.
<mgrwt>
<rscale>  0 0.41120232E+04</rscale>
<asrwt>0</asrwt>
<pdfrwt beam="1">  1        1 0.76431044E+00 0.41120232E+04</pdfrwt>
<pdfrwt beam="2">  1       -1 0.13090451E+00 0.41120232E+04</pdfrwt>
<totfact> 0.36314693E-03</totfact>
</mgrwt>
</event>
<event>
 6    1  0.1014650E-006  0.1199482E+04  0.7818608E-02  0.9113310E-01
          2   -1    0    0  501    0  0.00000000000E+00  0.00000000000E+00  0.12106003655E+04  0.12106003655E+04  0.00000000000E+00 0. -1.
         -2   -1    0    0    0  501 -0.00000000000E+00 -0.00000000000E+00 -0.29711642186E+03  0.29711642186E+03  0.00000000000E+00 0.  1.
         23    2    1    2    0    0  0.24173434087E+03  0.54061191384E+03  0.37114402229E+03  0.70470413289E+03  0.90350963969E+02 0.  0.
         13    1    3    3    0    0  0.20076810943E+03  0.39444978241E+03  0.31326852914E+03  0.54225052878E+03  0.00000000000E+00 0. -1.
        -13    1    3    3    0    0  0.40966231438E+02  0.14616213143E+03  0.57875493147E+02  0.16245360411E+03  0.00000000000E+00 0.  1.
         22    1    1    2    0    0 -0.24173434087E+03 -0.54061191384E+03  0.54233992136E+03  0.80301265447E+03  0.00000000000E+00 0.  1.
<mgrwt>
<rscale>  0 0.11994820E+04</rscale>
<asrwt>0</asrwt>
<pdfrwt beam="1">  1        2 0.18624621E+00 0.11994820E+04</pdfrwt>
<pdfrwt beam="2">  1       -2 0.45710219E-01 0.11994820E+04</pdfrwt>
<totfact> 0.83558551E+01</totfact>
</mgrwt>
</event>
<event>
 6    1  0.1014650E-006  0.2140120E+04  0.7818608E-02  0.8543773E-01
         -1   -1    0    0    0  501 -0.00000000000E+00  0.00000000000E+00  0.68829993763E+03  0.68829993763E+03  0.00000000000E+00 0.  1.
          1   -1    0    0  501    0  0.00000000000E+00 -0.00000000000E+00 -0.16635606965E+04  0.16635606965E+04  0.00000000000E+00 0. -1.
         23    2    1    2    0    0 -0.94380077001E+03  0.36221532949E+03 -0.86783373092E+03  0.13352484147E+04  0.88278570737E+02 0.  0.
         11    1    3    3    0    0 -0.23333645166E+03  0.13095586130E+03 -0.23404269709E+03  0.35548744189E+03  0.00000000000E+00 0. -1.
        -11    1    3    3    0    0 -0.71046431836E+03  0.23125946819E+03 -0.63379103383E+03  0.97976097281E+03  0.00000000000E+00 0.  1.
         22    1    1    2    0    0  0.94380077001E+03 -0.36221532949E+03 -0.10742702797E+03  0.10166122194E+04  0.00000000000E+00 0.  1.
<mgrwt>
<rscale>  0 0.21401203E+04</rscale>
<asrwt>0</asrwt>
<pdfrwt beam="1">  1        1 0.25593241E+00 0.21401203E+04</pdfrwt>
<pdfrwt beam="2">  1       -1 0.10589230E+00 0.21401203E+04</pdfrwt>
<totfact> 0.38607822E+00</totfact>
</mgrwt>
</event>
<event>
 6    1  0.1014650E-006  0.3288724E+04  0.7818608E-02  0.8165771E-01
          1   -1    0    0  501    0  0.00000000000E+00  0.00000000000E+00  0.38717937226E+04  0.38717937226E+04  0.00000000000E+00 0. -1.
         -1   -1    0    0    0  501 -0.00000000000E+00 -0.00000000000E+00 -0.69836529034E+03  0.69836529034E+03  0.00000000000E+00 0.  1.
         23    2    1    2    0    0  0.14188042483E+04 -0.43278974051E+03  0.25699659215E+04  0.29687597946E+04  0.92181485221E+02 0.  0.
         11    1    3    3    0    0  0.36250410315E+03 -0.10519290490E+03  0.73591811744E+03  0.82707330245E+03  0.00000000000E+00 0. -1.
        -11    1    3    3    0    0  0.10563001451E+04 -0.32759683562E+03  0.18340478040E+04  0.21416864922E+04  0.00000000000E+00 0.  1.
         22    1    1    2    0    0 -0.14188042483E+04  0.43278974051E+03  0.60346251076E+03  0.16013992183E+04  0.00000000000E+00 0.  1.
<mgrwt>
<rscale>  0 0.32887240E+04</rscale>
<asrwt>0</asrwt>
<pdfrwt beam="1">  1        1 0.59566056E+00 0.32887240E+04</pdfrwt>
<pdfrwt beam="2">  1       -1 0.10744082E+00 0.32887240E+04</pdfrwt>
<totfact> 0.82872409E-02</totfact>
</mgrwt>
</event>
<event>
 6    1  0.1014650E-006  0.1868574E+04  0.7818608E-02  0.8670659E-01
         -2   -1    0    0    0  501 -0.00000000000E+00  0.00000000000E+00  0.59302672930E+03  0.59302672930E+03  0.00000000000E+00 0.  1.
          2   -1    0    0  501    0  0.00000000000E+00 -0.00000000000E+00 -0.14719278566E+04  0.14719278566E+04  0.00000000000E+00 0. -1.
         23    2    1    2    0    0  0.16028478395E+03 -0.81215483131E+03  0.33441141476E+02  0.83302313595E+03  0.86732652999E+02 0.  0.
         11    1    3    3    0    0  0.13544718088E+03 -0.50649196916E+03 -0.21496868703E+01  0.52429445428E+03  0.00000000000E+00 0.  1.
        -11    1    3    3    0    0  0.24837603068E+02 -0.30566286215E+03  0.35590828346E+02  0.30872868168E+03  0.00000000000E+00 0. -1.
         22    1    1    2    0    0 -0.16028478395E+03  0.81215483131E+03 -0.91234226883E+03  0.12319314500E+04  0.00000000000E+00 0. -1.
<mgrwt>
<rscale>  0 0.18685744E+04</rscale>
<asrwt>0</asrwt>
<pdfrwt beam="1">  1        2 0.22645044E+00 0.18685744E+04</pdfrwt>
<pdfrwt beam="2">  1       -2 0.91234882E-01 0.18685744E+04</pdfrwt>
<totfact> 0.12660469E+01</totfact>
</mgrwt>
</event>
<event>
 6    1  0.1014650E-006  0.1151925E+04  0.7818608E-02  0.9156009E-01
          1   -1    0    0  501    0  0.00000000000E+00  0.00000000000E+00  0.93808089544E+03  0.93808089544E+03  0.00000000000E+00 0. -1.
         -1   -1    0    0    0  501 -0.00000000000E+00 -0.00000000000E+00 -0.35362931702E+03  0.35362931702E+03  0.00000000000E+00 0.  1.
         23    2    1    2    0    0 -0.53204909334E+03  0.17018975246E+03  0.15396014953E+03  0.58647006903E+03  0.90568342459E+02 0.  0.
         13    1    3    3    0    0 -0.32064439123E+03  0.14243145355E+03  0.72813083320E+02  0.35833125693E+03  0.00000000000E+00 0.  1.
        -13    1    3    3    0    0 -0.21140470211E+03  0.27758298910E+02  0.81147066209E+02  0.22813881210E+03  0.00000000000E+00 0. -1.
         22    1    1    2    0    0  0.53204909334E+03 -0.17018975246E+03  0.43049142889E+03  0.70524014344E+03  0.00000000000E+00 0. -1.
<mgrwt>
<rscale>  0 0.11519252E+04</rscale>
<asrwt>0</asrwt>
<pdfrwt beam="1">  1        1 0.14432014E+00 0.11519252E+04</pdfrwt>
<pdfrwt beam="2">  1       -1 0.54404511E-01 0.11519252E+04</pdfrwt>
<totfact> 0.57409641E+01</totfact>
</mgrwt>
</event>
<event>
 6    1  0.1014650E-006  0.3813692E+04  0.7818608E-02  0.8043223E-01
         -1   -1    0    0    0  501 -0.00000000000E+00  0.00000000000E+00  0.20022449444E+04  0.20022449444E+04  0.00000000000E+00 0.  1.
          1   -1    0    0  501    0  0.00000000000E+00 -0.00000000000E+00 -0.18159926447E+04  0.18159926447E+04  0.00000000000E+00 0. -1.
         23    2    1    2    0    0 -0.11275386954E+04 -0.10837161565E+04  0.11835170467E+04  0.19634273042E+04  0.92466002711E+02 0.  0.
         11    1    3    3    0    0 -0.55251806638E+03 -0.59099573209E+03  0.59084677534E+03  0.10018243763E+04  0.00000000000E+00 0. -1.
        -11    1    3    3    0    0 -0.57502062906E+03 -0.49272042439E+03  0.59267027133E+03  0.96160292792E+03  0.00000000000E+00 0.  1.
         22    1    1    2    0    0  0.11275386954E+04  0.10837161565E+04 -0.99726474696E+03  0.18548102849E+04  0.00000000000E+00 0. -1.
<mgrwt>
<rscale>  0 0.38136922E+04</rscale>
<asrwt>0</asrwt>
<pdfrwt beam="1">  1        1 0.27938348E+00 0.38136922E+04</pdfrwt>
<pdfrwt beam="2">  1       -1 0.30803768E+00 0.38136922E+04</pdfrwt>
<totfact> 0.92465983E-02</totfact>
</mgrwt>
</event>
<event>
 6    1  0.1014650E-006  0.3588791E+04  0.7818608E-02  0.8093064E-01
         -2   -1    0    0    0  501 -0.00000000000E+00  0.00000000000E+00  0.12911581494E+04  0.12911581494E+04  0.00000000000E+00 0.  1.
          2   -1    0    0  501    0  0.00000000000E+00 -0.00000000000E+00 -0.24937722573E+04  0.24937722573E+04  0.00000000000E+00 0. -1.
         23    2    1    2    0    0 -0.12939492390E+04  0.27845450624E+03  0.67431306748E+03  0.14882595190E+04  0.91524519100E+02 0.  0.
         11    1    3    3    0    0 -0.38440717414E+03  0.46354121925E+02  0.22133505343E+03  0.44598967031E+03  0.00000000000E+00 0. -1.
        -11    1    3    3    0    0 -0.90954206489E+03  0.23210038432E+03  0.45297801405E+03  0.10422698487E+04  0.00000000000E+00 0.  1.
         22    1    1    2    0    0  0.12939492390E+04 -0.27845450624E+03 -0.18769271754E+04  0.22966708878E+04  0.00000000000E+00 0. -1.
<mgrwt>
<rscale>  0 0.35887905E+04</rscale>
<asrwt>0</asrwt>
<pdfrwt beam="1">  1        2 0.38365727E+00 0.35887905E+04</pdfrwt>
<pdfrwt beam="2">  1       -2 0.19863971E+00 0.35887905E+04</pdfrwt>
<totfact> 0.38874982E-01</totfact>
</mgrwt>
</event>
<event>
 6    1  0.1014650E-006  0.1820624E+04  0.7818608E-02  0.8695408E-01
          2   -1    0    0  501    0  0.00000000000E+00  0.00000000000E+00  0.30179685315E+04  0.30179685315E+04  0.00000000000E+00 0. -1.
         -2   -1    0    0    0  501 -0.00000000000E+00 -0.00000000000E+00 -0.27457799160E+03  0.27457799160E+03  0.00000000000E+00 0.  1.
         23    2    1    2    0    0  0.69311924047E+03 -0.38680531527E+03  0.21718663045E+04  0.23144501142E+04  0.98201084818E+02 0.  0.
         13    1    3    3    0    0  0.57504399421E+02 -0.31174020448E+02  0.11318430495E+03  0.13072590558E+03  0.00000000000E+00 0.  1.
        -13    1    3    3    0    0  0.63561484105E+03 -0.35563129483E+03  0.20586819995E+04  0.21837242086E+04  0.00000000000E+00 0. -1.
         22    1    1    2    0    0 -0.69311924047E+03  0.38680531527E+03  0.57152423539E+03  0.97809640888E+03  0.00000000000E+00 0.  1.
<mgrwt>
<rscale>  0 0.18206238E+04</rscale>
<asrwt>0</asrwt>
<pdfrwt beam="1">  1        2 0.46430283E+00 0.18206238E+04</pdfrwt>
<pdfrwt beam="2">  1       -2 0.42242770E-01 0.18206238E+04</pdfrwt>
<totfact> 0.85252090E+00</totfact>
</mgrwt>
</event>
<event>
 6    1  0.1014650E-006  0.1900483E+04  0.7818608E-02  0.8654616E-01
         -2   -1    0    0    0  501 -0.00000000000E+00  0.00000000000E+00  0.53686037060E+03  0.53686037060E+03  0.00000000000E+00 0.  1.
          2   -1    0    0  501    0  0.00000000000E+00 -0.00000000000E+00 -0.16819255521E+04  0.16819255521E+04  0.00000000000E+00 0. -1.
         23    2    1    2    0    0 -0.35558859503E+03 -0.79719739187E+03 -0.14186231510E+03  0.88898032727E+03  0.90521684216E+02 0.  0.
         13    1    3    3    0    0 -0.15043580290E+03 -0.42216063381E+03 -0.43042307711E+02  0.45022568983E+03  0.00000000000E+00 0. -1.
        -13    1    3    3    0    0 -0.20515279212E+03 -0.37503675806E+03 -0.98820007392E+02  0.43875463744E+03  0.00000000000E+00 0.  1.
         22    1    1    2    0    0  0.35558859503E+03  0.79719739187E+03 -0.10032028664E+04  0.13298055955E+04  0.00000000000E+00 0.  1.
<mgrwt>
<rscale>  0 0.19004833E+04</rscale>
<asrwt>0</asrwt>
<pdfrwt beam="1">  1        2 0.25875777E+00 0.19004833E+04</pdfrwt>
<pdfrwt beam="2">  1       -2 0.82593904E-01 0.19004833E+04</pdfrwt>
<totfact> 0.12089097E+01</totfact>
</mgrwt>
</event>
<event>
 6    1  0.1014650E-006  0.1480210E+04  0.7818608E-02  0.8897721E-01
          2   -1    0    0  501    0  0.00000000000E+00  0.00000000000E+00  0.63483302396E+03  0.63483302396E+03  0.00000000000E+00 0. -1.
         -2   -1    0    0    0  501 -0.00000000000E+00 -0.00000000000E+00 -0.86283418248E+03  0.86283418248E+03  0.00000000000E+00 0.  1.
         23    2    1    2    0    0 -0.98570999047E+02 -0.16447224338E+03  0.60597007399E+03  0.64193630402E+03  0.90084000514E+02 0.  0.
         13    1    3    3    0    0 -0.58462479426E+02 -0.15244278577E+03  0.40540636162E+03  0.43704803223E+03  0.00000000000E+00 0.  1.
        -13    1    3    3    0    0 -0.40108519621E+02 -0.12029457612E+02  0.20056371237E+03  0.20488827179E+03  0.00000000000E+00 0. -1.
         22    1    1    2    0    0  0.98570999047E+02  0.16447224338E+03 -0.83397123251E+03  0.85573090242E+03  0.00000000000E+00 0.  1.
<mgrwt>
<rscale>  0 0.14802103E+04</rscale>
<asrwt>0</asrwt>
<pdfrwt beam="1">  1        2 0.97666619E-01 0.14802103E+04</pdfrwt>
<pdfrwt beam="2">  1       -2 0.13274372E+00 0.14802103E+04</pdfrwt>
<totfact> 0.18440925E+01</totfact>
</mgrwt>
</event>
<event>
 6    1  0.1014650E-006  0.2114052E+04  0.7818608E-02  0.8555078E-01
          1   -1    0    0  501    0  0.00000000000E+00  0.00000000000E+00  0.12845721200E+04  0.12845721200E+04  0.00000000000E+00 0. -1.
         -1   -1    0    0    0  501 -0.00000000000E+00 -0.00000000000E+00 -0.86978695091E+03  0.86978695091E+03  0.00000000000E+00 0.  1.
         23    2    1    2    0    0  0.87701550233E+02  0.96692500481E+03 -0.21347689265E+03  0.99792111536E+03  0.87399324558E+02 0.  0.
         13    1    3    3    0    0  0.10871526548E+02  0.57851670775E+03 -0.11526428057E+03  0.58998781819E+03  0.00000000000E+00 0. -1.
        -13    1    3    3    0    0  0.76830023685E+02  0.38840829706E+03 -0.98212612085E+02  0.40793329717E+03  0.00000000000E+00 0.  1.
         22    1    1    2    0    0 -0.87701550233E+02 -0.96692500481E+03  0.62826206178E+03  0.11564379556E+04  0.00000000000E+00 0. -1.
<mgrwt>
<rscale>  0 0.21140521E+04</rscale>
<asrwt>0</asrwt>
<pdfrwt beam="1">  1        1 0.19762648E+00 0.21140521E+04</pdfrwt>
<pdfrwt beam="2">  1       -1 0.13381338E+00 0.21140521E+04</pdfrwt>
<totfact> 0.40163090E+00</totfact>
</mgrwt>
</event>
<event>
 6    1  0.1014650E-006  0.9488882E+03  0.7818608E-02  0.9366451E-01
          1   -1    0    0  501    0  0.00000000000E+00  0.00000000000E+00  0.44763247903E+03  0.44763247903E+03  0.00000000000E+00 0. -1.
         -1   -1    0    0    0  501 -0.00000000000E+00 -0.00000000000E+00 -0.50286163166E+03  0.50286163166E+03  0.00000000000E+00 0.  1.
         23    2    1    2    0    0  0.18899543622E+03 -0.40169755044E+03  0.12677449442E+03  0.47069673212E+03  0.91670301876E+02 0.  0.
         11    1    3    3    0    0  0.39784641674E+02 -0.65818459341E+02  0.59086889207E+02  0.96985296717E+02  0.00000000000E+00 0.  1.
        -11    1    3    3    0    0  0.14921079455E+03 -0.33587909110E+03  0.67687605209E+02  0.37371143540E+03  0.00000000000E+00 0. -1.
         22    1    1    2    0    0 -0.18899543622E+03  0.40169755044E+03 -0.18200364704E+03  0.47979737857E+03  0.00000000000E+00 0.  1.
<mgrwt>
<rscale>  0 0.94888819E+03</rscale>
<asrwt>0</asrwt>
<pdfrwt beam="1">  1        1 0.68866535E-01 0.94888819E+03</pdfrwt>
<pdfrwt beam="2">  1       -1 0.77363328E-01 0.94888819E+03</pdfrwt>
<totfact> 0.86900577E+01</totfact>
</mgrwt>
</event>
<event>
 6    1  0.1014650E-006  0.8421693E+03  0.7818608E-02  0.9500908E-01
          3   -1    0    0  501    0  0.00000000000E+00  0.00000000000E+00  0.22501818464E+03  0.22501818464E+03  0.00000000000E+00 0. -1.
         -3   -1    0    0    0  501 -0.00000000000E+00 -0.00000000000E+00 -0.78799091517E+03  0.78799091517E+03  0.00000000000E+00 0.  1.
         23    2    1    2    0    0 -0.30635927821E+03 -0.22364238445E+03 -0.48981237679E+03  0.62671340889E+03  0.94771350959E+02 0.  0.
         11    1    3    3    0    0 -0.20089880129E+02 -0.50967248287E+02 -0.49262310713E+02  0.73675226083E+02  0.00000000000E+00 0.  1.
        -11    1    3    3    0    0 -0.28626939808E+03 -0.17267513616E+03 -0.44055006607E+03  0.55303818281E+03  0.00000000000E+00 0. -1.
         22    1    1    2    0    0  0.30635927821E+03  0.22364238445E+03 -0.73160353738E+02  0.38629569092E+03  0.00000000000E+00 0. -1.
<mgrwt>
<rscale>  0 0.84216931E+03</rscale>
<asrwt>0</asrwt>
<pdfrwt beam="1">  1        3 0.34618183E-01 0.84216931E+03</pdfrwt>
<pdfrwt beam="2">  1       -3 0.12122937E+00 0.84216931E+03</pdfrwt>
<totfact> 0.11964698E+01</totfact>
</mgrwt>
</event>
<event>
 6    1  0.1014650E-006  0.3484004E+04  0.7818608E-02  0.8117591E-01
         -2   -1    0    0    0  501 -0.00000000000E+00  0.00000000000E+00  0.12182217463E+04  0.12182217463E+04  0.00000000000E+00 0.  1.
          2   -1    0    0  501    0  0.00000000000E+00 -0.00000000000E+00 -0.24909842246E+04  0.24909842246E+04  0.00000000000E+00 0. -1.
         23    2    1    2    0    0 -0.50031096650E+03 -0.77864091030E+03 -0.22065283881E+04  0.23944772900E+04  0.90339550635E+02 0.  0.
         11    1    3    3    0    0 -0.34609269943E+03 -0.60138067022E+03 -0.15962603724E+04  0.17405418822E+04  0.00000000000E+00 0. -1.
        -11    1    3    3    0    0 -0.15421826707E+03 -0.17726024007E+03 -0.61026801565E+03  0.65393540777E+03  0.00000000000E+00 0.  1.
         22    1    1    2    0    0  0.50031096650E+03  0.77864091030E+03  0.93376590979E+03  0.13147286810E+04  0.00000000000E+00 0.  1.
<mgrwt>
<rscale>  0 0.34840041E+04</rscale>
<asrwt>0</asrwt>
<pdfrwt beam="1">  1        2 0.38322834E+00 0.34840041E+04</pdfrwt>
<pdfrwt beam="2">  1       -2 0.18741873E+00 0.34840041E+04</pdfrwt>
<totfact> 0.46764349E-01</totfact>
</mgrwt>
</event>
<event>
 6    1  0.1014650E-006  0.1787237E+04  0.7818608E-02  0.8713116E-01
          2   -1    0    0  501    0  0.00000000000E+00  0.00000000000E+00  0.62551632207E+03  0.62551632207E+03  0.00000000000E+00 0. -1.
         -2   -1    0    0    0  501 -0.00000000000E+00 -0.00000000000E+00 -0.12766311798E+04  0.12766311798E+04  0.00000000000E+00 0.  1.
         23    2    1    2    0    0 -0.41640192151E+02  0.22366241329E+03  0.58900364881E+03  0.64133320507E+03  0.11235746924E+03 0.  0.
         11    1    3    3    0    0 -0.45322465273E+02  0.82057365558E+02  0.36046739675E+03  0.37245708642E+03  0.00000000000E+00 0. -1.
        -11    1    3    3    0    0  0.36822731221E+01  0.14160504773E+03  0.22853625206E+03  0.26887611865E+03  0.00000000000E+00 0.  1.
         22    1    1    2    0    0  0.41640192151E+02 -0.22366241329E+03 -0.12401185065E+04  0.12608142967E+04  0.00000000000E+00 0.  1.
<mgrwt>
<rscale>  0 0.17872366E+04</rscale>
<asrwt>0</asrwt>
<pdfrwt beam="1">  1        2 0.96233281E-01 0.17872366E+04</pdfrwt>
<pdfrwt beam="2">  1       -2 0.19640479E+00 0.17872366E+04</pdfrwt>
<totfact> 0.62526763E+00</totfact>
</mgrwt>
</event>
<event>
 6    1  0.1014650E-006  0.1851766E+04  0.7818608E-02  0.8679245E-01
          1   -1    0    0  501    0  0.00000000000E+00  0.00000000000E+00  0.11063964658E+04  0.11063964658E+04  0.00000000000E+00 0. -1.
         -1   -1    0    0    0  501 -0.00000000000E+00 -0.00000000000E+00 -0.77482098128E+03  0.77482098128E+03  0.00000000000E+00 0.  1.
         23    2    1    2    0    0  0.53684034634E+03  0.71003231283E+03 -0.84431146549E+02  0.89866721435E+03  0.90170399321E+02 0.  0.
         11    1    3    3    0    0  0.22288349216E+03  0.36487530044E+03 -0.56003995726E+02  0.43121628388E+03  0.00000000000E+00 0.  1.
        -11    1    3    3    0    0  0.31395685418E+03  0.34515701240E+03 -0.28427150823E+02  0.46745093047E+03  0.00000000000E+00 0. -1.
         22    1    1    2    0    0 -0.53684034634E+03 -0.71003231283E+03  0.41600663104E+03  0.98255023271E+03  0.00000000000E+00 0. -1.
<mgrwt>
<rscale>  0 0.18517659E+04</rscale>
<asrwt>0</asrwt>
<pdfrwt beam="1">  1        1 0.17021484E+00 0.18517659E+04</pdfrwt>
<pdfrwt beam="2">  1       -1 0.11920323E+00 0.18517659E+04</pdfrwt>
<totfact> 0.74136496E+00</totfact>
</mgrwt>
</event>
<event>
 6    1  0.1014650E-006  0.3434133E+04  0.7818608E-02  0.8129579E-01
         -1   -1    0    0    0  501 -0.00000000000E+00  0.00000000000E+00  0.12167864400E+04  0.12167864400E+04  0.00000000000E+00 0.  1.
          1   -1    0    0  501    0  0.00000000000E+00 -0.00000000000E+00 -0.24230356566E+04  0.24230356566E+04  0.00000000000E+00 0. -1.
         23    2    1    2    0    0  0.16249628045E+04 -0.22250366822E+03 -0.69218036527E+02  0.16441137255E+04  0.91141687822E+02 0.  0.
         11    1    3    3    0    0  0.36399818879E+03 -0.88081956909E+02 -0.20772756699E+02  0.37507948490E+03  0.00000000000E+00 0.  1.
        -11    1    3    3    0    0  0.12609646157E+04 -0.13442171131E+03 -0.48445279828E+02  0.12690342406E+04  0.00000000000E+00 0. -1.
         22    1    1    2    0    0 -0.16249628045E+04  0.22250366822E+03 -0.11370311800E+04  0.19957083712E+04  0.00000000000E+00 0. -1.
<mgrwt>
<rscale>  0 0.34341327E+04</rscale>
<asrwt>0</asrwt>
<pdfrwt beam="1">  1        1 0.37277471E+00 0.34341327E+04</pdfrwt>
<pdfrwt beam="2">  1       -1 0.18719792E+00 0.34341327E+04</pdfrwt>
<totfact> 0.23231137E-01</totfact>
</mgrwt>
</event>
<event>
 6    1  0.1014650E-006  0.8904952E+03  0.7818608E-02  0.9437541E-01
          2   -1    0    0  501    0  0.00000000000E+00  0.00000000000E+00  0.33189993144E+03  0.33189993144E+03  0.00000000000E+00 0. -1.
         -2   -1    0    0    0  501 -0.00000000000E+00 -0.00000000000E+00 -0.59730480586E+03  0.59730480586E+03  0.00000000000E+00 0.  1.
         23    2    1    2    0    0 -0.14833675370E+03 -0.13566933740E+03 -0.54297614681E+03  0.58648652525E+03  0.93452590552E+02 0.  0.
         11    1    3    3    0    0 -0.41595024330E+02 -0.14098877296E+02 -0.23014678369E+03  0.23429994970E+03  0.00000000000E+00 0. -1.
        -11    1    3    3    0    0 -0.10674172937E+03 -0.12157046011E+03 -0.31282936312E+03  0.35218657554E+03  0.00000000000E+00 0.  1.
         22    1    1    2    0    0  0.14833675370E+03  0.13566933740E+03  0.27757127239E+03  0.34271821204E+03  0.00000000000E+00 0. -1.
<mgrwt>
<rscale>  0 0.89049520E+03</rscale>
<asrwt>0</asrwt>
<pdfrwt beam="1">  1        2 0.51061528E-01 0.89049520E+03</pdfrwt>
<pdfrwt beam="2">  1       -2 0.91893047E-01 0.89049520E+03</pdfrwt>
<totfact> 0.99165257E+01</totfact>
</mgrwt>
</event>
<event>
 6    1  0.1014650E-006  0.9826040E+03  0.7818608E-02  0.9327833E-01
          1   -1    0    0  501    0  0.00000000000E+00  0.00000000000E+00  0.19658646956E+04  0.19658646956E+04  0.00000000000E+00 0. -1.
         -1   -1    0    0    0  501 -0.00000000000E+00 -0.00000000000E+00 -0.12278447836E+03  0.12278447836E+03  0.00000000000E+00 0.  1.
         23    2    1    2    0    0  0.32038291157E+03 -0.35342246095E+03  0.11015525544E+04  0.12069372478E+04  0.12540671492E+03 0.  0.
         11    1    3    3    0    0  0.75094657360E+02 -0.87756713236E+02  0.41769910792E+03  0.43337396443E+03  0.00000000000E+00 0. -1.
        -11    1    3    3    0    0  0.24528825421E+03 -0.26566574771E+03  0.68385344645E+03  0.77356328337E+03  0.00000000000E+00 0.  1.
         22    1    1    2    0    0 -0.32038291157E+03  0.35342246095E+03  0.74152766286E+03  0.88171192615E+03  0.00000000000E+00 0.  1.
<mgrwt>
<rscale>  0 0.98260403E+03</rscale>
<asrwt>0</asrwt>
<pdfrwt beam="1">  1        1 0.30244070E+00 0.98260403E+03</pdfrwt>
<pdfrwt beam="2">  1       -1 0.18889921E-01 0.98260403E+03</pdfrwt>
<totfact> 0.71329966E+01</totfact>
</mgrwt>
</event>
<event>
 6    1  0.1014650E-006  0.5596228E+03  0.7818608E-02  0.9992909E-01
          2   -1    0    0  501    0  0.00000000000E+00  0.00000000000E+00  0.91258699489E+02  0.91258699489E+02  0.00000000000E+00 0. -1.
         -2   -1    0    0    0  501 -0.00000000000E+00 -0.00000000000E+00 -0.85793917060E+03  0.85793917060E+03  0.00000000000E+00 0.  1.
         23    2    1    2    0    0  0.16556796101E+03 -0.21636593423E+03 -0.43001952679E+03  0.51610716522E+03  0.84987324706E+02 0.  0.
         13    1    3    3    0    0  0.33311568706E+02 -0.97731683065E+02 -0.11588888319E+03  0.15521396758E+03  0.00000000000E+00 0. -1.
        -13    1    3    3    0    0  0.13225639231E+03 -0.11863425117E+03 -0.31413064359E+03  0.36089319764E+03  0.00000000000E+00 0.  1.
         22    1    1    2    0    0 -0.16556796101E+03  0.21636593423E+03 -0.33666094432E+03  0.43309070487E+03  0.00000000000E+00 0.  1.
<mgrwt>
<rscale>  0 0.55962278E+03</rscale>
<asrwt>0</asrwt>
<pdfrwt beam="1">  1        2 0.14039799E-01 0.55962278E+03</pdfrwt>
<pdfrwt beam="2">  1       -2 0.13199065E+00 0.55962278E+03</pdfrwt>
<totfact> 0.18443086E+02</totfact>
</mgrwt>
</event>
<event>
 6    1  0.1014650E-006  0.2007379E+04  0.7818608E-02  0.8603178E-01
         -2   -1    0    0    0  501 -0.00000000000E+00  0.00000000000E+00  0.10729016490E+04  0.10729016490E+04  0.00000000000E+00 0.  1.
          2   -1    0    0  501    0  0.00000000000E+00 -0.00000000000E+00 -0.93894225457E+03  0.93894225457E+03  0.00000000000E+00 0. -1.
         23    2    1    2    0    0 -0.42657543425E+03 -0.40938145627E+02  0.97447669650E+03  0.10683865024E+04  0.90566845629E+02 0.  0.
         11    1    3    3    0    0 -0.28629025702E+03  0.28168927438E+01  0.56622311479E+03  0.63449086824E+03  0.00000000000E+00 0.  1.
        -11    1    3    3    0    0 -0.14028517723E+03 -0.43755038371E+02  0.40825358171E+03  0.43389563412E+03  0.00000000000E+00 0. -1.
         22    1    1    2    0    0  0.42657543425E+03  0.40938145627E+02 -0.84051730205E+03  0.94345740122E+03  0.00000000000E+00 0. -1.
<mgrwt>
<rscale>  0 0.20073791E+04</rscale>
<asrwt>0</asrwt>
<pdfrwt beam="1">  1        2 0.14445265E+00 0.20073791E+04</pdfrwt>
<pdfrwt beam="2">  1       -2 0.16506179E+00 0.20073791E+04</pdfrwt>
<totfact> 0.59277927E+00</totfact>
</mgrwt>
</event>
<event>
 6    1  0.1014650E-006  0.2307581E+04  0.7818608E-02  0.8474938E-01
          2   -1    0    0  501    0  0.00000000000E+00  0.00000000000E+00  0.15781468544E+04  0.15781468544E+04  0.00000000000E+00 0. -1.
         -2   -1    0    0    0  501 -0.00000000000E+00 -0.00000000000E+00 -0.84354152238E+03  0.84354152238E+03  0.00000000000E+00 0.  1.
         23    2    1    2    0    0 -0.31020498822E+03 -0.61933724668E+03  0.13339014530E+04  0.15057399063E+04  0.90298499656E+02 0.  0.
         13    1    3    3    0    0 -0.50942051512E+02 -0.45569388371E+02  0.14955023231E+03  0.16442911467E+03  0.00000000000E+00 0. -1.
        -13    1    3    3    0    0 -0.25926293671E+03 -0.57376785831E+03  0.11843512207E+04  0.13413107916E+04  0.00000000000E+00 0.  1.
         22    1    1    2    0    0  0.31020498822E+03  0.61933724668E+03 -0.59929612106E+03  0.91594847048E+03  0.00000000000E+00 0.  1.
<mgrwt>
<rscale>  0 0.23075809E+04</rscale>
<asrwt>0</asrwt>
<pdfrwt beam="1">  1        2 0.24279182E+00 0.23075809E+04</pdfrwt>
<pdfrwt beam="2">  1       -2 0.12977562E+00 0.23075809E+04</pdfrwt>
<totfact> 0.45343366E+00</totfact>
</mgrwt>
</event>
<event>
 6    1  0.1014650E-006  0.3323975E+04  0.7818608E-02  0.8156822E-01
         -1   -1    0    0    0  501 -0.00000000000E+00  0.00000000000E+00  0.18863108994E+04  0.18863108994E+04  0.00000000000E+00 0.  1.
          1   -1    0    0  501    0  0.00000000000E+00 -0.00000000000E+00 -0.14643408482E+04  0.14643408482E+04  0.00000000000E+00 0. -1.
         23    2    1    2    0    0 -0.30222666195E+03 -0.13435351161E+04  0.11461541083E+04  0.17947371896E+04  0.10480828330E+03 0.  0.
         13    1    3    3    0    0 -0.51965301165E+01 -0.11274919189E+03  0.68040826776E+02  0.13179126794E+03  0.00000000000E+00 0. -1.
        -13    1    3    3    0    0 -0.29703013183E+03 -0.12307859242E+04  0.10781132815E+04  0.16629459216E+04  0.00000000000E+00 0.  1.
         22    1    1    2    0    0  0.30222666195E+03  0.13435351161E+04 -0.72418405710E+03  0.15559145581E+04  0.00000000000E+00 0. -1.
<mgrwt>
<rscale>  0 0.33239748E+04</rscale>
<asrwt>0</asrwt>
<pdfrwt beam="1">  1        1 0.22528321E+00 0.33239748E+04</pdfrwt>
<pdfrwt beam="2">  1       -1 0.29020168E+00 0.33239748E+04</pdfrwt>
<totfact> 0.21917760E-01</totfact>
</mgrwt>
</event>
<event>
 6    1  0.1014650E-006  0.1020733E+04  0.7818608E-02  0.9286093E-01
          2   -1    0    0  501    0  0.00000000000E+00  0.00000000000E+00  0.62127669113E+03  0.62127669113E+03  0.00000000000E+00 0. -1.
         -2   -1    0    0    0  501 -0.00000000000E+00 -0.00000000000E+00 -0.41925597302E+03  0.41925597302E+03  0.00000000000E+00 0.  1.
         23    2    1    2    0    0 -0.32865819290E+03 -0.56519497412E+02 -0.28648965208E+03  0.44904890011E+03  0.91421729326E+02 0.  0.
         13    1    3    3    0    0 -0.23139317648E+03 -0.19979992213E+00 -0.16961694342E+03  0.28690198594E+03  0.00000000000E+00 0. -1.
        -13    1    3    3    0    0 -0.97265016414E+02 -0.56319697490E+02 -0.11687270866E+03  0.16214691417E+03  0.00000000000E+00 0.  1.
         22    1    1    2    0    0  0.32865819290E+03  0.56519497412E+02  0.48851037019E+03  0.59148376404E+03  0.00000000000E+00 0. -1.
<mgrwt>
<rscale>  0 0.10207330E+04</rscale>
<asrwt>0</asrwt>
<pdfrwt beam="1">  1        2 0.95581029E-01 0.10207330E+04</pdfrwt>
<pdfrwt beam="2">  1       -2 0.64500919E-01 0.10207330E+04</pdfrwt>
<totfact> 0.10529794E+02</totfact>
</mgrwt>
</event>
<event>
 6    1  0.1014650E-006  0.3656962E+04  0.7818608E-02  0.8077567E-01
         -1   -1    0    0    0  501 -0.00000000000E+00  0.00000000000E+00  0.20862329011E+04  0.20862329011E+04  0.00000000000E+00 0.  1.
          1   -1    0    0  501    0  0.00000000000E+00 -0.00000000000E+00 -0.16025743688E+04  0.16025743688E+04  0.00000000000E+00 0. -1.
         23    2    1    2    0    0  0.95812557348E+03 -0.15367683892E+04 -0.27213776685E+01  0.18136467132E+04  0.98210476026E+02 0.  0.
         13    1    3    3    0    0  0.70645795721E+03 -0.11569498501E+04  0.38688024717E+02  0.13561388440E+04  0.00000000000E+00 0.  1.
        -13    1    3    3    0    0  0.25166761626E+03 -0.37981853915E+03 -0.41409402386E+02  0.45750786918E+03  0.00000000000E+00 0. -1.
         22    1    1    2    0    0 -0.95812557348E+03  0.15367683892E+04  0.48637991003E+03  0.18751605567E+04  0.00000000000E+00 0.  1.
<mgrwt>
<rscale>  0 0.36569623E+04</rscale>
<asrwt>0</asrwt>
<pdfrwt beam="1">  1        1 0.24654990E+00 0.36569623E+04</pdfrwt>
<pdfrwt beam="2">  1       -1 0.32095891E+00 0.36569623E+04</pdfrwt>
<totfact> 0.10793301E-01</totfact>
</mgrwt>
</event>
<event>
 6    1  0.1014650E-006  0.4842728E+04  0.7818608E-02  0.7853237E-01
          1   -1    0    0  501    0  0.00000000000E+00  0.00000000000E+00  0.38147174888E+04  0.38147174888E+04  0.00000000000E+00 0. -1.
         -1   -1    0    0    0  501 -0.00000000000E+00 -0.00000000000E+00 -0.15369431516E+04  0.15369431516E+04  0.00000000000E+00 0.  1.
         23    2    1    2    0    0  0.22090596812E+04 -0.97647738110E+03  0.96207452042E+03  0.26012936179E+04  0.87683254009E+02 0.  0.
         13    1    3    3    0    0  0.98391140319E+03 -0.42954306158E+03  0.38111403199E+03  0.11392264026E+04  0.00000000000E+00 0.  1.
        -13    1    3    3    0    0  0.12251482780E+04 -0.54693431952E+03  0.58096048843E+03  0.14620672153E+04  0.00000000000E+00 0. -1.
         22    1    1    2    0    0 -0.22090596812E+04  0.97647738110E+03  0.13156998168E+04  0.27503670226E+04  0.00000000000E+00 0. -1.
<mgrwt>
<rscale>  0 0.48427281E+04</rscale>
<asrwt>0</asrwt>
<pdfrwt beam="1">  1        1 0.58687961E+00 0.48427281E+04</pdfrwt>
<pdfrwt beam="2">  1       -1 0.23645279E+00 0.48427281E+04</pdfrwt>
<totfact> 0.86418912E-03</totfact>
</mgrwt>
</event>
<event>
 6    1  0.1014650E-006  0.2455466E+04  0.7818608E-02  0.8419025E-01
          2   -1    0    0  501    0  0.00000000000E+00  0.00000000000E+00  0.19761340723E+04  0.19761340723E+04  0.00000000000E+00 0. -1.
         -2   -1    0    0    0  501 -0.00000000000E+00 -0.00000000000E+00 -0.76276643944E+03  0.76276643944E+03  0.00000000000E+00 0.  1.
         23    2    1    2    0    0  0.34507122561E+02 -0.12046739062E+04  0.36088732529E+03  0.12627051871E+04  0.10841939968E+03 0.  0.
         13    1    3    3    0    0  0.69153586328E+02 -0.83381766572E+03  0.22734120074E+03  0.86701680475E+03  0.00000000000E+00 0.  1.
        -13    1    3    3    0    0 -0.34646463767E+02 -0.37085624044E+03  0.13354612455E+03  0.39568838232E+03  0.00000000000E+00 0. -1.
         22    1    1    2    0    0 -0.34507122561E+02  0.12046739062E+04  0.85248030753E+03  0.14761953246E+04  0.00000000000E+00 0.  1.
<mgrwt>
<rscale>  0 0.24554664E+04</rscale>
<asrwt>0</asrwt>
<pdfrwt beam="1">  1        2 0.30402062E+00 0.24554664E+04</pdfrwt>
<pdfrwt beam="2">  1       -2 0.11734868E+00 0.24554664E+04</pdfrwt>
<totfact> 0.34603818E+00</totfact>
</mgrwt>
</event>
<event>
 6    1  0.1014650E-006  0.2275690E+04  0.7818608E-02  0.8487568E-01
          1   -1    0    0  501    0  0.00000000000E+00  0.00000000000E+00  0.43409418327E+04  0.43409418327E+04  0.00000000000E+00 0. -1.
         -1   -1    0    0    0  501 -0.00000000000E+00 -0.00000000000E+00 -0.29825121029E+03  0.29825121029E+03  0.00000000000E+00 0.  1.
         23    2    1    2    0    0  0.57235858314E+03 -0.65125059980E+03  0.35209104790E+04  0.36272759468E+04  0.92728108323E+02 0.  0.
         11    1    3    3    0    0  0.24427106400E+03 -0.28528606768E+03  0.17178116093E+04  0.17583893819E+04  0.00000000000E+00 0.  1.
        -11    1    3    3    0    0  0.32808751914E+03 -0.36596453211E+03  0.18030988697E+04  0.18688865650E+04  0.00000000000E+00 0. -1.
         22    1    1    2    0    0 -0.57235858314E+03  0.65125059980E+03  0.52178014344E+03  0.10119170962E+04  0.00000000000E+00 0.  1.
<mgrwt>
<rscale>  0 0.22756899E+04</rscale>
<asrwt>0</asrwt>
<pdfrwt beam="1">  1        1 0.66783716E+00 0.22756899E+04</pdfrwt>
<pdfrwt beam="2">  1       -1 0.45884805E-01 0.22756899E+04</pdfrwt>
<totfact> 0.20008419E-01</totfact>
</mgrwt>
</event>
<event>
 6    1  0.1014650E-006  0.2987148E+04  0.7818608E-02  0.8247410E-01
         -1   -1    0    0    0  501 -0.00000000000E+00  0.00000000000E+00  0.12319321646E+04  0.12319321646E+04  0.00000000000E+00 0.  1.
          1   -1    0    0  501    0  0.00000000000E+00 -0.00000000000E+00 -0.18107845601E+04  0.18107845601E+04  0.00000000000E+00 0. -1.
         23    2    1    2    0    0  0.12043623219E+04  0.72776390201E+03  0.21659907007E+03  0.14262786858E+04  0.85010781791E+02 0.  0.
         13    1    3    3    0    0  0.24169411884E+03  0.12473145928E+03  0.13494940070E+02  0.27231617180E+03  0.00000000000E+00 0.  1.
        -13    1    3    3    0    0  0.96266820304E+03  0.60303244273E+03  0.20310413000E+03  0.11539625140E+04  0.00000000000E+00 0. -1.
         22    1    1    2    0    0 -0.12043623219E+04 -0.72776390201E+03 -0.79545146553E+03  0.16164380389E+04  0.00000000000E+00 0. -1.
<mgrwt>
<rscale>  0 0.29871483E+04</rscale>
<asrwt>0</asrwt>
<pdfrwt beam="1">  1        1 0.27858224E+00 0.29871483E+04</pdfrwt>
<pdfrwt beam="2">  1       -1 0.18952803E+00 0.29871483E+04</pdfrwt>
<totfact> 0.60771245E-01</totfact>
</mgrwt>
</event>
<event>
 6    1  0.1014650E-006  0.3760857E+04  0.7818608E-02  0.8054608E-01
         -2   -1    0    0    0  501 -0.00000000000E+00  0.00000000000E+00  0.11851130852E+04  0.11851130852E+04  0.00000000000E+00 0.  1.
          2   -1    0    0  501    0  0.00000000000E+00 -0.00000000000E+00 -0.29836903576E+04  0.29836903576E+04  0.00000000000E+00 0. -1.
         23    2    1    2    0    0 -0.61550481440E+03  0.14854013455E+04 -0.19782607989E+04  0.25509191752E+04  0.91703413023E+02 0.  0.
         13    1    3    3    0    0 -0.43810489997E+03  0.94285913818E+03 -0.12806526760E+04  0.16495425228E+04  0.00000000000E+00 0.  1.
        -13    1    3    3    0    0 -0.17739991444E+03  0.54254220732E+03 -0.69760812287E+03  0.90137665238E+03  0.00000000000E+00 0. -1.
         22    1    1    2    0    0  0.61550481440E+03 -0.14854013455E+04  0.17968352644E+03  0.16178842676E+04  0.00000000000E+00 0.  1.
<mgrwt>
<rscale>  0 0.37608565E+04</rscale>
<asrwt>0</asrwt>
<pdfrwt beam="1">  1        2 0.45902928E+00 0.37608565E+04</pdfrwt>
<pdfrwt beam="2">  1       -2 0.18232509E+00 0.37608565E+04</pdfrwt>
<totfact> 0.25043025E-01</totfact>
</mgrwt>
</event>
<event>
 6    1  0.1014650E-006  0.1073174E+04  0.7818608E-02  0.9231740E-01
         -1   -1    0    0    0  501 -0.00000000000E+00  0.00000000000E+00  0.15267875474E+03  0.15267875474E+03  0.00000000000E+00 0.  1.
          1   -1    0    0  501    0  0.00000000000E+00 -0.00000000000E+00 -0.18858272251E+04  0.18858272251E+04  0.00000000000E+00 0. -1.
         23    2    1    2    0    0  0.19391205593E+03 -0.24042727648E+03 -0.16972453891E+04  0.17275458667E+04  0.91463926506E+02 0.  0.
         11    1    3    3    0    0  0.16942167436E+03 -0.20076484296E+03 -0.12162325724E+04  0.12442796696E+04  0.00000000000E+00 0. -1.
        -11    1    3    3    0    0  0.24490381568E+02 -0.39662433522E+02 -0.48101281670E+03  0.48326619709E+03  0.00000000000E+00 0.  1.
         22    1    1    2    0    0 -0.19391205593E+03  0.24042727648E+03 -0.35903081189E+02  0.31096011312E+03  0.00000000000E+00 0.  1.
<mgrwt>
<rscale>  0 0.10731743E+04</rscale>
<asrwt>0</asrwt>
<pdfrwt beam="1">  1        1 0.29012726E+00 0.10731743E+04</pdfrwt>
<pdfrwt beam="2">  1       -1 0.23489040E-01 0.10731743E+04</pdfrwt>
<totfact> 0.55539361E+01</totfact>
</mgrwt>
</event>
<event>
 6    1  0.1014650E-006  0.1448957E+04  0.7818608E-02  0.8919124E-01
          3   -1    0    0  501    0  0.00000000000E+00  0.00000000000E+00  0.56801744631E+03  0.56801744631E+03  0.00000000000E+00 0. -1.
         -3   -1    0    0    0  501 -0.00000000000E+00 -0.00000000000E+00 -0.92403678544E+03  0.92403678544E+03  0.00000000000E+00 0.  1.
         23    2    1    2    0    0 -0.50211045788E+03  0.21478042982E+03 -0.66488875319E+03  0.86464219816E+03  0.85343610126E+02 0.  0.
         11    1    3    3    0    0 -0.32136464238E+03  0.92553889968E+02 -0.39329945267E+03  0.51626147967E+03  0.00000000000E+00 0.  1.
        -11    1    3    3    0    0 -0.18074581549E+03  0.12222653985E+03 -0.27158930052E+03  0.34838071849E+03  0.00000000000E+00 0. -1.
         22    1    1    2    0    0  0.50211045788E+03 -0.21478042982E+03  0.30886941406E+03  0.62741203358E+03  0.00000000000E+00 0. -1.
<mgrwt>
<rscale>  0 0.14489569E+04</rscale>
<asrwt>0</asrwt>
<pdfrwt beam="1">  1        3 0.87387301E-01 0.14489569E+04</pdfrwt>
<pdfrwt beam="2">  1       -3 0.14215950E+00 0.14489569E+04</pdfrwt>
<totfact> 0.11226182E+00</totfact>
</mgrwt>
</event>
<event>
 6    1  0.1014650E-006  0.3146252E+04  0.7818608E-02  0.8203158E-01
         -2   -1    0    0    0  501 -0.00000000000E+00  0.00000000000E+00  0.66518386364E+03  0.66518386364E+03  0.00000000000E+00 0.  1.
          2   -1    0    0  501    0  0.00000000000E+00 -0.00000000000E+00 -0.37203636817E+04  0.37203636817E+04  0.00000000000E+00 0. -1.
         23    2    1    2    0    0  0.18675304770E+03  0.82689219084E+03  0.31607532407E+03  0.90934435372E+03  0.91521292878E+02 0.  0.
         13    1    3    3    0    0  0.12607975486E+03  0.37451047643E+03  0.12420495766E+03  0.41422345787E+03  0.00000000000E+00 0.  1.
        -13    1    3    3    0    0  0.60673292837E+02  0.45238171441E+03  0.19187036641E+03  0.49512089584E+03  0.00000000000E+00 0. -1.
         22    1    1    2    0    0 -0.18675304770E+03 -0.82689219084E+03 -0.33712551421E+04  0.34762031916E+04  0.00000000000E+00 0. -1.
<mgrwt>
<rscale>  0 0.31462523E+04</rscale>
<asrwt>0</asrwt>
<pdfrwt beam="1">  1        2 0.57236364E+00 0.31462523E+04</pdfrwt>
<pdfrwt beam="2">  1       -2 0.10233598E+00 0.31462523E+04</pdfrwt>
<totfact> 0.37228595E-01</totfact>
</mgrwt>
</event>
<event>
 6    1  0.1014650E-006  0.1578393E+04  0.7818608E-02  0.8833933E-01
          2   -1    0    0  501    0  0.00000000000E+00  0.00000000000E+00  0.12831319669E+04  0.12831319669E+04  0.00000000000E+00 0. -1.
         -2   -1    0    0    0  501 -0.00000000000E+00 -0.00000000000E+00 -0.48539908176E+03  0.48539908176E+03  0.00000000000E+00 0.  1.
         23    2    1    2    0    0 -0.41719613783E+03  0.66477959821E+03  0.34124354784E+03  0.86058443859E+03  0.90409542562E+02 0.  0.
         13    1    3    3    0    0 -0.53648678661E+02  0.15223515972E+03  0.61253504641E+02  0.17264332136E+03  0.00000000000E+00 0.  1.
        -13    1    3    3    0    0 -0.36354745917E+03  0.51254443849E+03  0.27999004320E+03  0.68794111723E+03  0.00000000000E+00 0. -1.
         22    1    1    2    0    0  0.41719613783E+03 -0.66477959821E+03  0.45648933726E+03  0.90794661002E+03  0.00000000000E+00 0.  1.
<mgrwt>
<rscale>  0 0.15783930E+04</rscale>
<asrwt>0</asrwt>
<pdfrwt beam="1">  1        2 0.19740492E+00 0.15783930E+04</pdfrwt>
<pdfrwt beam="2">  1       -2 0.74676782E-01 0.15783930E+04</pdfrwt>
<totfact> 0.26189084E+01</totfact>
</mgrwt>
</event>
<event>
 6    1  0.1907222E-006  0.2855317E+04  0.7818608E-02  0.8286298E-01
         -2   -1    0    0    0  501 -0.00000000000E+00  0.00000000000E+00  0.85582558384E+03  0.85582558384E+03  0.00000000000E+00 0.  1.
          2   -1    0    0  501    0  0.00000000000E+00 -0.00000000000E+00 -0.23815694879E+04  0.23815694879E+04  0.00000000000E+00 0. -1.
         23    2    1    2    0    0  0.24978018642E+03  0.68294562860E+03  0.62739737743E+03  0.96477054242E+03  0.91377552850E+02 0.  0.
         13    1    3    3    0    0  0.12758438396E+03  0.42162487644E+03  0.42718203347E+03  0.61362024183E+03  0.00000000000E+00 0.  1.
        -13    1    3    3    0    0  0.12219580246E+03  0.26132075216E+03  0.20021534396E+03  0.35115030059E+03  0.00000000000E+00 0. -1.
         22    1    1    2    0    0 -0.24978018642E+03 -0.68294562860E+03 -0.21531412815E+04  0.22726245293E+04  0.00000000000E+00 0. -1.
<mgrwt>
<rscale>  0 0.28553165E+04</rscale>
<asrwt>0</asrwt>
<pdfrwt beam="1">  1        2 0.36639530E+00 0.28553165E+04</pdfrwt>
<pdfrwt beam="2">  1       -2 0.13166548E+00 0.28553165E+04</pdfrwt>
<totfact> 0.14834524E+00</totfact>
</mgrwt>
</event>
<event>
 6    1  0.1014650E-006  0.1004830E+04  0.7818608E-02  0.9303263E-01
         -2   -1    0    0    0  501 -0.00000000000E+00  0.00000000000E+00  0.24781486939E+03  0.24781486939E+03  0.00000000000E+00 0.  1.
          2   -1    0    0  501    0  0.00000000000E+00 -0.00000000000E+00 -0.10185860595E+04  0.10185860595E+04  0.00000000000E+00 0. -1.
         23    2    1    2    0    0 -0.92764335873E+02  0.38494070424E+03 -0.72898267867E+01  0.40634955836E+03  0.91006891027E+02 0.  0.
         11    1    3    3    0    0  0.82774354769E+00  0.12737936765E+03  0.26883937264E+02  0.13018807374E+03  0.00000000000E+00 0.  1.
        -11    1    3    3    0    0 -0.93592079421E+02  0.25756133659E+03 -0.34173764051E+02  0.27616148462E+03  0.00000000000E+00 0. -1.
         22    1    1    2    0    0  0.92764335873E+02 -0.38494070424E+03 -0.76348136328E+03  0.86005137048E+03  0.00000000000E+00 0. -1.
<mgrwt>
<rscale>  0 0.10048299E+04</rscale>
<asrwt>0</asrwt>
<pdfrwt beam="1">  1        2 0.15670555E+00 0.10048299E+04</pdfrwt>
<pdfrwt beam="2">  1       -2 0.38125364E-01 0.10048299E+04</pdfrwt>
<totfact> 0.15871855E+02</totfact>
</mgrwt>
</event>
<event>
 6    1  0.1014650E-006  0.2739533E+04  0.7818608E-02  0.8322291E-01
         -2   -1    0    0    0  501 -0.00000000000E+00  0.00000000000E+00  0.53997901695E+03  0.53997901695E+03  0.00000000000E+00 0.  1.
          2   -1    0    0  501    0  0.00000000000E+00 -0.00000000000E+00 -0.34746902868E+04  0.34746902868E+04  0.00000000000E+00 0. -1.
         23    2    1    2    0    0  0.12148715865E+04  0.19676453050E+03 -0.23451918142E+04  0.26500585751E+04  0.90865581110E+02 0.  0.
         11    1    3    3    0    0  0.60374129875E+03  0.52054994718E+02 -0.11625532828E+04  0.13110085482E+04  0.00000000000E+00 0. -1.
        -11    1    3    3    0    0  0.61113028776E+03  0.14470953578E+03 -0.11826385315E+04  0.13390500269E+04  0.00000000000E+00 0.  1.
         22    1    1    2    0    0 -0.12148715865E+04 -0.19676453050E+03 -0.58951945563E+03  0.13646107287E+04  0.00000000000E+00 0.  1.
<mgrwt>
<rscale>  0 0.27395327E+04</rscale>
<asrwt>0</asrwt>
<pdfrwt beam="1">  1        2 0.53456774E+00 0.27395327E+04</pdfrwt>
<pdfrwt beam="2">  1       -2 0.83073695E-01 0.27395327E+04</pdfrwt>
<totfact> 0.93993620E-01</totfact>
</mgrwt>
</event>
<event>
 6    1  0.1014650E-006  0.9821613E+03  0.7818608E-02  0.9328329E-01
          1   -1    0    0  501    0  0.00000000000E+00  0.00000000000E+00  0.17242373633E+04  0.17242373633E+04  0.00000000000E+00 0. -1.
         -1   -1    0    0    0  501 -0.00000000000E+00 -0.00000000000E+00 -0.13986484204E+03  0.13986484204E+03  0.00000000000E+00 0.  1.
         23    2    1    2    0    0  0.34323472495E+03  0.34546862418E+03  0.78848984663E+03  0.93104921730E+03  0.89318307736E+02 0.  0.
         13    1    3    3    0    0  0.57599301341E+02  0.11133857018E+03  0.21697073822E+03  0.25057984350E+03  0.00000000000E+00 0. -1.
        -13    1    3    3    0    0  0.28563542361E+03  0.23413005401E+03  0.57151910841E+03  0.68046937381E+03  0.00000000000E+00 0.  1.
         22    1    1    2    0    0 -0.34323472495E+03 -0.34546862418E+03  0.79588267463E+03  0.93305298803E+03  0.00000000000E+00 0. -1.
<mgrwt>
<rscale>  0 0.98216126E+03</rscale>
<asrwt>0</asrwt>
<pdfrwt beam="1">  1        1 0.26526727E+00 0.98216126E+03</pdfrwt>
<pdfrwt beam="2">  1       -1 0.21517669E-01 0.98216126E+03</pdfrwt>
<totfact> 0.83438928E+01</totfact>
</mgrwt>
</event>
<event>
 6    1  0.1014650E-006  0.3578513E+03  0.7818608E-02  0.1059438E+00
          1   -1    0    0  501    0  0.00000000000E+00  0.00000000000E+00  0.98993256284E+03  0.98993256284E+03  0.00000000000E+00 0. -1.
         -1   -1    0    0    0  501 -0.00000000000E+00 -0.00000000000E+00 -0.32339963614E+02  0.32339963614E+02  0.00000000000E+00 0.  1.
         23    2    1    2    0    0 -0.18919029068E+02  0.14355595353E+03  0.74934554235E+03  0.76863286443E+03  0.91167411823E+02 0.  0.
         13    1    3    3    0    0  0.53008671274E+01  0.99301042139E+02  0.64624535379E+03  0.65385155308E+03  0.00000000000E+00 0. -1.
        -13    1    3    3    0    0 -0.24219896195E+02  0.44254911396E+02  0.10310018856E+03  0.11478131135E+03  0.00000000000E+00 0.  1.
         22    1    1    2    0    0  0.18919029068E+02 -0.14355595353E+03  0.20824705687E+03  0.25363966202E+03  0.00000000000E+00 0.  1.
<mgrwt>
<rscale>  0 0.35785127E+03</rscale>
<asrwt>0</asrwt>
<pdfrwt beam="1">  1        1 0.15229729E+00 0.35785127E+03</pdfrwt>
<pdfrwt beam="2">  1       -1 0.49753798E-02 0.35785127E+03</pdfrwt>
<totfact> 0.28928077E+03</totfact>
</mgrwt>
</event>
<event>
 6    1  0.1014650E-006  0.1561489E+04  0.7818608E-02  0.8844562E-01
         -1   -1    0    0    0  501 -0.00000000000E+00  0.00000000000E+00  0.10541897803E+04  0.10541897803E+04  0.00000000000E+00 0.  1.
          1   -1    0    0  501    0  0.00000000000E+00 -0.00000000000E+00 -0.57822799905E+03  0.57822799905E+03  0.00000000000E+00 0. -1.
         23    2    1    2    0    0  0.14499337284E+03 -0.43879851769E+03 -0.41299708529E+03  0.63051205340E+03  0.11580863405E+03 0.  0.
         11    1    3    3    0    0  0.10272190803E+03 -0.13580434714E+03 -0.15683455865E+03  0.23149879023E+03  0.00000000000E+00 0. -1.
        -11    1    3    3    0    0  0.42271464811E+02 -0.30299417055E+03 -0.25616252665E+03  0.39901326316E+03  0.00000000000E+00 0.  1.
         22    1    1    2    0    0 -0.14499337284E+03  0.43879851769E+03  0.88895886653E+03  0.10019057259E+04  0.00000000000E+00 0.  1.
<mgrwt>
<rscale>  0 0.15614891E+04</rscale>
<asrwt>0</asrwt>
<pdfrwt beam="1">  1        1 0.88958154E-01 0.15614891E+04</pdfrwt>
<pdfrwt beam="2">  1       -1 0.16218304E+00 0.15614891E+04</pdfrwt>
<totfact> 0.97818699E+00</totfact>
</mgrwt>
</event>
<event>
 6    1  0.1014650E-006  0.1386713E+04  0.7818608E-02  0.8963493E-01
          1   -1    0    0  501    0  0.00000000000E+00  0.00000000000E+00  0.56935203496E+03  0.56935203496E+03  0.00000000000E+00 0. -1.
         -1   -1    0    0    0  501 -0.00000000000E+00 -0.00000000000E+00 -0.84436896542E+03  0.84436896542E+03  0.00000000000E+00 0.  1.
         23    2    1    2    0    0 -0.52992372596E+03  0.43433847454E+03 -0.20520524788E+03  0.72499555666E+03  0.11849176184E+03 0.  0.
         13    1    3    3    0    0 -0.16315186237E+03  0.67872938199E+02 -0.59050162506E+02  0.18631207054E+03  0.00000000000E+00 0. -1.
        -13    1    3    3    0    0 -0.36677186358E+03  0.36646553634E+03 -0.14615508537E+03  0.53868348613E+03  0.00000000000E+00 0.  1.
         22    1    1    2    0    0  0.52992372596E+03 -0.43433847454E+03 -0.69811682571E+02  0.68872544372E+03  0.00000000000E+00 0. -1.
<mgrwt>
<rscale>  0 0.13867129E+04</rscale>
<asrwt>0</asrwt>
<pdfrwt beam="1">  1        1 0.87592621E-01 0.13867129E+04</pdfrwt>
<pdfrwt beam="2">  1       -1 0.12990292E+00 0.13867129E+04</pdfrwt>
<totfact> 0.18320385E+01</totfact>
</mgrwt>
</event>
<event>
 6    1  0.1014650E-006  0.3530597E+04  0.7818608E-02  0.8106577E-01
         -2   -1    0    0    0  501 -0.00000000000E+00  0.00000000000E+00  0.14017910412E+04  0.14017910412E+04  0.00000000000E+00 0.  1.
          2   -1    0    0  501    0  0.00000000000E+00 -0.00000000000E+00 -0.22230688769E+04  0.22230688769E+04  0.00000000000E+00 0. -1.
         23    2    1    2    0    0  0.11388381983E+03 -0.14277279532E+04 -0.14683120856E+04  0.20532270243E+04  0.91783439204E+02 0.  0.
         13    1    3    3    0    0  0.12627983864E+03 -0.12668149722E+04 -0.13230757612E+04  0.18361089949E+04  0.00000000000E+00 0. -1.
        -13    1    3    3    0    0 -0.12396018803E+02 -0.16091298094E+03 -0.14523632445E+03  0.21711802932E+03  0.00000000000E+00 0.  1.
         22    1    1    2    0    0 -0.11388381983E+03  0.14277279532E+04  0.64703424989E+03  0.15716328939E+04  0.00000000000E+00 0.  1.
<mgrwt>
<rscale>  0 0.35305966E+04</rscale>
<asrwt>0</asrwt>
<pdfrwt beam="1">  1        2 0.34201060E+00 0.35305966E+04</pdfrwt>
<pdfrwt beam="2">  1       -2 0.21566016E+00 0.35305966E+04</pdfrwt>
<totfact> 0.43265684E-01</totfact>
</mgrwt>
</event>
<event>
 6    1  0.1014650E-006  0.1281695E+04  0.7818608E-02  0.9044208E-01
          1   -1    0    0  501    0  0.00000000000E+00  0.00000000000E+00  0.11866143093E+04  0.11866143093E+04  0.00000000000E+00 0. -1.
         -1   -1    0    0    0  501 -0.00000000000E+00 -0.00000000000E+00 -0.34609880559E+03  0.34609880559E+03  0.00000000000E+00 0.  1.
         23    2    1    2    0    0 -0.27095875336E+03  0.14930839902E+03 -0.24465766073E+03  0.40430164701E+03  0.88830213208E+02 0.  0.
         11    1    3    3    0    0 -0.46225453562E+02  0.37219689353E+02 -0.94825863740E+02  0.11186618017E+03  0.00000000000E+00 0.  1.
        -11    1    3    3    0    0 -0.22473329980E+03  0.11208870966E+03 -0.14983179699E+03  0.29243546683E+03  0.00000000000E+00 0. -1.
         22    1    1    2    0    0  0.27095875336E+03 -0.14930839902E+03  0.10851731644E+04  0.11284114679E+04  0.00000000000E+00 0. -1.
<mgrwt>
<rscale>  0 0.12816954E+04</rscale>
<asrwt>0</asrwt>
<pdfrwt beam="1">  1        1 0.18255605E+00 0.12816954E+04</pdfrwt>
<pdfrwt beam="2">  1       -1 0.53245971E-01 0.12816954E+04</pdfrwt>
<totfact> 0.38250176E+01</totfact>
</mgrwt>
</event>
<event>
 6    1  0.1014650E-006  0.1367087E+04  0.7818608E-02  0.8977993E-01
          2   -1    0    0  501    0  0.00000000000E+00  0.00000000000E+00  0.43935254454E+03  0.43935254454E+03  0.00000000000E+00 0. -1.
         -2   -1    0    0    0  501 -0.00000000000E+00 -0.00000000000E+00 -0.10634548366E+04  0.10634548366E+04  0.00000000000E+00 0.  1.
         23    2    1    2    0    0 -0.50479552367E+03  0.17684271796E+02  0.18731081694E+03  0.54702367776E+03  0.94964770849E+02 0.  0.
         11    1    3    3    0    0 -0.33752175362E+03 -0.11306940081E+02  0.16478027751E+03  0.37576764219E+03  0.00000000000E+00 0. -1.
        -11    1    3    3    0    0 -0.16727377005E+03  0.28991211876E+02  0.22530539430E+02  0.17125603557E+03  0.00000000000E+00 0.  1.
         22    1    1    2    0    0  0.50479552367E+03 -0.17684271796E+02 -0.81141310897E+03  0.95578370335E+03  0.00000000000E+00 0.  1.
<mgrwt>
<rscale>  0 0.13670868E+04</rscale>
<asrwt>0</asrwt>
<pdfrwt beam="1">  1        2 0.67592700E-01 0.13670868E+04</pdfrwt>
<pdfrwt beam="2">  1       -2 0.16360844E+00 0.13670868E+04</pdfrwt>
<totfact> 0.16507159E+01</totfact>
</mgrwt>
</event>
<event>
 6    1  0.1014650E-006  0.9224022E+03  0.7818608E-02  0.9398003E-01
          2   -1    0    0  501    0  0.00000000000E+00  0.00000000000E+00  0.21003738957E+04  0.21003738957E+04  0.00000000000E+00 0. -1.
         -2   -1    0    0    0  501 -0.00000000000E+00 -0.00000000000E+00 -0.10127075291E+03  0.10127075291E+03  0.00000000000E+00 0.  1.
         23    2    1    2    0    0  0.17257618529E+03  0.42066767662E+03  0.11133980625E+04  0.12060456715E+04  0.90261189717E+02 0.  0.
         13    1    3    3    0    0  0.15853574052E+03  0.31164891091E+03  0.77455973695E+03  0.84982434114E+03  0.00000000000E+00 0. -1.
        -13    1    3    3    0    0  0.14040444772E+02  0.10901876571E+03  0.33883832553E+03  0.35622133038E+03  0.00000000000E+00 0.  1.
         22    1    1    2    0    0 -0.17257618529E+03 -0.42066767662E+03  0.88570508030E+03  0.99559897707E+03  0.00000000000E+00 0.  1.
<mgrwt>
<rscale>  0 0.92240218E+03</rscale>
<asrwt>0</asrwt>
<pdfrwt beam="1">  1        2 0.32313441E+00 0.92240218E+03</pdfrwt>
<pdfrwt beam="2">  1       -2 0.15580117E-01 0.92240218E+03</pdfrwt>
<totfact> 0.19522018E+02</totfact>
</mgrwt>
</event>
<event>
 6    1  0.1014650E-006  0.4007933E+04  0.7818608E-02  0.8002948E-01
          2   -1    0    0  501    0  0.00000000000E+00  0.00000000000E+00  0.20000875407E+04  0.20000875407E+04  0.00000000000E+00 0. -1.
         -2   -1    0    0    0  501 -0.00000000000E+00 -0.00000000000E+00 -0.20078533644E+04  0.20078533644E+04  0.00000000000E+00 0.  1.
         23    2    1    2    0    0 -0.12676806200E+04 -0.61009076795E+03  0.14217149431E+04  0.20022888511E+04  0.93071822591E+02 0.  0.
         13    1    3    3    0    0 -0.11539503292E+04 -0.53488268960E+03  0.12536639817E+04  0.17858819202E+04  0.00000000000E+00 0.  1.
        -13    1    3    3    0    0 -0.11373029085E+03 -0.75208078353E+02  0.16805096142E+03  0.21640693090E+03  0.00000000000E+00 0. -1.
         22    1    1    2    0    0  0.12676806200E+04  0.61009076795E+03 -0.14294807668E+04  0.20056520541E+04  0.00000000000E+00 0.  1.
<mgrwt>
<rscale>  0 0.40079334E+04</rscale>
<asrwt>0</asrwt>
<pdfrwt beam="1">  1        2 0.30770578E+00 0.40079334E+04</pdfrwt>
<pdfrwt beam="2">  1       -2 0.30890052E+00 0.40079334E+04</pdfrwt>
<totfact> 0.14761531E-01</totfact>
</mgrwt>
</event>
<event>
 6    1  0.1014650E-006  0.2084705E+04  0.7818608E-02  0.8568011E-01
         -2   -1    0    0    0  501 -0.00000000000E+00  0.00000000000E+00  0.50645392919E+03  0.50645392919E+03  0.00000000000E+00 0.  1.
          2   -1    0    0  501    0  0.00000000000E+00 -0.00000000000E+00 -0.21453052833E+04  0.21453052833E+04  0.00000000000E+00 0. -1.
         23    2    1    2    0    0 -0.26721576637E+03  0.92612350935E+03 -0.13190676621E+04  0.16361950195E+04  0.89920099324E+02 0.  0.
         13    1    3    3    0    0 -0.18127238338E+03  0.46621303942E+03 -0.67981161223E+03  0.84401309423E+03  0.00000000000E+00 0.  1.
        -13    1    3    3    0    0 -0.85943382987E+02  0.45991046994E+03 -0.63925604990E+03  0.79218192530E+03  0.00000000000E+00 0. -1.
         22    1    1    2    0    0  0.26721576637E+03 -0.92612350935E+03 -0.31978369199E+03  0.10155641930E+04  0.00000000000E+00 0.  1.
<mgrwt>
<rscale>  0 0.20847046E+04</rscale>
<asrwt>0</asrwt>
<pdfrwt beam="1">  1        2 0.33004697E+00 0.20847046E+04</pdfrwt>
<pdfrwt beam="2">  1       -2 0.77915989E-01 0.20847046E+04</pdfrwt>
<totfact> 0.75000165E+00</totfact>
</mgrwt>
</event>
<event>
 6    1  0.1014650E-006  0.1232210E+04  0.7818608E-02  0.9085122E-01
          1   -1    0    0  501    0  0.00000000000E+00  0.00000000000E+00  0.20234942848E+04  0.20234942848E+04  0.00000000000E+00 0. -1.
         -1   -1    0    0    0  501 -0.00000000000E+00 -0.00000000000E+00 -0.18758890788E+03  0.18758890788E+03  0.00000000000E+00 0.  1.
         23    2    1    2    0    0 -0.29733005525E+02 -0.57419748739E+03  0.54461600869E+03  0.79757159434E+03  0.94483041017E+02 0.  0.
         13    1    3    3    0    0  0.22937850939E+01 -0.35427382044E+03  0.27706312782E+03  0.44975457541E+03  0.00000000000E+00 0. -1.
        -13    1    3    3    0    0 -0.32026790619E+02 -0.21992366694E+03  0.26755288087E+03  0.34781701893E+03  0.00000000000E+00 0.  1.
         22    1    1    2    0    0  0.29733005525E+02  0.57419748739E+03  0.12912893682E+04  0.14135115983E+04  0.00000000000E+00 0. -1.
<mgrwt>
<rscale>  0 0.12322095E+04</rscale>
<asrwt>0</asrwt>
<pdfrwt beam="1">  1        1 0.31130680E+00 0.12322095E+04</pdfrwt>
<pdfrwt beam="2">  1       -1 0.28859833E-01 0.12322095E+04</pdfrwt>
<totfact> 0.31033434E+01</totfact>
</mgrwt>
</event>
<event>
 6    1  0.1014650E-006  0.3261423E+04  0.7818608E-02  0.8172781E-01
          2   -1    0    0  501    0  0.00000000000E+00  0.00000000000E+00  0.32048617282E+04  0.32048617282E+04  0.00000000000E+00 0. -1.
         -2   -1    0    0    0  501 -0.00000000000E+00 -0.00000000000E+00 -0.82974570248E+03  0.82974570248E+03  0.00000000000E+00 0.  1.
         23    2    1    2    0    0  0.15450837532E+04  0.35644392363E+03  0.16527599992E+04  0.22921567703E+04  0.89615676157E+02 0.  0.
         13    1    3    3    0    0  0.79474857600E+03  0.22893139108E+03  0.86876118144E+03  0.11994919221E+04  0.00000000000E+00 0.  1.
        -13    1    3    3    0    0  0.75033517717E+03  0.12751253255E+03  0.78399881781E+03  0.10926648481E+04  0.00000000000E+00 0. -1.
         22    1    1    2    0    0 -0.15450837532E+04 -0.35644392363E+03  0.72235602650E+03  0.17424506604E+04  0.00000000000E+00 0.  1.
<mgrwt>
<rscale>  0 0.32614232E+04</rscale>
<asrwt>0</asrwt>
<pdfrwt beam="1">  1        2 0.49305565E+00 0.32614232E+04</pdfrwt>
<pdfrwt beam="2">  1       -2 0.12765319E+00 0.32614232E+04</pdfrwt>
<totfact> 0.49001726E-01</totfact>
</mgrwt>
</event>
<event>
 6    1  0.1014650E-006  0.1561383E+04  0.7818608E-02  0.8844629E-01
         -2   -1    0    0    0  501 -0.00000000000E+00  0.00000000000E+00  0.45892149571E+03  0.45892149571E+03  0.00000000000E+00 0.  1.
          2   -1    0    0  501    0  0.00000000000E+00 -0.00000000000E+00 -0.13280691934E+04  0.13280691934E+04  0.00000000000E+00 0. -1.
         23    2    1    2    0    0 -0.50189136674E+03 -0.51456188026E+03 -0.77693016852E+03  0.10623025180E+04  0.90538834020E+02 0.  0.
         11    1    3    3    0    0 -0.25591138236E+03 -0.23166325606E+03 -0.43103873186E+03  0.55222539619E+03  0.00000000000E+00 0.  1.
        -11    1    3    3    0    0 -0.24597998438E+03 -0.28289862420E+03 -0.34589143666E+03  0.51007712186E+03  0.00000000000E+00 0. -1.
         22    1    1    2    0    0  0.50189136674E+03  0.51456188026E+03 -0.92217529205E+02  0.72468817109E+03  0.00000000000E+00 0.  1.
<mgrwt>
<rscale>  0 0.15613834E+04</rscale>
<asrwt>0</asrwt>
<pdfrwt beam="1">  1        2 0.20431833E+00 0.15613834E+04</pdfrwt>
<pdfrwt beam="2">  1       -2 0.70603308E-01 0.15613834E+04</pdfrwt>
<totfact> 0.27934301E+01</totfact>
</mgrwt>
</event>
<event>
 6    1  0.1014650E-006  0.2262574E+04  0.7818608E-02  0.8492826E-01
         -1   -1    0    0    0  501 -0.00000000000E+00  0.00000000000E+00  0.57846064527E+03  0.57846064527E+03  0.00000000000E+00 0.  1.
          1   -1    0    0  501    0  0.00000000000E+00 -0.00000000000E+00 -0.22124413631E+04  0.22124413631E+04  0.00000000000E+00 0. -1.
         23    2    1    2    0    0 -0.31704776390E+03 -0.18070172265E+03  0.50010910257E+03  0.62583578335E+03  0.91591026180E+02 0.  0.
         13    1    3    3    0    0 -0.51194146908E+02 -0.50406236244E+02  0.15693906090E+03  0.17260213836E+03  0.00000000000E+00 0. -1.
        -13    1    3    3    0    0 -0.26585361700E+03 -0.13029548641E+03  0.34317004167E+03  0.45323364499E+03  0.00000000000E+00 0.  1.
         22    1    1    2    0    0  0.31704776390E+03  0.18070172265E+03 -0.21340898204E+04  0.21650662250E+04  0.00000000000E+00 0. -1.
<mgrwt>
<rscale>  0 0.22625740E+04</rscale>
<asrwt>0</asrwt>
<pdfrwt beam="1">  1        1 0.34037559E+00 0.22625740E+04</pdfrwt>
<pdfrwt beam="2">  1       -1 0.88993946E-01 0.22625740E+04</pdfrwt>
<totfact> 0.23984063E+00</totfact>
</mgrwt>
</event>
<event>
 6    1  0.1014650E-006  0.1112920E+04  0.7818608E-02  0.9192690E-01
         -2   -1    0    0    0  501 -0.00000000000E+00  0.00000000000E+00  0.24527878592E+03  0.24527878592E+03  0.00000000000E+00 0.  1.
          2   -1    0    0  501    0  0.00000000000E+00 -0.00000000000E+00 -0.12624318660E+04  0.12624318660E+04  0.00000000000E+00 0. -1.
         23    2    1    2    0    0  0.11883360666E+02  0.31848813922E+03 -0.11235368808E+04  0.11717144881E+04  0.94888407846E+02 0.  0.
         13    1    3    3    0    0 -0.36151018011E+02  0.21548050463E+03 -0.76546352899E+03  0.79603590258E+03  0.00000000000E+00 0. -1.
        -13    1    3    3    0    0  0.48034378676E+02  0.10300763459E+03 -0.35807335179E+03  0.37567858547E+03  0.00000000000E+00 0.  1.
         22    1    1    2    0    0 -0.11883360666E+02 -0.31848813922E+03  0.10638380070E+03  0.33599616388E+03  0.00000000000E+00 0.  1.
<mgrwt>
<rscale>  0 0.11129200E+04</rscale>
<asrwt>0</asrwt>
<pdfrwt beam="1">  1        2 0.19422029E+00 0.11129200E+04</pdfrwt>
<pdfrwt beam="2">  1       -2 0.37735197E-01 0.11129200E+04</pdfrwt>
<totfact> 0.11423305E+02</totfact>
</mgrwt>
</event>
<event>
 6    1  0.1014650E-006  0.1289299E+04  0.7818608E-02  0.9038094E-01
         -1   -1    0    0    0  501 -0.00000000000E+00  0.00000000000E+00  0.86135139096E+03  0.86135139096E+03  0.00000000000E+00 0.  1.
          1   -1    0    0  501    0  0.00000000000E+00 -0.00000000000E+00 -0.48246634549E+03  0.48246634549E+03  0.00000000000E+00 0. -1.
         23    2    1    2    0    0 -0.89060575397E+02  0.24581179251E+03  0.80095861399E+03  0.84732874294E+03  0.89866978653E+02 0.  0.
         11    1    3    3    0    0 -0.77231230366E+02  0.22106212741E+03  0.59284968740E+03  0.63741970394E+03  0.00000000000E+00 0. -1.
        -11    1    3    3    0    0 -0.11829345030E+02  0.24749665106E+02  0.20810892659E+03  0.20990903900E+03  0.00000000000E+00 0.  1.
         22    1    1    2    0    0  0.89060575397E+02 -0.24581179251E+03 -0.42207356853E+03  0.49648899351E+03  0.00000000000E+00 0. -1.
<mgrwt>
<rscale>  0 0.12892991E+04</rscale>
<asrwt>0</asrwt>
<pdfrwt beam="1">  1        1 0.74225592E-01 0.12892991E+04</pdfrwt>
<pdfrwt beam="2">  1       -1 0.13251560E+00 0.12892991E+04</pdfrwt>
<totfact> 0.22120538E+01</totfact>
</mgrwt>
</event>
<event>
 6    1  0.1014650E-006  0.2043305E+04  0.7818608E-02  0.8586637E-01
          2   -1    0    0  501    0  0.00000000000E+00  0.00000000000E+00  0.19752523303E+04  0.19752523303E+04  0.00000000000E+00 0. -1.
         -2   -1    0    0    0  501 -0.00000000000E+00 -0.00000000000E+00 -0.52842581974E+03  0.52842581974E+03  0.00000000000E+00 0.  1.
         23    2    1    2    0    0 -0.66683982966E+03 -0.45867146855E+03  0.14846453454E+04  0.16934404450E+04  0.92270604882E+02 0.  0.
         13    1    3    3    0    0 -0.34769661326E+03 -0.22152961082E+03  0.84662953004E+03  0.94167396931E+03  0.00000000000E+00 0.  1.
        -13    1    3    3    0    0 -0.31914321640E+03 -0.23714185773E+03  0.63801581540E+03  0.75176647568E+03  0.00000000000E+00 0. -1.
         22    1    1    2    0    0  0.66683982966E+03  0.45867146855E+03 -0.37818834835E+02  0.81023770509E+03  0.00000000000E+00 0.  1.
<mgrwt>
<rscale>  0 0.20433055E+04</rscale>
<asrwt>0</asrwt>
<pdfrwt beam="1">  1        2 0.30388497E+00 0.20433055E+04</pdfrwt>
<pdfrwt beam="2">  1       -2 0.81296281E-01 0.20433055E+04</pdfrwt>
<totfact> 0.85107325E+00</totfact>
</mgrwt>
</event>
<event>
 6    1  0.1014650E-006  0.5175686E+04  0.7818608E-02  0.7801963E-01
         -2   -1    0    0    0  501 -0.00000000000E+00  0.00000000000E+00  0.18147464693E+04  0.18147464693E+04  0.00000000000E+00 0.  1.
          2   -1    0    0  501    0  0.00000000000E+00 -0.00000000000E+00 -0.36902853263E+04  0.36902853263E+04  0.00000000000E+00 0. -1.
         23    2    1    2    0    0 -0.10716254406E+04 -0.14686016283E+04  0.10196058364E+04  0.20864012768E+04  0.91117499581E+02 0.  0.
         13    1    3    3    0    0 -0.50529121212E+03 -0.70896040498E+03  0.43731746898E+03  0.97426414978E+03  0.00000000000E+00 0. -1.
        -13    1    3    3    0    0 -0.56633422852E+03 -0.75964122331E+03  0.58228836743E+03  0.11121371271E+04  0.00000000000E+00 0.  1.
         22    1    1    2    0    0  0.10716254406E+04  0.14686016283E+04 -0.28951446935E+04  0.34186305188E+04  0.00000000000E+00 0. -1.
<mgrwt>
<rscale>  0 0.51756863E+04</rscale>
<asrwt>0</asrwt>
<pdfrwt beam="1">  1        2 0.56773620E+00 0.51756863E+04</pdfrwt>
<pdfrwt beam="2">  1       -2 0.27919176E+00 0.51756863E+04</pdfrwt>
<totfact> 0.18094411E-02</totfact>
</mgrwt>
</event>
<event>
 6    1  0.1014650E-006  0.3246201E+03  0.7818608E-02  0.1073542E+00
          2   -1    0    0  501    0  0.00000000000E+00  0.00000000000E+00  0.24287599380E+02  0.24287599380E+02  0.00000000000E+00 0. -1.
         -2   -1    0    0    0  501 -0.00000000000E+00 -0.00000000000E+00 -0.10846916464E+04  0.10846916464E+04  0.00000000000E+00 0.  1.
         23    2    1    2    0    0 -0.26100425765E+02  0.14671402722E+03 -0.63450725779E+03  0.65776498062E+03  0.88594985954E+02 0.  0.
         13    1    3    3    0    0 -0.13660015332E+02  0.97041326668E+02 -0.22969228056E+03  0.24972416553E+03  0.00000000000E+00 0. -1.
        -13    1    3    3    0    0 -0.12440410432E+02  0.49672700548E+02 -0.40481497723E+03  0.40804081509E+03  0.00000000000E+00 0.  1.
         22    1    1    2    0    0  0.26100425765E+02 -0.14671402722E+03 -0.42589678924E+03  0.45121426517E+03  0.00000000000E+00 0. -1.
<mgrwt>
<rscale>  0 0.32462012E+03</rscale>
<asrwt>0</asrwt>
<pdfrwt beam="1">  1        2 0.37365544E-02 0.32462012E+03</pdfrwt>
<pdfrwt beam="2">  1       -2 0.16687561E+00 0.32462012E+03</pdfrwt>
<totfact> 0.55792163E+02</totfact>
</mgrwt>
</event>
<event>
 6    1  0.1014650E-006  0.4116445E+04  0.7818608E-02  0.7981459E-01
          1   -1    0    0  501    0  0.00000000000E+00  0.00000000000E+00  0.17582393198E+04  0.17582393198E+04  0.00000000000E+00 0. -1.
         -1   -1    0    0    0  501 -0.00000000000E+00 -0.00000000000E+00 -0.24093876738E+04  0.24093876738E+04  0.00000000000E+00 0.  1.
         23    2    1    2    0    0 -0.55148654971E+03  0.95257537126E+03  0.14340003687E+04  0.18097927229E+04  0.86344600542E+02 0.  0.
         13    1    3    3    0    0 -0.19523418848E+03  0.27561645154E+03  0.39872585263E+03  0.52255442038E+03  0.00000000000E+00 0.  1.
        -13    1    3    3    0    0 -0.35625236124E+03  0.67695891973E+03  0.10352745161E+04  0.12872383026E+04  0.00000000000E+00 0. -1.
         22    1    1    2    0    0  0.55148654971E+03 -0.95257537126E+03 -0.20851487227E+04  0.23578342707E+04  0.00000000000E+00 0.  1.
<mgrwt>
<rscale>  0 0.41164451E+04</rscale>
<asrwt>0</asrwt>
<pdfrwt beam="1">  1        1 0.27049836E+00 0.41164451E+04</pdfrwt>
<pdfrwt beam="2">  1       -1 0.37067503E+00 0.41164451E+04</pdfrwt>
<totfact> 0.38110733E-02</totfact>
</mgrwt>
</event>
<event>
 6    1  0.1014650E-006  0.6875194E+03  0.7818608E-02  0.9738817E-01
         -2   -1    0    0    0  501 -0.00000000000E+00  0.00000000000E+00  0.17448763066E+03  0.17448763066E+03  0.00000000000E+00 0.  1.
          2   -1    0    0  501    0  0.00000000000E+00 -0.00000000000E+00 -0.67724421199E+03  0.67724421199E+03  0.00000000000E+00 0. -1.
         23    2    1    2    0    0 -0.15321227553E+03 -0.26363494322E+03 -0.43758196706E+03  0.53992242168E+03  0.84028916941E+02 0.  0.
         13    1    3    3    0    0 -0.50858015300E+02 -0.54078220610E+02 -0.16666230767E+03  0.18244811992E+03  0.00000000000E+00 0.  1.
        -13    1    3    3    0    0 -0.10235426023E+03 -0.20955672261E+03 -0.27091965939E+03  0.35747430177E+03  0.00000000000E+00 0. -1.
         22    1    1    2    0    0  0.15321227553E+03  0.26363494322E+03 -0.65174614266E+02  0.31180942097E+03  0.00000000000E+00 0.  1.
<mgrwt>
<rscale>  0 0.68751942E+03</rscale>
<asrwt>0</asrwt>
<pdfrwt beam="1">  1        2 0.10419142E+00 0.68751942E+03</pdfrwt>
<pdfrwt beam="2">  1       -2 0.26844251E-01 0.68751942E+03</pdfrwt>
<totfact> 0.54104903E+02</totfact>
</mgrwt>
</event>
<event>
 6    1  0.1014650E-006  0.1250241E+04  0.7818608E-02  0.9069983E-01
          2   -1    0    0  501    0  0.00000000000E+00  0.00000000000E+00  0.80538119191E+03  0.80538119191E+03  0.00000000000E+00 0. -1.
         -2   -1    0    0    0  501 -0.00000000000E+00 -0.00000000000E+00 -0.48520573415E+03  0.48520573415E+03  0.00000000000E+00 0.  1.
         23    2    1    2    0    0  0.20572057520E+03 -0.58592351281E+03  0.19625521797E+03  0.65735431181E+03  0.89281928502E+02 0.  0.
         11    1    3    3    0    0  0.16374046020E+03 -0.38364059763E+03  0.16425478436E+03  0.44829753584E+03  0.00000000000E+00 0. -1.
        -11    1    3    3    0    0  0.41980114997E+02 -0.20228291518E+03  0.32000433613E+02  0.20905677598E+03  0.00000000000E+00 0.  1.
         22    1    1    2    0    0 -0.20572057520E+03  0.58592351281E+03  0.12392023979E+03  0.63323261425E+03  0.00000000000E+00 0.  1.
<mgrwt>
<rscale>  0 0.12502409E+04</rscale>
<asrwt>0</asrwt>
<pdfrwt beam="1">  1        2 0.12390480E+00 0.12502409E+04</pdfrwt>
<pdfrwt beam="2">  1       -2 0.74647036E-01 0.12502409E+04</pdfrwt>
<totfact> 0.54201276E+01</totfact>
</mgrwt>
</event>
<event>
 6    1  0.1014650E-006  0.1144334E+04  0.7818608E-02  0.9163027E-01
         -2   -1    0    0    0  501 -0.00000000000E+00  0.00000000000E+00  0.16391629100E+03  0.16391629100E+03  0.00000000000E+00 0.  1.
          2   -1    0    0  501    0  0.00000000000E+00 -0.00000000000E+00 -0.19972092699E+04  0.19972092699E+04  0.00000000000E+00 0. -1.
         23    2    1    2    0    0  0.26826616557E+03  0.40974797768E+03 -0.37701149105E+03  0.62469596190E+03  0.90814313959E+02 0.  0.
         11    1    3    3    0    0  0.27063926766E+03  0.38469792002E+03 -0.37036109851E+03  0.59866973045E+03  0.00000000000E+00 0.  1.
        -11    1    3    3    0    0 -0.23731020834E+01  0.25050057660E+02 -0.66503925336E+01  0.26026231442E+02  0.00000000000E+00 0. -1.
         22    1    1    2    0    0 -0.26826616557E+03 -0.40974797768E+03 -0.14562814878E+04  0.15364295990E+04  0.00000000000E+00 0. -1.
<mgrwt>
<rscale>  0 0.11443341E+04</rscale>
<asrwt>0</asrwt>
<pdfrwt beam="1">  1        2 0.30726296E+00 0.11443341E+04</pdfrwt>
<pdfrwt beam="2">  1       -2 0.25217891E-01 0.11443341E+04</pdfrwt>
<totfact> 0.93924973E+01</totfact>
</mgrwt>
</event>
<event>
 6    1  0.1014650E-006  0.3763621E+04  0.7818608E-02  0.8054007E-01
          2   -1    0    0  501    0  0.00000000000E+00  0.00000000000E+00  0.25409041169E+04  0.25409041169E+04  0.00000000000E+00 0. -1.
         -2   -1    0    0    0  501 -0.00000000000E+00 -0.00000000000E+00 -0.13936814913E+04  0.13936814913E+04  0.00000000000E+00 0.  1.
         23    2    1    2    0    0  0.18652554895E+04 -0.44431334464E+02  0.32636262246E+03  0.18962128921E+04  0.89210907018E+02 0.  0.
         11    1    3    3    0    0  0.94443250797E+03  0.21374320769E+02  0.15682558080E+03  0.95760319887E+03  0.00000000000E+00 0.  1.
        -11    1    3    3    0    0  0.92082298158E+03 -0.65805655233E+02  0.16953704166E+03  0.93860969320E+03  0.00000000000E+00 0. -1.
         22    1    1    2    0    0 -0.18652554895E+04  0.44431334464E+02  0.82086000315E+03  0.20383727161E+04  0.00000000000E+00 0. -1.
<mgrwt>
<rscale>  0 0.37636211E+04</rscale>
<asrwt>0</asrwt>
<pdfrwt beam="1">  1        2 0.39090833E+00 0.37636211E+04</pdfrwt>
<pdfrwt beam="2">  1       -2 0.21441254E+00 0.37636211E+04</pdfrwt>
<totfact> 0.28428945E-01</totfact>
</mgrwt>
</event>
<event>
 6    1  0.1014650E-006  0.3270900E+04  0.7818608E-02  0.8170340E-01
          2   -1    0    0  501    0  0.00000000000E+00  0.00000000000E+00  0.15351657037E+04  0.15351657037E+04  0.00000000000E+00 0. -1.
         -2   -1    0    0    0  501 -0.00000000000E+00 -0.00000000000E+00 -0.17422855363E+04  0.17422855363E+04  0.00000000000E+00 0.  1.
         23    2    1    2    0    0  0.58539274467E+03  0.84158844690E+03  0.11715026951E+04  0.15594419696E+04  0.92113583936E+02 0.  0.
         11    1    3    3    0    0  0.37428673292E+03  0.53744476952E+03  0.68006748182E+03  0.94415529366E+03  0.00000000000E+00 0.  1.
        -11    1    3    3    0    0  0.21110601175E+03  0.30414367738E+03  0.49143521332E+03  0.61528667593E+03  0.00000000000E+00 0. -1.
         22    1    1    2    0    0 -0.58539274467E+03 -0.84158844690E+03 -0.13786225277E+04  0.17180092704E+04  0.00000000000E+00 0.  1.
<mgrwt>
<rscale>  0 0.32709002E+04</rscale>
<asrwt>0</asrwt>
<pdfrwt beam="1">  1        2 0.23617934E+00 0.32709002E+04</pdfrwt>
<pdfrwt beam="2">  1       -2 0.26804393E+00 0.32709002E+04</pdfrwt>
<totfact> 0.50578903E-01</totfact>
</mgrwt>
</event>
<event>
 6    1  0.1014650E-006  0.1321983E+04  0.7818608E-02  0.9012311E-01
          1   -1    0    0  501    0  0.00000000000E+00  0.00000000000E+00  0.11122224302E+04  0.11122224302E+04  0.00000000000E+00 0. -1.
         -1   -1    0    0    0  501 -0.00000000000E+00 -0.00000000000E+00 -0.39282618032E+03  0.39282618032E+03  0.00000000000E+00 0.  1.
         23    2    1    2    0    0 -0.16101718381E+03  0.38591645587E+03 -0.21655101895E+03  0.47993625843E+03  0.92662958893E+02 0.  0.
         13    1    3    3    0    0 -0.11053589078E+03  0.31616404334E+03 -0.13427362925E+03  0.36084247666E+03  0.00000000000E+00 0. -1.
        -13    1    3    3    0    0 -0.50481293033E+02  0.69752412534E+02 -0.82277389693E+02  0.11909378177E+03  0.00000000000E+00 0.  1.
         22    1    1    2    0    0  0.16101718381E+03 -0.38591645587E+03  0.93594726882E+03  0.10251123521E+04  0.00000000000E+00 0. -1.
<mgrwt>
<rscale>  0 0.13219835E+04</rscale>
<asrwt>0</asrwt>
<pdfrwt beam="1">  1        1 0.17111114E+00 0.13219835E+04</pdfrwt>
<pdfrwt beam="2">  1       -1 0.60434798E-01 0.13219835E+04</pdfrwt>
<totfact> 0.33805704E+01</totfact>
</mgrwt>
</event>
<event>
 6    1  0.1014650E-006  0.5246443E+04  0.7818608E-02  0.7791576E-01
         -2   -1    0    0    0  501 -0.00000000000E+00  0.00000000000E+00  0.23790348741E+04  0.23790348741E+04  0.00000000000E+00 0.  1.
          2   -1    0    0  501    0  0.00000000000E+00 -0.00000000000E+00 -0.28924718700E+04  0.28924718700E+04  0.00000000000E+00 0. -1.
         23    2    1    2    0    0 -0.23782085699E+03  0.26057295459E+04 -0.43281729899E+03  0.26537052310E+04  0.91844499645E+02 0.  0.
         13    1    3    3    0    0 -0.13461424084E+03  0.18269599694E+04 -0.33059354535E+03  0.18615036438E+04  0.00000000000E+00 0. -1.
        -13    1    3    3    0    0 -0.10320661615E+03  0.77876957652E+03 -0.10222375364E+03  0.79220158719E+03  0.00000000000E+00 0.  1.
         22    1    1    2    0    0  0.23782085699E+03 -0.26057295459E+04 -0.80619696950E+02  0.26178015131E+04  0.00000000000E+00 0.  1.
<mgrwt>
<rscale>  0 0.52464432E+04</rscale>
<asrwt>0</asrwt>
<pdfrwt beam="1">  1        2 0.44499567E+00 0.52464432E+04</pdfrwt>
<pdfrwt beam="2">  1       -2 0.36600537E+00 0.52464432E+04</pdfrwt>
<totfact> 0.17850895E-02</totfact>
</mgrwt>
</event>
<event>
 6    1  0.1014650E-006  0.2974017E+04  0.7818608E-02  0.8251190E-01
         -2   -1    0    0    0  501 -0.00000000000E+00  0.00000000000E+00  0.24420483937E+04  0.24420483937E+04  0.00000000000E+00 0.  1.
          2   -1    0    0  501    0  0.00000000000E+00 -0.00000000000E+00 -0.90546706217E+03  0.90546706217E+03  0.00000000000E+00 0. -1.
         23    2    1    2    0    0 -0.39850106808E+03 -0.10195737655E+04  0.18994230748E+04  0.21942644445E+04  0.93030483057E+02 0.  0.
         11    1    3    3    0    0 -0.21574464442E+03 -0.67427628997E+03  0.12232307500E+04  0.14133250633E+04  0.00000000000E+00 0.  1.
        -11    1    3    3    0    0 -0.18275642366E+03 -0.34529747557E+03  0.67619232475E+03  0.78093938118E+03  0.00000000000E+00 0. -1.
         22    1    1    2    0    0  0.39850106808E+03  0.10195737655E+04 -0.36284174323E+03  0.11532510114E+04  0.00000000000E+00 0. -1.
<mgrwt>
<rscale>  0 0.29740171E+04</rscale>
<asrwt>0</asrwt>
<pdfrwt beam="1">  1        2 0.13930263E+00 0.29740171E+04</pdfrwt>
<pdfrwt beam="2">  1       -2 0.37569975E+00 0.29740171E+04</pdfrwt>
<totfact> 0.26604700E-01</totfact>
</mgrwt>
</event>
<event>
 6    1  0.1014650E-006  0.2136489E+04  0.7818608E-02  0.8545338E-01
          2   -1    0    0  501    0  0.00000000000E+00  0.00000000000E+00  0.11110273304E+04  0.11110273304E+04  0.00000000000E+00 0. -1.
         -2   -1    0    0    0  501 -0.00000000000E+00 -0.00000000000E+00 -0.10271089143E+04  0.10271089143E+04  0.00000000000E+00 0.  1.
         23    2    1    2    0    0  0.29325967810E+03  0.37256486238E+03 -0.91404456225E+03  0.10332670571E+04  0.85776068535E+02 0.  0.
         13    1    3    3    0    0  0.16615007443E+03  0.27092637833E+03 -0.56824775055E+03  0.65108559784E+03  0.00000000000E+00 0. -1.
        -13    1    3    3    0    0  0.12710960367E+03  0.10163848405E+03 -0.34579681170E+03  0.38218145921E+03  0.00000000000E+00 0.  1.
         22    1    1    2    0    0 -0.29325967810E+03 -0.37256486238E+03  0.99796297841E+03  0.11048691876E+04  0.00000000000E+00 0. -1.
<mgrwt>
<rscale>  0 0.21364888E+04</rscale>
<asrwt>0</asrwt>
<pdfrwt beam="1">  1        2 0.17092728E+00 0.21364888E+04</pdfrwt>
<pdfrwt beam="2">  1       -2 0.15801676E+00 0.21364888E+04</pdfrwt>
<totfact> 0.51350332E+00</totfact>
</mgrwt>
</event>
<event>
 6    1  0.1014650E-006  0.2286349E+04  0.7818608E-02  0.8483323E-01
          2   -1    0    0  501    0  0.00000000000E+00  0.00000000000E+00  0.18336056108E+04  0.18336056108E+04  0.00000000000E+00 0. -1.
         -2   -1    0    0    0  501 -0.00000000000E+00 -0.00000000000E+00 -0.71272044701E+03  0.71272044701E+03  0.00000000000E+00 0.  1.
         23    2    1    2    0    0  0.49984366210E+03  0.20845100308E+03  0.16802810082E+04  0.17677252500E+04  0.90624421870E+02 0.  0.
         11    1    3    3    0    0  0.83787102544E+02  0.26210336487E+02  0.18130316748E+03  0.20144006262E+03  0.00000000000E+00 0. -1.
        -11    1    3    3    0    0  0.41605655956E+03  0.18224066659E+03  0.14989778407E+04  0.15662851874E+04  0.00000000000E+00 0.  1.
         22    1    1    2    0    0 -0.49984366210E+03 -0.20845100308E+03 -0.55939584438E+03  0.77860080782E+03  0.00000000000E+00 0.  1.
<mgrwt>
<rscale>  0 0.22863492E+04</rscale>
<asrwt>0</asrwt>
<pdfrwt beam="1">  1        2 0.28209317E+00 0.22863492E+04</pdfrwt>
<pdfrwt beam="2">  1       -2 0.10964930E+00 0.22863492E+04</pdfrwt>
<totfact> 0.49676423E+00</totfact>
</mgrwt>
</event>
<event>
 6    1  0.1014650E-006  0.1672082E+04  0.7818608E-02  0.8777449E-01
          2   -1    0    0  501    0  0.00000000000E+00  0.00000000000E+00  0.90738125166E+03  0.90738125166E+03  0.00000000000E+00 0. -1.
         -2   -1    0    0    0  501 -0.00000000000E+00 -0.00000000000E+00 -0.77030966959E+03  0.77030966959E+03  0.00000000000E+00 0.  1.
         23    2    1    2    0    0 -0.73135048505E+03  0.27224858628E+03 -0.22497701606E+03  0.81741653937E+03  0.92532785374E+02 0.  0.
         13    1    3    3    0    0 -0.49071659929E+03  0.13558530823E+03 -0.14379832466E+03  0.52902184719E+03  0.00000000000E+00 0.  1.
        -13    1    3    3    0    0 -0.24063388576E+03  0.13666327804E+03 -0.81178691399E+02  0.28839469218E+03  0.00000000000E+00 0. -1.
         22    1    1    2    0    0  0.73135048505E+03 -0.27224858628E+03  0.36204859812E+03  0.86027438188E+03  0.00000000000E+00 0. -1.
<mgrwt>
<rscale>  0 0.16720820E+04</rscale>
<asrwt>0</asrwt>
<pdfrwt beam="1">  1        2 0.13959712E+00 0.16720820E+04</pdfrwt>
<pdfrwt beam="2">  1       -2 0.11850918E+00 0.16720820E+04</pdfrwt>
<totfact> 0.15141306E+01</totfact>
</mgrwt>
</event>
<event>
 6    1  0.1014650E-006  0.1837174E+04  0.7818608E-02  0.8686777E-01
         -2   -1    0    0    0  501 -0.00000000000E+00  0.00000000000E+00  0.12782810750E+04  0.12782810750E+04  0.00000000000E+00 0.  1.
          2   -1    0    0  501    0  0.00000000000E+00 -0.00000000000E+00 -0.66010676822E+03  0.66010676822E+03  0.00000000000E+00 0. -1.
         23    2    1    2    0    0  0.70801614828E+03 -0.14392183189E+03 -0.28503252576E+03  0.78176217244E+03  0.88928024820E+02 0.  0.
         11    1    3    3    0    0  0.27127812564E+03 -0.11477880180E+02 -0.11069914363E+03  0.29321982126E+03  0.00000000000E+00 0. -1.
        -11    1    3    3    0    0  0.43673802264E+03 -0.13244395171E+03 -0.17433338213E+03  0.48854235118E+03  0.00000000000E+00 0.  1.
         22    1    1    2    0    0 -0.70801614828E+03  0.14392183189E+03  0.90320683250E+03  0.11566256707E+04  0.00000000000E+00 0.  1.
<mgrwt>
<rscale>  0 0.18371739E+04</rscale>
<asrwt>0</asrwt>
<pdfrwt beam="1">  1        2 0.10155489E+00 0.18371739E+04</pdfrwt>
<pdfrwt beam="2">  1       -2 0.19665863E+00 0.18371739E+04</pdfrwt>
<totfact> 0.58050134E+00</totfact>
</mgrwt>
</event>
<event>
 6    1  0.1014650E-006  0.1772103E+04  0.7818608E-02  0.8721277E-01
         -2   -1    0    0    0  501 -0.00000000000E+00  0.00000000000E+00  0.43179265809E+03  0.43179265809E+03  0.00000000000E+00 0.  1.
          2   -1    0    0  501    0  0.00000000000E+00 -0.00000000000E+00 -0.18182035390E+04  0.18182035390E+04  0.00000000000E+00 0. -1.
         23    2    1    2    0    0  0.58032195245E+03  0.24706666510E+03  0.90765906530E+02  0.64379983087E+03  0.91783805493E+02 0.  0.
         11    1    3    3    0    0  0.28110270212E+03  0.16917716788E+03  0.52248988329E+02  0.33221920482E+03  0.00000000000E+00 0.  1.
        -11    1    3    3    0    0  0.29921925033E+03  0.77889497218E+02  0.38516918201E+02  0.31158062606E+03  0.00000000000E+00 0. -1.
         22    1    1    2    0    0 -0.58032195245E+03 -0.24706666510E+03 -0.14771767874E+04  0.16061963662E+04  0.00000000000E+00 0. -1.
<mgrwt>
<rscale>  0 0.17721026E+04</rscale>
<asrwt>0</asrwt>
<pdfrwt beam="1">  1        2 0.27972362E+00 0.17721026E+04</pdfrwt>
<pdfrwt beam="2">  1       -2 0.66429640E-01 0.17721026E+04</pdfrwt>
<totfact> 0.16613722E+01</totfact>
</mgrwt>
</event>
<event>
 6    1  0.1014650E-006  0.1296824E+04  0.7818608E-02  0.9032088E-01
         -2   -1    0    0    0  501 -0.00000000000E+00  0.00000000000E+00  0.10955223771E+04  0.10955223771E+04  0.00000000000E+00 0.  1.
          2   -1    0    0  501    0  0.00000000000E+00 -0.00000000000E+00 -0.38377858229E+03  0.38377858229E+03  0.00000000000E+00 0. -1.
         23    2    1    2    0    0  0.28173668467E+03  0.24072278183E+03 -0.24512523155E+03  0.45318139970E+03  0.89241160422E+02 0.  0.
         13    1    3    3    0    0  0.15994530624E+02  0.47426844256E+02 -0.15871003144E+02  0.52507326220E+02  0.00000000000E+00 0. -1.
        -13    1    3    3    0    0  0.26574215404E+03  0.19329593757E+03 -0.22925422840E+03  0.40067407348E+03  0.00000000000E+00 0.  1.
         22    1    1    2    0    0 -0.28173668467E+03 -0.24072278183E+03  0.95686902635E+03  0.10261195597E+04  0.00000000000E+00 0.  1.
<mgrwt>
<rscale>  0 0.12968239E+04</rscale>
<asrwt>0</asrwt>
<pdfrwt beam="1">  1        2 0.59042859E-01 0.12968239E+04</pdfrwt>
<pdfrwt beam="2">  1       -2 0.16854190E+00 0.12968239E+04</pdfrwt>
<totfact> 0.17811261E+01</totfact>
</mgrwt>
</event>
<event>
 6    1  0.1014650E-006  0.1363745E+04  0.7818608E-02  0.8980488E-01
          2   -1    0    0  501    0  0.00000000000E+00  0.00000000000E+00  0.44983514181E+03  0.44983514181E+03  0.00000000000E+00 0. -1.
         -2   -1    0    0    0  501 -0.00000000000E+00 -0.00000000000E+00 -0.10336004815E+04  0.10336004815E+04  0.00000000000E+00 0.  1.
         23    2    1    2    0    0 -0.49292191950E+03  0.19794332498E+03  0.16680632385E+03  0.56391868452E+03  0.89589923813E+02 0.  0.
         13    1    3    3    0    0 -0.11148590153E+03  0.72561686339E+01  0.44746194303E+02  0.12034940851E+03  0.00000000000E+00 0.  1.
        -13    1    3    3    0    0 -0.38143601797E+03  0.19068715634E+03  0.12206012955E+03  0.44356927601E+03  0.00000000000E+00 0. -1.
         22    1    1    2    0    0  0.49292191950E+03 -0.19794332498E+03 -0.75057166355E+03  0.91951693881E+03  0.00000000000E+00 0.  1.
<mgrwt>
<rscale>  0 0.13637446E+04</rscale>
<asrwt>0</asrwt>
<pdfrwt beam="1">  1        2 0.69205408E-01 0.13637446E+04</pdfrwt>
<pdfrwt beam="2">  1       -2 0.15901546E+00 0.13637446E+04</pdfrwt>
<totfact> 0.17373524E+01</totfact>
</mgrwt>
</event>
<event>
 6    1  0.1014650E-006  0.2547736E+04  0.7818608E-02  0.8386174E-01
          1   -1    0    0  501    0  0.00000000000E+00  0.00000000000E+00  0.31960029629E+04  0.31960029629E+04  0.00000000000E+00 0. -1.
         -1   -1    0    0    0  501 -0.00000000000E+00 -0.00000000000E+00 -0.50774045696E+03  0.50774045696E+03  0.00000000000E+00 0.  1.
         23    2    1    2    0    0 -0.12650358190E+04  0.13539674794E+03  0.13581080173E+04  0.18631025351E+04  0.89698199676E+02 0.  0.
         13    1    3    3    0    0 -0.86080209195E+03  0.98259312757E+02  0.86317043030E+03  0.12229874594E+04  0.00000000000E+00 0. -1.
        -13    1    3    3    0    0 -0.40423372708E+03  0.37137435188E+02  0.49493758697E+03  0.64011507575E+03  0.00000000000E+00 0.  1.
         22    1    1    2    0    0  0.12650358190E+04 -0.13539674794E+03  0.13301544887E+04  0.18406408847E+04  0.00000000000E+00 0.  1.
<mgrwt>
<rscale>  0 0.25477363E+04</rscale>
<asrwt>0</asrwt>
<pdfrwt beam="1">  1        1 0.49169275E+00 0.25477363E+04</pdfrwt>
<pdfrwt beam="2">  1       -1 0.78113918E-01 0.25477363E+04</pdfrwt>
<totfact> 0.62151301E-01</totfact>
</mgrwt>
</event>
<event>
 6    1  0.1014650E-006  0.1411941E+04  0.7818608E-02  0.8945220E-01
          1   -1    0    0  501    0  0.00000000000E+00  0.00000000000E+00  0.58036699769E+03  0.58036699769E+03  0.00000000000E+00 0. -1.
         -1   -1    0    0    0  501 -0.00000000000E+00 -0.00000000000E+00 -0.85875725919E+03  0.85875725919E+03  0.00000000000E+00 0.  1.
         23    2    1    2    0    0  0.50178034919E+03  0.39434250640E+02 -0.64028625268E+03  0.81919902962E+03  0.88215564415E+02 0.  0.
         13    1    3    3    0    0  0.32308030835E+03  0.65552257602E+02 -0.39235608055E+03  0.51246587991E+03  0.00000000000E+00 0. -1.
        -13    1    3    3    0    0  0.17870004084E+03 -0.26118006962E+02 -0.24793017213E+03  0.30673314972E+03  0.00000000000E+00 0.  1.
         22    1    1    2    0    0 -0.50178034919E+03 -0.39434250640E+02  0.36189599118E+03  0.61992522726E+03  0.00000000000E+00 0. -1.
<mgrwt>
<rscale>  0 0.14119410E+04</rscale>
<asrwt>0</asrwt>
<pdfrwt beam="1">  1        1 0.89287231E-01 0.14119410E+04</pdfrwt>
<pdfrwt beam="2">  1       -1 0.13211650E+00 0.14119410E+04</pdfrwt>
<totfact> 0.17042744E+01</totfact>
</mgrwt>
</event>
<event>
 6    1  0.1014650E-006  0.2335000E+04  0.7818608E-02  0.8464248E-01
         -3   -1    0    0    0  501 -0.00000000000E+00  0.00000000000E+00  0.31868110970E+04  0.31868110970E+04  0.00000000000E+00 0.  1.
          3   -1    0    0  501    0  0.00000000000E+00 -0.00000000000E+00 -0.42771792948E+03  0.42771792948E+03  0.00000000000E+00 0. -1.
         23    2    1    2    0    0  0.75825450029E+03  0.88495068160E+03  0.13381677486E+04  0.17768357326E+04  0.91458741206E+02 0.  0.
         13    1    3    3    0    0  0.50049454511E+03  0.53121361542E+03  0.79379479976E+03  0.10783287435E+04  0.00000000000E+00 0.  1.
        -13    1    3    3    0    0  0.25775995518E+03  0.35373706618E+03  0.54437294884E+03  0.69850698917E+03  0.00000000000E+00 0. -1.
         22    1    1    2    0    0 -0.75825450029E+03 -0.88495068160E+03  0.14209254189E+04  0.18376932938E+04  0.00000000000E+00 0. -1.
<mgrwt>
<rscale>  0 0.23350000E+04</rscale>
<asrwt>0</asrwt>
<pdfrwt beam="1">  1        3 0.65802761E-01 0.23350000E+04</pdfrwt>
<pdfrwt beam="2">  1       -3 0.49027861E+00 0.23350000E+04</pdfrwt>
<totfact> 0.18016169E-02</totfact>
</mgrwt>
</event>
<event>
 6    1  0.1374744E-006  0.3873725E+04  0.7818608E-02  0.8030516E-01
         -2   -1    0    0    0  501 -0.00000000000E+00  0.00000000000E+00  0.15859000978E+04  0.15859000978E+04  0.00000000000E+00 0.  1.
          2   -1    0    0  501    0  0.00000000000E+00 -0.00000000000E+00 -0.23654932928E+04  0.23654932928E+04  0.00000000000E+00 0. -1.
         23    2    1    2    0    0 -0.25021927135E+03 -0.19195834370E+04 -0.39172738066E+03  0.19770960104E+04  0.89710858559E+02 0.  0.
         11    1    3    3    0    0 -0.20165810037E+03 -0.12162422890E+04 -0.25517404618E+03  0.12589777952E+04  0.00000000000E+00 0. -1.
        -11    1    3    3    0    0 -0.48561170980E+02 -0.70334114801E+03 -0.13655333448E+03  0.71811821517E+03  0.00000000000E+00 0.  1.
         22    1    1    2    0    0  0.25021927135E+03  0.19195834370E+04 -0.38786581426E+03  0.19742973802E+04  0.00000000000E+00 0. -1.
<mgrwt>
<rscale>  0 0.38737248E+04</rscale>
<asrwt>0</asrwt>
<pdfrwt beam="1">  1        2 0.36392204E+00 0.38737248E+04</pdfrwt>
<pdfrwt beam="2">  1       -2 0.24398463E+00 0.38737248E+04</pdfrwt>
<totfact> 0.23208483E-01</totfact>
</mgrwt>
</event>
<event>
 6    1  0.1014650E-006  0.7672462E+03  0.7818608E-02  0.9608676E-01
          1   -1    0    0  501    0  0.00000000000E+00  0.00000000000E+00  0.75643949804E+03  0.75643949804E+03  0.00000000000E+00 0. -1.
         -1   -1    0    0    0  501 -0.00000000000E+00 -0.00000000000E+00 -0.19455181684E+03  0.19455181684E+03  0.00000000000E+00 0.  1.
         23    2    1    2    0    0 -0.26288788167E+03  0.25574529585E+03  0.39867672519E+03  0.54955201581E+03  0.92458597236E+02 0.  0.
         11    1    3    3    0    0 -0.23802598898E+03  0.18247316874E+03  0.30066249004E+03  0.42467724410E+03  0.00000000000E+00 0.  1.
        -11    1    3    3    0    0 -0.24861892687E+02  0.73272127102E+02  0.98014235151E+02  0.12487477171E+03  0.00000000000E+00 0. -1.
         22    1    1    2    0    0  0.26288788167E+03 -0.25574529585E+03  0.16321095601E+03  0.40143929907E+03  0.00000000000E+00 0.  1.
<mgrwt>
<rscale>  0 0.76724619E+03</rscale>
<asrwt>0</asrwt>
<pdfrwt beam="1">  1        1 0.11637531E+00 0.76724619E+03</pdfrwt>
<pdfrwt beam="2">  1       -1 0.29931049E-01 0.76724619E+03</pdfrwt>
<totfact> 0.25018164E+02</totfact>
</mgrwt>
</event>
<event>
 6    1  0.1014650E-006  0.5102113E+04  0.7818608E-02  0.7812946E-01
          2   -1    0    0  501    0  0.00000000000E+00  0.00000000000E+00  0.28529601343E+04  0.28529601343E+04  0.00000000000E+00 0. -1.
         -2   -1    0    0    0  501 -0.00000000000E+00 -0.00000000000E+00 -0.22811005707E+04  0.22811005707E+04  0.00000000000E+00 0.  1.
         23    2    1    2    0    0  0.20616142331E+04  0.83844940554E+03 -0.96676704377E+03  0.24283958164E+04  0.96005585084E+02 0.  0.
         13    1    3    3    0    0  0.66906537288E+03  0.28969326069E+03 -0.36273668133E+03  0.81433933865E+03  0.00000000000E+00 0.  1.
        -13    1    3    3    0    0  0.13925488602E+04  0.54875614485E+03 -0.60403036244E+03  0.16140564778E+04  0.00000000000E+00 0. -1.
         22    1    1    2    0    0 -0.20616142331E+04 -0.83844940554E+03  0.15386266074E+04  0.27056648885E+04  0.00000000000E+00 0.  1.
<mgrwt>
<rscale>  0 0.51021129E+04</rscale>
<asrwt>0</asrwt>
<pdfrwt beam="1">  1        2 0.43891694E+00 0.51021129E+04</pdfrwt>
<pdfrwt beam="2">  1       -2 0.35093855E+00 0.51021129E+04</pdfrwt>
<totfact> 0.23793609E-02</totfact>
</mgrwt>
</event>
<event>
 6    1  0.1014650E-006  0.1402134E+04  0.7818608E-02  0.8952275E-01
          2   -1    0    0  501    0  0.00000000000E+00  0.00000000000E+00  0.66962109876E+03  0.66962109876E+03  0.00000000000E+00 0. -1.
         -2   -1    0    0    0  501 -0.00000000000E+00 -0.00000000000E+00 -0.73399011982E+03  0.73399011982E+03  0.00000000000E+00 0.  1.
         23    2    1    2    0    0  0.45034653707E+03 -0.23054720347E+03 -0.51429227167E+03  0.72656251434E+03  0.86212122551E+02 0.  0.
         11    1    3    3    0    0  0.25093071248E+03 -0.15361190805E+03 -0.34830854186E+03  0.45594043590E+03  0.00000000000E+00 0.  1.
        -11    1    3    3    0    0  0.19941582459E+03 -0.76935295411E+02 -0.16598372981E+03  0.27062207844E+03  0.00000000000E+00 0. -1.
         22    1    1    2    0    0 -0.45034653707E+03  0.23054720347E+03  0.44992325061E+03  0.67704870424E+03  0.00000000000E+00 0. -1.
<mgrwt>
<rscale>  0 0.14021345E+04</rscale>
<asrwt>0</asrwt>
<pdfrwt beam="1">  1        2 0.10301863E+00 0.14021345E+04</pdfrwt>
<pdfrwt beam="2">  1       -2 0.11292156E+00 0.14021345E+04</pdfrwt>
<totfact> 0.25993606E+01</totfact>
</mgrwt>
</event>
<event>
 6    1  0.1014650E-006  0.9356979E+03  0.7818608E-02  0.9382026E-01
         -2   -1    0    0    0  501 -0.00000000000E+00  0.00000000000E+00  0.41457385425E+03  0.41457385425E+03  0.00000000000E+00 0.  1.
          2   -1    0    0  501    0  0.00000000000E+00 -0.00000000000E+00 -0.52797019915E+03  0.52797019915E+03  0.00000000000E+00 0. -1.
         23    2    1    2    0    0 -0.11373483241E+03  0.25435285166E+03 -0.43034588907E+03  0.52053931552E+03  0.90180982009E+02 0.  0.
         11    1    3    3    0    0 -0.12664550920E+03  0.21410144101E+03 -0.38653289017E+03  0.45965877260E+03  0.00000000000E+00 0.  1.
        -11    1    3    3    0    0  0.12910676787E+02  0.40251410650E+02 -0.43812998896E+02  0.60880542923E+02  0.00000000000E+00 0. -1.
         22    1    1    2    0    0  0.11373483241E+03 -0.25435285166E+03  0.31694954417E+03  0.42200473789E+03  0.00000000000E+00 0.  1.
<mgrwt>
<rscale>  0 0.93569790E+03</rscale>
<asrwt>0</asrwt>
<pdfrwt beam="1">  1        2 0.81226184E-01 0.93569790E+03</pdfrwt>
<pdfrwt beam="2">  1       -2 0.63780593E-01 0.93569790E+03</pdfrwt>
<totfact> 0.13168095E+02</totfact>
</mgrwt>
</event>
<event>
 6    1  0.1014650E-006  0.1891272E+04  0.7818608E-02  0.8659213E-01
          2   -1    0    0  501    0  0.00000000000E+00  0.00000000000E+00  0.82478097359E+03  0.82478097359E+03  0.00000000000E+00 0. -1.
         -2   -1    0    0    0  501 -0.00000000000E+00 -0.00000000000E+00 -0.10841993689E+04  0.10841993689E+04  0.00000000000E+00 0.  1.
         23    2    1    2    0    0  0.32230680055E+03  0.48139954032E+03 -0.88159871053E+03  0.10588418034E+04  0.91117984348E+02 0.  0.
         11    1    3    3    0    0  0.10307027790E+03  0.22194998025E+03 -0.32586141014E+03  0.40751801744E+03  0.00000000000E+00 0.  1.
        -11    1    3    3    0    0  0.21923652266E+03  0.25944956007E+03 -0.55573730039E+03  0.65132378594E+03  0.00000000000E+00 0. -1.
         22    1    1    2    0    0 -0.32230680055E+03 -0.48139954032E+03  0.62218031520E+03  0.85013853914E+03  0.00000000000E+00 0. -1.
<mgrwt>
<rscale>  0 0.18912715E+04</rscale>
<asrwt>0</asrwt>
<pdfrwt beam="1">  1        2 0.12688938E+00 0.18912715E+04</pdfrwt>
<pdfrwt beam="2">  1       -2 0.16679990E+00 0.18912715E+04</pdfrwt>
<totfact> 0.69596348E+00</totfact>
</mgrwt>
</event>
<event>
 6    1  0.1014650E-006  0.7845673E+03  0.7818608E-02  0.9582628E-01
          1   -1    0    0  501    0  0.00000000000E+00  0.00000000000E+00  0.26827277846E+03  0.26827277846E+03  0.00000000000E+00 0. -1.
         -1   -1    0    0    0  501 -0.00000000000E+00 -0.00000000000E+00 -0.57361930110E+03  0.57361930110E+03  0.00000000000E+00 0.  1.
         23    2    1    2    0    0  0.33512138466E+01  0.19973131366E+03 -0.51038129032E+03  0.55563505476E+03  0.91309497219E+02 0.  0.
         13    1    3    3    0    0  0.34306070172E+02  0.66272363989E+02 -0.11407124212E+03  0.13631280556E+03  0.00000000000E+00 0. -1.
        -13    1    3    3    0    0 -0.30954856325E+02  0.13345894967E+03 -0.39631004820E+03  0.41932224921E+03  0.00000000000E+00 0.  1.
         22    1    1    2    0    0 -0.33512138466E+01 -0.19973131366E+03  0.20503476768E+03  0.28625702480E+03  0.00000000000E+00 0. -1.
<mgrwt>
<rscale>  0 0.78456725E+03</rscale>
<asrwt>0</asrwt>
<pdfrwt beam="1">  1        1 0.41272736E-01 0.78456725E+03</pdfrwt>
<pdfrwt beam="2">  1       -1 0.88249121E-01 0.78456725E+03</pdfrwt>
<totfact> 0.12963447E+02</totfact>
</mgrwt>
</event>
<event>
 6    1  0.1682643E-006  0.2257784E+04  0.7818608E-02  0.8494755E-01
          2   -1    0    0  501    0  0.00000000000E+00  0.00000000000E+00  0.13749806239E+04  0.13749806239E+04  0.00000000000E+00 0. -1.
         -2   -1    0    0    0  501 -0.00000000000E+00 -0.00000000000E+00 -0.92684704628E+03  0.92684704628E+03  0.00000000000E+00 0.  1.
         23    2    1    2    0    0 -0.75339859086E+03  0.82755385916E+03  0.88344512534E+02  0.11262839671E+04  0.90862506833E+02 0.  0.
         11    1    3    3    0    0 -0.40886743000E+03  0.45863499340E+03  0.35763757217E+01  0.61443585748E+03  0.00000000000E+00 0.  1.
        -11    1    3    3    0    0 -0.34453116085E+03  0.36891886576E+03  0.84768136813E+02  0.51184810963E+03  0.00000000000E+00 0. -1.
         22    1    1    2    0    0  0.75339859086E+03 -0.82755385916E+03  0.35978906512E+03  0.11755437031E+04  0.00000000000E+00 0. -1.
<mgrwt>
<rscale>  0 0.22577836E+04</rscale>
<asrwt>0</asrwt>
<pdfrwt beam="1">  1        2 0.21153548E+00 0.22577836E+04</pdfrwt>
<pdfrwt beam="2">  1       -2 0.14259185E+00 0.22577836E+04</pdfrwt>
<totfact> 0.46596751E+00</totfact>
</mgrwt>
</event>
<event>
 6    1  0.1302118E-006  0.3219681E+04  0.7818608E-02  0.8183639E-01
         -2   -1    0    0    0  501 -0.00000000000E+00  0.00000000000E+00  0.14966230703E+04  0.14966230703E+04  0.00000000000E+00 0.  1.
          2   -1    0    0  501    0  0.00000000000E+00 -0.00000000000E+00 -0.17316223111E+04  0.17316223111E+04  0.00000000000E+00 0. -1.
         23    2    1    2    0    0 -0.86904058982E+03  0.87467057223E+03 -0.11533174813E+04  0.16908487027E+04  0.92455211660E+02 0.  0.
         13    1    3    3    0    0 -0.44328800340E+03  0.39742555785E+03 -0.51382626613E+03  0.78642784778E+03  0.00000000000E+00 0. -1.
        -13    1    3    3    0    0 -0.42575258642E+03  0.47724501438E+03 -0.63949121515E+03  0.90442085494E+03  0.00000000000E+00 0.  1.
         22    1    1    2    0    0  0.86904058982E+03 -0.87467057223E+03  0.91831824057E+03  0.15373966787E+04  0.00000000000E+00 0.  1.
<mgrwt>
<rscale>  0 0.32196807E+04</rscale>
<asrwt>0</asrwt>
<pdfrwt beam="1">  1        2 0.26640343E+00 0.32196807E+04</pdfrwt>
<pdfrwt beam="2">  1       -2 0.23024970E+00 0.32196807E+04</pdfrwt>
<totfact> 0.67453716E-01</totfact>
</mgrwt>
</event>
<event>
 6    1  0.1014650E-006  0.4099319E+04  0.7818608E-02  0.7984805E-01
          2   -1    0    0  501    0  0.00000000000E+00  0.00000000000E+00  0.24730288515E+04  0.24730288515E+04  0.00000000000E+00 0. -1.
         -2   -1    0    0    0  501 -0.00000000000E+00 -0.00000000000E+00 -0.16987684999E+04  0.16987684999E+04  0.00000000000E+00 0.  1.
         23    2    1    2    0    0  0.14873103764E+04  0.69951616095E+03 -0.85729982864E+03  0.18558950138E+04  0.89265283810E+02 0.  0.
         13    1    3    3    0    0  0.79867142074E+03  0.34883411006E+03 -0.49647563077E+03  0.10030201028E+04  0.00000000000E+00 0. -1.
        -13    1    3    3    0    0  0.68863895568E+03  0.35068205090E+03 -0.36082419787E+03  0.85287491103E+03  0.00000000000E+00 0.  1.
         22    1    1    2    0    0 -0.14873103764E+04 -0.69951616095E+03  0.16315601803E+04  0.23159023376E+04  0.00000000000E+00 0. -1.
<mgrwt>
<rscale>  0 0.40993187E+04</rscale>
<asrwt>0</asrwt>
<pdfrwt beam="1">  1        2 0.38046598E+00 0.40993187E+04</pdfrwt>
<pdfrwt beam="2">  1       -2 0.26134900E+00 0.40993187E+04</pdfrwt>
<totfact> 0.15459955E-01</totfact>
</mgrwt>
</event>
<event>
 6    1  0.1014650E-006  0.1187803E+04  0.7818608E-02  0.9123600E-01
         -1   -1    0    0    0  501 -0.00000000000E+00  0.00000000000E+00  0.11102931607E+03  0.11102931607E+03  0.00000000000E+00 0.  1.
          1   -1    0    0  501    0  0.00000000000E+00 -0.00000000000E+00 -0.31768075562E+04  0.31768075562E+04  0.00000000000E+00 0. -1.
         23    2    1    2    0    0 -0.15211058054E+03  0.55659801671E+03 -0.11954816077E+04  0.13305559843E+04  0.90906392667E+02 0.  0.
         11    1    3    3    0    0 -0.11441112653E+03  0.37730011903E+03 -0.90453329175E+03  0.98672476486E+03  0.00000000000E+00 0. -1.
        -11    1    3    3    0    0 -0.37699454016E+02  0.17929789768E+03 -0.29094831591E+03  0.34383121947E+03  0.00000000000E+00 0.  1.
         22    1    1    2    0    0  0.15211058054E+03 -0.55659801671E+03 -0.18702966325E+04  0.19572808880E+04  0.00000000000E+00 0.  1.
<mgrwt>
<rscale>  0 0.11878026E+04</rscale>
<asrwt>0</asrwt>
<pdfrwt beam="1">  1        1 0.48873964E+00 0.11878026E+04</pdfrwt>
<pdfrwt beam="2">  1       -1 0.17081433E-01 0.11878026E+04</pdfrwt>
<totfact> 0.11849052E+01</totfact>
</mgrwt>
</event>
<event>
 6    1  0.1014650E-006  0.3290564E+04  0.7818608E-02  0.8165301E-01
         -2   -1    0    0    0  501 -0.00000000000E+00  0.00000000000E+00  0.19774876830E+04  0.19774876830E+04  0.00000000000E+00 0.  1.
          2   -1    0    0  501    0  0.00000000000E+00 -0.00000000000E+00 -0.13688846284E+04  0.13688846284E+04  0.00000000000E+00 0. -1.
         23    2    1    2    0    0  0.10754822934E+04  0.65466662581E+03 -0.77055395286E+03  0.14789343323E+04  0.90789926758E+02 0.  0.
         13    1    3    3    0    0  0.22052062777E+03  0.17719979476E+03 -0.16205854696E+03  0.32602467265E+03  0.00000000000E+00 0. -1.
        -13    1    3    3    0    0  0.85496166561E+03  0.47746683106E+03 -0.60849540590E+03  0.11529096597E+04  0.00000000000E+00 0.  1.
         22    1    1    2    0    0 -0.10754822934E+04 -0.65466662581E+03  0.13791570074E+04  0.18674379790E+04  0.00000000000E+00 0.  1.
<mgrwt>
<rscale>  0 0.32905638E+04</rscale>
<asrwt>0</asrwt>
<pdfrwt beam="1">  1        2 0.21059763E+00 0.32905638E+04</pdfrwt>
<pdfrwt beam="2">  1       -2 0.30422888E+00 0.32905638E+04</pdfrwt>
<totfact> 0.37732825E-01</totfact>
</mgrwt>
</event>
<event>
 6    1  0.1014650E-006  0.5186538E+03  0.7818608E-02  0.1009021E+00
          4   -1    0    0  501    0  0.00000000000E+00  0.00000000000E+00  0.24815900841E+03  0.24815900841E+03  0.00000000000E+00 0. -1.
         -4   -1    0    0    0  501 -0.00000000000E+00 -0.00000000000E+00 -0.27099742378E+03  0.27099742378E+03  0.00000000000E+00 0.  1.
         23    2    1    2    0    0 -0.16816918952E+03 -0.18441754804E+03  0.17947709483E+02  0.26626472354E+03  0.91016890722E+02 0.  0.
         13    1    3    3    0    0 -0.67011773589E+02 -0.12984502613E+03 -0.14495347897E+02  0.14683468160E+03  0.00000000000E+00 0.  1.
        -13    1    3    3    0    0 -0.10115741593E+03 -0.54572521912E+02  0.32443057381E+02  0.11943004194E+03  0.00000000000E+00 0. -1.
         22    1    1    2    0    0  0.16816918952E+03  0.18441754804E+03 -0.40786124855E+02  0.25289170866E+03  0.00000000000E+00 0. -1.
<mgrwt>
<rscale>  0 0.51865384E+03</rscale>
<asrwt>0</asrwt>
<pdfrwt beam="1">  1        4 0.38178309E-01 0.51865384E+03</pdfrwt>
<pdfrwt beam="2">  1       -4 0.41691911E-01 0.51865384E+03</pdfrwt>
<totfact> 0.73267427E+01</totfact>
</mgrwt>
</event>
<event>
 6    1  0.1014650E-006  0.1235846E+04  0.7818608E-02  0.9082047E-01
         -2   -1    0    0    0  501 -0.00000000000E+00  0.00000000000E+00  0.33674449945E+03  0.33674449945E+03  0.00000000000E+00 0.  1.
          2   -1    0    0  501    0  0.00000000000E+00 -0.00000000000E+00 -0.11338826284E+04  0.11338826284E+04  0.00000000000E+00 0. -1.
         23    2    1    2    0    0 -0.61059309209E+03  0.38815536461E+02 -0.47050303084E+03  0.77707031163E+03  0.90192001874E+02 0.  0.
         11    1    3    3    0    0 -0.46762468076E+03  0.64010120087E+02 -0.33809354921E+03  0.58058365939E+03  0.00000000000E+00 0. -1.
        -11    1    3    3    0    0 -0.14296841133E+03 -0.25194583626E+02 -0.13240948164E+03  0.19648665224E+03  0.00000000000E+00 0.  1.
         22    1    1    2    0    0  0.61059309209E+03 -0.38815536461E+02 -0.32663509808E+03  0.69355681618E+03  0.00000000000E+00 0.  1.
<mgrwt>
<rscale>  0 0.12358458E+04</rscale>
<asrwt>0</asrwt>
<pdfrwt beam="1">  1        2 0.17444348E+00 0.12358458E+04</pdfrwt>
<pdfrwt beam="2">  1       -2 0.51806846E-01 0.12358458E+04</pdfrwt>
<totfact> 0.71918771E+01</totfact>
</mgrwt>
</event>
<event>
 6    1  0.1014650E-006  0.5244079E+04  0.7818608E-02  0.7791920E-01
          1   -1    0    0  501    0  0.00000000000E+00  0.00000000000E+00  0.27945303448E+04  0.27945303448E+04  0.00000000000E+00 0. -1.
         -1   -1    0    0    0  501 -0.00000000000E+00 -0.00000000000E+00 -0.24601956880E+04  0.24601956880E+04  0.00000000000E+00 0.  1.
         23    2    1    2    0    0 -0.15671181465E+04 -0.58373316933E+03  0.21900620504E+04  0.27566612102E+04  0.78775284469E+02 0.  0.
         11    1    3    3    0    0 -0.74072612954E+03 -0.28563075515E+03  0.11027496950E+04  0.13587924849E+04  0.00000000000E+00 0. -1.
        -11    1    3    3    0    0 -0.82639201700E+03 -0.29810241418E+03  0.10873123554E+04  0.13978687253E+04  0.00000000000E+00 0.  1.
         22    1    1    2    0    0  0.15671181465E+04  0.58373316933E+03 -0.18557273936E+04  0.24980648226E+04  0.00000000000E+00 0.  1.
<mgrwt>
<rscale>  0 0.52440791E+04</rscale>
<asrwt>0</asrwt>
<pdfrwt beam="1">  1        1 0.42992775E+00 0.52440791E+04</pdfrwt>
<pdfrwt beam="2">  1       -1 0.37849164E+00 0.52440791E+04</pdfrwt>
<totfact> 0.59670875E-03</totfact>
</mgrwt>
</event>
<event>
 6    1  0.1014650E-006  0.8034909E+03  0.7818608E-02  0.9554978E-01
          2   -1    0    0  501    0  0.00000000000E+00  0.00000000000E+00  0.56140704831E+03  0.56140704831E+03  0.00000000000E+00 0. -1.
         -2   -1    0    0    0  501 -0.00000000000E+00 -0.00000000000E+00 -0.28749090407E+03  0.28749090407E+03  0.00000000000E+00 0.  1.
         23    2    1    2    0    0  0.26263201926E+03 -0.29656041295E+03  0.11759621002E+03  0.42303461996E+03  0.90585677669E+02 0.  0.
         13    1    3    3    0    0  0.10743506023E+03 -0.80917949097E+02  0.53281689823E+01  0.13460459144E+03  0.00000000000E+00 0.  1.
        -13    1    3    3    0    0  0.15519695903E+03 -0.21564246385E+03  0.11226804104E+03  0.28843002851E+03  0.00000000000E+00 0. -1.
         22    1    1    2    0    0 -0.26263201926E+03  0.29656041295E+03  0.15631993422E+03  0.42586333242E+03  0.00000000000E+00 0. -1.
<mgrwt>
<rscale>  0 0.80349093E+03</rscale>
<asrwt>0</asrwt>
<pdfrwt beam="1">  1        2 0.86370315E-01 0.80349093E+03</pdfrwt>
<pdfrwt beam="2">  1       -2 0.44229370E-01 0.80349093E+03</pdfrwt>
<totfact> 0.26209993E+02</totfact>
</mgrwt>
</event>
<event>
 6    1  0.1014650E-006  0.3845519E+04  0.7818608E-02  0.8036456E-01
         -1   -1    0    0    0  501 -0.00000000000E+00  0.00000000000E+00  0.18996470544E+04  0.18996470544E+04  0.00000000000E+00 0.  1.
          1   -1    0    0  501    0  0.00000000000E+00 -0.00000000000E+00 -0.19461536446E+04  0.19461536446E+04  0.00000000000E+00 0. -1.
         23    2    1    2    0    0  0.13140553621E+04 -0.12293193327E+04 -0.69765390386E+03  0.19321757774E+04  0.92815669608E+02 0.  0.
         11    1    3    3    0    0  0.11286643189E+04 -0.10978003012E+04 -0.61294791352E+03  0.16896016663E+04  0.00000000000E+00 0. -1.
        -11    1    3    3    0    0  0.18539104321E+03 -0.13151903154E+03 -0.84705990339E+02  0.24257411106E+03  0.00000000000E+00 0.  1.
         22    1    1    2    0    0 -0.13140553621E+04  0.12293193327E+04  0.65114731369E+03  0.19136249216E+04  0.00000000000E+00 0.  1.
<mgrwt>
<rscale>  0 0.38455195E+04</rscale>
<asrwt>0</asrwt>
<pdfrwt beam="1">  1        1 0.29940825E+00 0.38455195E+04</pdfrwt>
<pdfrwt beam="2">  1       -1 0.29225339E+00 0.38455195E+04</pdfrwt>
<totfact> 0.95258050E-02</totfact>
</mgrwt>
</event>
<event>
 6    1  0.1098880E-006  0.3986317E+04  0.7818608E-02  0.8007312E-01
          2   -1    0    0  501    0  0.00000000000E+00  0.00000000000E+00  0.28025867476E+04  0.28025867476E+04  0.00000000000E+00 0. -1.
         -2   -1    0    0    0  501 -0.00000000000E+00 -0.00000000000E+00 -0.14175053648E+04  0.14175053648E+04  0.00000000000E+00 0.  1.
         23    2    1    2    0    0  0.27332884793E+03  0.11150370833E+04 -0.10305962022E+04  0.15454866180E+04  0.91564174947E+02 0.  0.
         11    1    3    3    0    0  0.17987301822E+03  0.55675203337E+03 -0.54777475986E+03  0.80148881270E+03  0.00000000000E+00 0. -1.
        -11    1    3    3    0    0  0.93455829710E+02  0.55828504994E+03 -0.48282144232E+03  0.74399780528E+03  0.00000000000E+00 0.  1.
         22    1    1    2    0    0 -0.27332884793E+03 -0.11150370833E+04  0.24156775849E+04  0.26746054944E+04  0.00000000000E+00 0. -1.
<mgrwt>
<rscale>  0 0.39863175E+04</rscale>
<asrwt>0</asrwt>
<pdfrwt beam="1">  1        2 0.43116719E+00 0.39863175E+04</pdfrwt>
<pdfrwt beam="2">  1       -2 0.21807775E+00 0.39863175E+04</pdfrwt>
<totfact> 0.18491891E-01</totfact>
</mgrwt>
</event>
<event>
 6    1  0.1014650E-006  0.8697999E+03  0.7818608E-02  0.9464141E-01
         -2   -1    0    0    0  501 -0.00000000000E+00  0.00000000000E+00  0.22523874364E+03  0.22523874364E+03  0.00000000000E+00 0.  1.
          2   -1    0    0  501    0  0.00000000000E+00 -0.00000000000E+00 -0.83972215064E+03  0.83972215064E+03  0.00000000000E+00 0. -1.
         23    2    1    2    0    0  0.36622414787E+03  0.21470352281E+03 -0.40675064959E+03  0.59233987518E+03  0.72129796838E+02 0.  0.
         13    1    3    3    0    0  0.68949027855E+02  0.26251532274E+02 -0.10730272704E+03  0.13021899484E+03  0.00000000000E+00 0. -1.
        -13    1    3    3    0    0  0.29727512002E+03  0.18845199054E+03 -0.29944792255E+03  0.46212088033E+03  0.00000000000E+00 0.  1.
         22    1    1    2    0    0 -0.36622414787E+03 -0.21470352281E+03 -0.20773275741E+03  0.47262101910E+03  0.00000000000E+00 0.  1.
<mgrwt>
<rscale>  0 0.86979989E+03</rscale>
<asrwt>0</asrwt>
<pdfrwt beam="1">  1        2 0.12918802E+00 0.86979989E+03</pdfrwt>
<pdfrwt beam="2">  1       -2 0.34652114E-01 0.86979989E+03</pdfrwt>
<totfact> 0.25268478E+02</totfact>
</mgrwt>
</event>
<event>
 6    1  0.1014650E-006  0.2527252E+04  0.7818608E-02  0.8393341E-01
         -2   -1    0    0    0  501 -0.00000000000E+00  0.00000000000E+00  0.11636069052E+04  0.11636069052E+04  0.00000000000E+00 0.  1.
          2   -1    0    0  501    0  0.00000000000E+00 -0.00000000000E+00 -0.13722423848E+04  0.13722423848E+04  0.00000000000E+00 0. -1.
         23    2    1    2    0    0  0.11097571277E+04  0.16170245225E+03  0.47620334741E+03  0.12218048522E+04  0.91262824831E+02 0.  0.
         11    1    3    3    0    0  0.61095401918E+03  0.61957865862E+02  0.22051131676E+03  0.65247898933E+03  0.00000000000E+00 0. -1.
        -11    1    3    3    0    0  0.49880310854E+03  0.99744586383E+02  0.25569203065E+03  0.56932586287E+03  0.00000000000E+00 0.  1.
         22    1    1    2    0    0 -0.11097571277E+04 -0.16170245225E+03 -0.68483882704E+03  0.13140444378E+04  0.00000000000E+00 0.  1.
<mgrwt>
<rscale>  0 0.25272520E+04</rscale>
<asrwt>0</asrwt>
<pdfrwt beam="1">  1        2 0.21111421E+00 0.25272520E+04</pdfrwt>
<pdfrwt beam="2">  1       -2 0.17901645E+00 0.25272520E+04</pdfrwt>
<totfact> 0.24608428E+00</totfact>
</mgrwt>
</event>
<event>
 6    1  0.1014650E-006  0.2928445E+04  0.7818608E-02  0.8264464E-01
          2   -1    0    0  501    0  0.00000000000E+00  0.00000000000E+00  0.28403455198E+04  0.28403455198E+04  0.00000000000E+00 0. -1.
         -2   -1    0    0    0  501 -0.00000000000E+00 -0.00000000000E+00 -0.75481949994E+03  0.75481949994E+03  0.00000000000E+00 0.  1.
         23    2    1    2    0    0 -0.49372772439E+03  0.78522248998E+03  0.24323957469E+04  0.26048822156E+04  0.92308519254E+02 0.  0.
         11    1    3    3    0    0 -0.33438741582E+03  0.57247194911E+03  0.18322942550E+04  0.19485485144E+04  0.00000000000E+00 0. -1.
        -11    1    3    3    0    0 -0.15934030857E+03  0.21275054087E+03  0.60010149197E+03  0.65633370113E+03  0.00000000000E+00 0.  1.
         22    1    1    2    0    0  0.49372772439E+03 -0.78522248998E+03 -0.34686972710E+03  0.99028280414E+03  0.00000000000E+00 0.  1.
<mgrwt>
<rscale>  0 0.29284454E+04</rscale>
<asrwt>0</asrwt>
<pdfrwt beam="1">  1        2 0.43697623E+00 0.29284454E+04</pdfrwt>
<pdfrwt beam="2">  1       -2 0.11612608E+00 0.29284454E+04</pdfrwt>
<totfact> 0.10829934E+00</totfact>
</mgrwt>
</event>
<event>
 6    1  0.1363702E-006  0.3673720E+04  0.7818608E-02  0.8073811E-01
          1   -1    0    0  501    0  0.00000000000E+00  0.00000000000E+00  0.26382579252E+04  0.26382579252E+04  0.00000000000E+00 0. -1.
         -1   -1    0    0    0  501 -0.00000000000E+00 -0.00000000000E+00 -0.12788948699E+04  0.12788948699E+04  0.00000000000E+00 0.  1.
         23    2    1    2    0    0  0.96831392701E+03  0.86033871367E+02 -0.98016353360E+03  0.13836930366E+04  0.94086017495E+02 0.  0.
         11    1    3    3    0    0  0.48106700546E+03  0.63238036429E+02 -0.54883962163E+03  0.73256361039E+03  0.00000000000E+00 0. -1.
        -11    1    3    3    0    0  0.48724692154E+03  0.22795834938E+02 -0.43132391197E+03  0.65112942622E+03  0.00000000000E+00 0.  1.
         22    1    1    2    0    0 -0.96831392701E+03 -0.86033871367E+02  0.23395265889E+04  0.25334597586E+04  0.00000000000E+00 0. -1.
<mgrwt>
<rscale>  0 0.36737199E+04</rscale>
<asrwt>0</asrwt>
<pdfrwt beam="1">  1        1 0.40588583E+00 0.36737199E+04</pdfrwt>
<pdfrwt beam="2">  1       -1 0.19675306E+00 0.36737199E+04</pdfrwt>
<totfact> 0.13822051E-01</totfact>
</mgrwt>
</event>
<event>
 6    1  0.1014650E-006  0.3682043E+04  0.7818608E-02  0.8071953E-01
          2   -1    0    0  501    0  0.00000000000E+00  0.00000000000E+00  0.16133813023E+04  0.16133813023E+04  0.00000000000E+00 0. -1.
         -2   -1    0    0    0  501 -0.00000000000E+00 -0.00000000000E+00 -0.21007803814E+04  0.21007803814E+04  0.00000000000E+00 0.  1.
         23    2    1    2    0    0 -0.10608599361E+04 -0.79911604157E+03  0.10405018877E+04  0.16896885136E+04  0.91612460034E+02 0.  0.
         11    1    3    3    0    0 -0.69311811082E+03 -0.51896002298E+03  0.73289462429E+03  0.11344014948E+04  0.00000000000E+00 0. -1.
        -11    1    3    3    0    0 -0.36774182528E+03 -0.28015601859E+03  0.30760726341E+03  0.55528701886E+03  0.00000000000E+00 0.  1.
         22    1    1    2    0    0  0.10608599361E+04  0.79911604157E+03 -0.15279009668E+04  0.20244731701E+04  0.00000000000E+00 0.  1.
<mgrwt>
<rscale>  0 0.36820428E+04</rscale>
<asrwt>0</asrwt>
<pdfrwt beam="1">  1        2 0.24821251E+00 0.36820428E+04</pdfrwt>
<pdfrwt beam="2">  1       -2 0.32319698E+00 0.36820428E+04</pdfrwt>
<totfact> 0.20298285E-01</totfact>
</mgrwt>
</event>
<event>
 6    1  0.1014650E-006  0.2745523E+04  0.7818608E-02  0.8320384E-01
          2   -1    0    0  501    0  0.00000000000E+00  0.00000000000E+00  0.30027778859E+04  0.30027778859E+04  0.00000000000E+00 0. -1.
         -2   -1    0    0    0  501 -0.00000000000E+00 -0.00000000000E+00 -0.62757713036E+03  0.62757713036E+03  0.00000000000E+00 0.  1.
         23    2    1    2    0    0 -0.88000866312E+03 -0.10093709534E+04  0.15774641902E+04  0.20716284217E+04  0.10003038499E+03 0.  0.
         13    1    3    3    0    0 -0.51724328343E+03 -0.52753402508E+03  0.83028828396E+03  0.11114006462E+04  0.00000000000E+00 0. -1.
        -13    1    3    3    0    0 -0.36276537970E+03 -0.48183692828E+03  0.74717590620E+03  0.96022777556E+03  0.00000000000E+00 0.  1.
         22    1    1    2    0    0  0.88000866312E+03  0.10093709534E+04  0.79773656538E+03  0.15587265945E+04  0.00000000000E+00 0.  1.
<mgrwt>
<rscale>  0 0.27455234E+04</rscale>
<asrwt>0</asrwt>
<pdfrwt beam="1">  1        2 0.46196582E+00 0.27455234E+04</pdfrwt>
<pdfrwt beam="2">  1       -2 0.96550330E-01 0.27455234E+04</pdfrwt>
<totfact> 0.13596242E+00</totfact>
</mgrwt>
</event>
<event>
 6    1  0.1014650E-006  0.2350174E+04  0.7818608E-02  0.8458397E-01
          1   -1    0    0  501    0  0.00000000000E+00  0.00000000000E+00  0.87260323857E+03  0.87260323857E+03  0.00000000000E+00 0. -1.
         -1   -1    0    0    0  501 -0.00000000000E+00 -0.00000000000E+00 -0.15824255573E+04  0.15824255573E+04  0.00000000000E+00 0.  1.
         23    2    1    2    0    0  0.28685991492E+03  0.37360348926E+03 -0.14780173676E+04  0.15539229136E+04  0.90955508845E+02 0.  0.
         13    1    3    3    0    0  0.13502447566E+03  0.12277116397E+03 -0.47213643511E+03  0.50617900103E+03  0.00000000000E+00 0. -1.
        -13    1    3    3    0    0  0.15183543926E+03  0.25083232528E+03 -0.10058809325E+04  0.10477439126E+04  0.00000000000E+00 0.  1.
         22    1    1    2    0    0 -0.28685991492E+03 -0.37360348926E+03  0.76819504886E+03  0.90110588227E+03  0.00000000000E+00 0. -1.
<mgrwt>
<rscale>  0 0.23501742E+04</rscale>
<asrwt>0</asrwt>
<pdfrwt beam="1">  1        1 0.13424665E+00 0.23501742E+04</pdfrwt>
<pdfrwt beam="2">  1       -1 0.24345008E+00 0.23501742E+04</pdfrwt>
<totfact> 0.13276938E+00</totfact>
</mgrwt>
</event>
<event>
 6    1  0.1014650E-006  0.2718169E+04  0.7818608E-02  0.8329134E-01
         -2   -1    0    0    0  501 -0.00000000000E+00  0.00000000000E+00  0.72494670841E+03  0.72494670841E+03  0.00000000000E+00 0.  1.
          2   -1    0    0  501    0  0.00000000000E+00 -0.00000000000E+00 -0.25479256028E+04  0.25479256028E+04  0.00000000000E+00 0. -1.
         23    2    1    2    0    0  0.11594581742E+04 -0.92643801440E+02 -0.69562713088E+02  0.11687348545E+04  0.90421553920E+02 0.  0.
         13    1    3    3    0    0  0.70250868584E+03 -0.14443629185E+02 -0.26686624647E+02  0.70316374199E+03  0.00000000000E+00 0. -1.
        -13    1    3    3    0    0  0.45694948839E+03 -0.78200172255E+02 -0.42876088441E+02  0.46557111255E+03  0.00000000000E+00 0.  1.
         22    1    1    2    0    0 -0.11594581742E+04  0.92643801440E+02 -0.17534161813E+04  0.21041374567E+04  0.00000000000E+00 0. -1.
<mgrwt>
<rscale>  0 0.27181687E+04</rscale>
<asrwt>0</asrwt>
<pdfrwt beam="1">  1        2 0.39198855E+00 0.27181687E+04</pdfrwt>
<pdfrwt beam="2">  1       -2 0.11153027E+00 0.27181687E+04</pdfrwt>
<totfact> 0.18165050E+00</totfact>
</mgrwt>
</event>
<event>
 6    1  0.1014650E-006  0.8540869E+03  0.7818608E-02  0.9484868E-01
         -2   -1    0    0    0  501 -0.00000000000E+00  0.00000000000E+00  0.26349208601E+03  0.26349208601E+03  0.00000000000E+00 0.  1.
          2   -1    0    0  501    0  0.00000000000E+00 -0.00000000000E+00 -0.69211233620E+03  0.69211233620E+03  0.00000000000E+00 0. -1.
         23    2    1    2    0    0  0.40184303206E+03  0.67635949827E+02 -0.34027648048E+03  0.53864271440E+03  0.91079341682E+02 0.  0.
         11    1    3    3    0    0  0.47745538746E+02  0.16955961196E+02 -0.85835358942E+02  0.99673717373E+02  0.00000000000E+00 0.  1.
        -11    1    3    3    0    0  0.35409749332E+03  0.50679988630E+02 -0.25444112154E+03  0.43896899703E+03  0.00000000000E+00 0. -1.
         22    1    1    2    0    0 -0.40184303206E+03 -0.67635949827E+02 -0.88343769710E+02  0.41696170780E+03  0.00000000000E+00 0. -1.
<mgrwt>
<rscale>  0 0.85408694E+03</rscale>
<asrwt>0</asrwt>
<pdfrwt beam="1">  1        2 0.10647882E+00 0.85408694E+03</pdfrwt>
<pdfrwt beam="2">  1       -2 0.40537244E-01 0.85408694E+03</pdfrwt>
<totfact> 0.24047688E+02</totfact>
</mgrwt>
</event>
<event>
 6    1  0.1014650E-006  0.3437741E+04  0.7818608E-02  0.8128705E-01
          1   -1    0    0  501    0  0.00000000000E+00  0.00000000000E+00  0.20279971741E+04  0.20279971741E+04  0.00000000000E+00 0. -1.
         -1   -1    0    0    0  501 -0.00000000000E+00 -0.00000000000E+00 -0.14568639333E+04  0.14568639333E+04  0.00000000000E+00 0.  1.
         23    2    1    2    0    0 -0.13289783935E+04 -0.93676925212E+03  0.84727084686E+03  0.18356272915E+04  0.89103666010E+02 0.  0.
         11    1    3    3    0    0 -0.58307824164E+03 -0.45395940261E+03  0.35418295928E+03  0.81945405224E+03  0.00000000000E+00 0. -1.
        -11    1    3    3    0    0 -0.74590015187E+03 -0.48280984951E+03  0.49308788759E+03  0.10161732393E+04  0.00000000000E+00 0.  1.
         22    1    1    2    0    0  0.13289783935E+04  0.93676925212E+03 -0.27613760604E+03  0.16492338159E+04  0.00000000000E+00 0.  1.
<mgrwt>
<rscale>  0 0.34377411E+04</rscale>
<asrwt>0</asrwt>
<pdfrwt beam="1">  1        1 0.31199957E+00 0.34377411E+04</pdfrwt>
<pdfrwt beam="2">  1       -1 0.22413291E+00 0.34377411E+04</pdfrwt>
<totfact> 0.24157944E-01</totfact>
</mgrwt>
</event>
<event>
 6    1  0.1014650E-006  0.3387214E+04  0.7818608E-02  0.8141051E-01
         -2   -1    0    0    0  501 -0.00000000000E+00  0.00000000000E+00  0.88653191094E+03  0.88653191094E+03  0.00000000000E+00 0.  1.
          2   -1    0    0  501    0  0.00000000000E+00 -0.00000000000E+00 -0.32354225573E+04  0.32354225573E+04  0.00000000000E+00 0. -1.
         23    2    1    2    0    0  0.16313059214E+04 -0.44383395930E+03 -0.12853254775E+04  0.21246266380E+04  0.61880329906E+02 0.  0.
         13    1    3    3    0    0  0.63680647854E+02 -0.19408099256E+02 -0.36425698531E+02  0.75886301408E+02  0.00000000000E+00 0. -1.
        -13    1    3    3    0    0  0.15676252736E+04 -0.42442586004E+03 -0.12488997789E+04  0.20487403366E+04  0.00000000000E+00 0.  1.
         22    1    1    2    0    0 -0.16313059214E+04  0.44383395930E+03 -0.10635651688E+04  0.19973278302E+04  0.00000000000E+00 0.  1.
<mgrwt>
<rscale>  0 0.33872144E+04</rscale>
<asrwt>0</asrwt>
<pdfrwt beam="1">  1        2 0.49775732E+00 0.33872144E+04</pdfrwt>
<pdfrwt beam="2">  1       -2 0.13638952E+00 0.33872144E+04</pdfrwt>
<totfact> 0.39133958E-01</totfact>
</mgrwt>
</event>
<event>
 6    1  0.1014650E-006  0.3331262E+04  0.7818608E-02  0.8154986E-01
         -2   -1    0    0    0  501 -0.00000000000E+00  0.00000000000E+00  0.10070095977E+04  0.10070095977E+04  0.00000000000E+00 0.  1.
          2   -1    0    0  501    0  0.00000000000E+00 -0.00000000000E+00 -0.27550147230E+04  0.27550147230E+04  0.00000000000E+00 0. -1.
         23    2    1    2    0    0 -0.25079097829E+03 -0.14437100505E+04  0.16599406697E+02  0.14683321054E+04  0.92351538692E+02 0.  0.
         11    1    3    3    0    0 -0.17227174857E+03 -0.73480031509E+03 -0.55102324215E+01  0.75474460652E+03  0.00000000000E+00 0. -1.
        -11    1    3    3    0    0 -0.78519229723E+02 -0.70890973538E+03  0.22109639119E+02  0.71358749883E+03  0.00000000000E+00 0.  1.
         22    1    1    2    0    0  0.25079097829E+03  0.14437100505E+04 -0.17646045319E+04  0.22936922154E+04  0.00000000000E+00 0. -1.
<mgrwt>
<rscale>  0 0.33312618E+04</rscale>
<asrwt>0</asrwt>
<pdfrwt beam="1">  1        2 0.42384843E+00 0.33312618E+04</pdfrwt>
<pdfrwt beam="2">  1       -2 0.15492455E+00 0.33312618E+04</pdfrwt>
<totfact> 0.56346785E-01</totfact>
</mgrwt>
</event>
<event>
 6    1  0.1014650E-006  0.1455007E+04  0.7818608E-02  0.8914936E-01
         -1   -1    0    0    0  501 -0.00000000000E+00  0.00000000000E+00  0.57615839443E+03  0.57615839443E+03  0.00000000000E+00 0.  1.
          1   -1    0    0  501    0  0.00000000000E+00 -0.00000000000E+00 -0.91860416895E+03  0.91860416895E+03  0.00000000000E+00 0. -1.
         23    2    1    2    0    0 -0.71392179100E+03  0.11593487986E+03 -0.21016391107E+03  0.75949138114E+03  0.97637433769E+02 0.  0.
         11    1    3    3    0    0 -0.48391908541E+03  0.12423266852E+03 -0.14879078478E+03  0.52129659004E+03  0.00000000000E+00 0. -1.
        -11    1    3    3    0    0 -0.23000270559E+03 -0.82977886595E+01 -0.61373126287E+02  0.23819479110E+03  0.00000000000E+00 0.  1.
         22    1    1    2    0    0  0.71392179100E+03 -0.11593487986E+03 -0.13228186345E+03  0.73527118224E+03  0.00000000000E+00 0.  1.
<mgrwt>
<rscale>  0 0.14550072E+04</rscale>
<asrwt>0</asrwt>
<pdfrwt beam="1">  1        1 0.14132372E+00 0.14550072E+04</pdfrwt>
<pdfrwt beam="2">  1       -1 0.88639753E-01 0.14550072E+04</pdfrwt>
<totfact> 0.21315789E+01</totfact>
</mgrwt>
</event>
<event>
 6    1  0.1014650E-006  0.1501446E+04  0.7818608E-02  0.8883492E-01
         -2   -1    0    0    0  501 -0.00000000000E+00  0.00000000000E+00  0.79880117061E+03  0.79880117061E+03  0.00000000000E+00 0.  1.
          2   -1    0    0  501    0  0.00000000000E+00 -0.00000000000E+00 -0.70553829192E+03  0.70553829192E+03  0.00000000000E+00 0. -1.
         23    2    1    2    0    0 -0.38761387452E+03 -0.20772368356E+03  0.65276749485E+03  0.79269414362E+03  0.94153908962E+02 0.  0.
         13    1    3    3    0    0 -0.32004601977E+03 -0.17770566311E+03  0.59613571953E+03  0.69956168675E+03  0.00000000000E+00 0.  1.
        -13    1    3    3    0    0 -0.67567854748E+02 -0.30018020450E+02  0.56631775316E+02  0.93132456869E+02  0.00000000000E+00 0. -1.
         22    1    1    2    0    0  0.38761387452E+03  0.20772368356E+03 -0.55950461615E+03  0.71164531891E+03  0.00000000000E+00 0. -1.
<mgrwt>
<rscale>  0 0.15014457E+04</rscale>
<asrwt>0</asrwt>
<pdfrwt beam="1">  1        2 0.10854435E+00 0.15014457E+04</pdfrwt>
<pdfrwt beam="2">  1       -2 0.12289249E+00 0.15014457E+04</pdfrwt>
<totfact> 0.19605539E+01</totfact>
</mgrwt>
</event>
<event>
 6    1  0.1014650E-006  0.3429552E+04  0.7818608E-02  0.8130691E-01
          1   -1    0    0  501    0  0.00000000000E+00  0.00000000000E+00  0.24748480372E+04  0.24748480372E+04  0.00000000000E+00 0. -1.
         -1   -1    0    0    0  501 -0.00000000000E+00 -0.00000000000E+00 -0.11881359419E+04  0.11881359419E+04  0.00000000000E+00 0.  1.
         23    2    1    2    0    0 -0.70432621515E+03  0.12825822574E+04 -0.30856183621E+03  0.14982688521E+04  0.92230592321E+02 0.  0.
         13    1    3    3    0    0 -0.35468736388E+03  0.71610259953E+03 -0.20008226863E+03  0.82379546817E+03  0.00000000000E+00 0.  1.
        -13    1    3    3    0    0 -0.34963885127E+03  0.56647965787E+03 -0.10847956758E+03  0.67447338396E+03  0.00000000000E+00 0. -1.
         22    1    1    2    0    0  0.70432621515E+03 -0.12825822574E+04  0.15952739315E+04  0.21647151270E+04  0.00000000000E+00 0. -1.
<mgrwt>
<rscale>  0 0.34295515E+04</rscale>
<asrwt>0</asrwt>
<pdfrwt beam="1">  1        1 0.38074585E+00 0.34295515E+04</pdfrwt>
<pdfrwt beam="2">  1       -1 0.18279015E+00 0.34295515E+04</pdfrwt>
<totfact> 0.22998057E-01</totfact>
</mgrwt>
</event>
<event>
 6    1  0.1014650E-006  0.2680003E+04  0.7818608E-02  0.8341522E-01
         -2   -1    0    0    0  501 -0.00000000000E+00  0.00000000000E+00  0.59046222110E+03  0.59046222110E+03  0.00000000000E+00 0.  1.
          2   -1    0    0  501    0  0.00000000000E+00 -0.00000000000E+00 -0.30410149249E+04  0.30410149249E+04  0.00000000000E+00 0. -1.
         23    2    1    2    0    0 -0.28961727744E+03 -0.11933464512E+04 -0.19473679022E+04  0.23043943059E+04  0.10018707635E+03 0.  0.
         11    1    3    3    0    0 -0.24149005016E+03 -0.84870729238E+03 -0.13410962063E+04  0.16053537139E+04  0.00000000000E+00 0. -1.
        -11    1    3    3    0    0 -0.48127227274E+02 -0.34463915883E+03 -0.60627169597E+03  0.69904059191E+03  0.00000000000E+00 0.  1.
         22    1    1    2    0    0  0.28961727744E+03  0.11933464512E+04 -0.50318480155E+03  0.13270828401E+04  0.00000000000E+00 0.  1.
<mgrwt>
<rscale>  0 0.26800033E+04</rscale>
<asrwt>0</asrwt>
<pdfrwt beam="1">  1        2 0.46784846E+00 0.26800033E+04</pdfrwt>
<pdfrwt beam="2">  1       -2 0.90840340E-01 0.26800033E+04</pdfrwt>
<totfact> 0.14908183E+00</totfact>
</mgrwt>
</event>
<event>
 6    1  0.1014650E-006  0.2116705E+04  0.7818608E-02  0.8553920E-01
         -1   -1    0    0    0  501 -0.00000000000E+00  0.00000000000E+00  0.52599013654E+03  0.52599013654E+03  0.00000000000E+00 0.  1.
          1   -1    0    0  501    0  0.00000000000E+00 -0.00000000000E+00 -0.21295273310E+04  0.21295273310E+04  0.00000000000E+00 0. -1.
         23    2    1    2    0    0 -0.99817786791E+03  0.24774532159E+03 -0.11060645551E+04  0.15130570405E+04  0.90697339734E+02 0.  0.
         11    1    3    3    0    0 -0.71645374706E+03  0.15730772639E+03 -0.83939211094E+03  0.11147335145E+04  0.00000000000E+00 0.  1.
        -11    1    3    3    0    0 -0.28172412085E+03  0.90437595200E+02 -0.26667244419E+03  0.39832352602E+03  0.00000000000E+00 0. -1.
         22    1    1    2    0    0  0.99817786791E+03 -0.24774532159E+03 -0.49747263929E+03  0.11424604270E+04  0.00000000000E+00 0.  1.
<mgrwt>
<rscale>  0 0.21167053E+04</rscale>
<asrwt>0</asrwt>
<pdfrwt beam="1">  1        1 0.32761959E+00 0.21167053E+04</pdfrwt>
<pdfrwt beam="2">  1       -1 0.80921558E-01 0.21167053E+04</pdfrwt>
<totfact> 0.34010902E+00</totfact>
</mgrwt>
</event>
<event>
 6    1  0.1014650E-006  0.2492955E+04  0.7818608E-02  0.8405500E-01
         -2   -1    0    0    0  501 -0.00000000000E+00  0.00000000000E+00  0.43268041993E+03  0.43268041993E+03  0.00000000000E+00 0.  1.
          2   -1    0    0  501    0  0.00000000000E+00 -0.00000000000E+00 -0.35908868628E+04  0.35908868628E+04  0.00000000000E+00 0. -1.
         23    2    1    2    0    0  0.57749441531E+03 -0.18096843024E+03 -0.33371375791E+04  0.33924843057E+04  0.78823665490E+02 0.  0.
         11    1    3    3    0    0  0.26949609400E+02 -0.26506220651E+02 -0.24941330446E+03  0.25226148660E+03  0.00000000000E+00 0. -1.
        -11    1    3    3    0    0  0.55054480591E+03 -0.15446220959E+03 -0.30877242746E+04  0.31402228191E+04  0.00000000000E+00 0.  1.
         22    1    1    2    0    0 -0.57749441531E+03  0.18096843024E+03  0.17893113617E+03  0.63108297707E+03  0.00000000000E+00 0.  1.
<mgrwt>
<rscale>  0 0.24929552E+04</rscale>
<asrwt>0</asrwt>
<pdfrwt beam="1">  1        2 0.55244410E+00 0.24929552E+04</pdfrwt>
<pdfrwt beam="2">  1       -2 0.66566222E-01 0.24929552E+04</pdfrwt>
<totfact> 0.12992584E+00</totfact>
</mgrwt>
</event>
<event>
 6    1  0.1014650E-006  0.1068572E+04  0.7818608E-02  0.9236377E-01
         -2   -1    0    0    0  501 -0.00000000000E+00  0.00000000000E+00  0.11872532707E+03  0.11872532707E+03  0.00000000000E+00 0.  1.
          2   -1    0    0  501    0  0.00000000000E+00 -0.00000000000E+00 -0.24043859230E+04  0.24043859230E+04  0.00000000000E+00 0. -1.
         23    2    1    2    0    0 -0.33636516826E+03  0.40916874179E+03 -0.10876938461E+04  0.12132696873E+04  0.91568803372E+02 0.  0.
         13    1    3    3    0    0 -0.20317123083E+03  0.20887772188E+03 -0.68179124975E+03  0.74144976901E+03  0.00000000000E+00 0. -1.
        -13    1    3    3    0    0 -0.13319393743E+03  0.20029101992E+03 -0.40590259632E+03  0.47181991832E+03  0.00000000000E+00 0.  1.
         22    1    1    2    0    0  0.33636516826E+03 -0.40916874179E+03 -0.11979667498E+04  0.13098415627E+04  0.00000000000E+00 0. -1.
<mgrwt>
<rscale>  0 0.10685720E+04</rscale>
<asrwt>0</asrwt>
<pdfrwt beam="1">  1        2 0.36990552E+00 0.10685720E+04</pdfrwt>
<pdfrwt beam="2">  1       -2 0.18265435E-01 0.10685720E+04</pdfrwt>
<totfact> 0.99277030E+01</totfact>
</mgrwt>
</event>
<event>
 6    1  0.1014650E-006  0.2026886E+04  0.7818608E-02  0.8594153E-01
         -2   -1    0    0    0  501 -0.00000000000E+00  0.00000000000E+00  0.35400312740E+03  0.35400312740E+03  0.00000000000E+00 0.  1.
          2   -1    0    0  501    0  0.00000000000E+00 -0.00000000000E+00 -0.29012939595E+04  0.29012939595E+04  0.00000000000E+00 0. -1.
         23    2    1    2    0    0  0.47010586832E+03  0.82917514665E+03 -0.18194188138E+04  0.20559936948E+04  0.91073057714E+02 0.  0.
         11    1    3    3    0    0  0.68016509776E+02  0.66885091890E+02 -0.16683244239E+03  0.19217940825E+03  0.00000000000E+00 0. -1.
        -11    1    3    3    0    0  0.40208935854E+03  0.76229005477E+03 -0.16525863714E+04  0.18638142865E+04  0.00000000000E+00 0.  1.
         22    1    1    2    0    0 -0.47010586832E+03 -0.82917514665E+03 -0.72787201830E+03  0.11993033921E+04  0.00000000000E+00 0.  1.
<mgrwt>
<rscale>  0 0.20268864E+04</rscale>
<asrwt>0</asrwt>
<pdfrwt beam="1">  1        2 0.44635291E+00 0.20268864E+04</pdfrwt>
<pdfrwt beam="2">  1       -2 0.54462020E-01 0.20268864E+04</pdfrwt>
<totfact> 0.59096995E+00</totfact>
</mgrwt>
</event>
<event>
 6    1  0.1014650E-006  0.1907921E+04  0.7818608E-02  0.8650924E-01
          2   -1    0    0  501    0  0.00000000000E+00  0.00000000000E+00  0.18417560928E+04  0.18417560928E+04  0.00000000000E+00 0. -1.
         -2   -1    0    0    0  501 -0.00000000000E+00 -0.00000000000E+00 -0.49411579522E+03  0.49411579522E+03  0.00000000000E+00 0.  1.
         23    2    1    2    0    0  0.25425675398E+03 -0.91782134837E+03  0.69149676989E+03  0.11793396345E+04  0.75044428682E+02 0.  0.
         13    1    3    3    0    0  0.13977848133E+03 -0.38858293388E+03  0.32468158524E+03  0.52531214733E+03  0.00000000000E+00 0.  1.
        -13    1    3    3    0    0  0.11447827266E+03 -0.52923841450E+03  0.36681518465E+03  0.65402748717E+03  0.00000000000E+00 0. -1.
         22    1    1    2    0    0 -0.25425675398E+03  0.91782134837E+03  0.65614352768E+03  0.11565322535E+04  0.00000000000E+00 0.  1.
<mgrwt>
<rscale>  0 0.19079211E+04</rscale>
<asrwt>0</asrwt>
<pdfrwt beam="1">  1        2 0.28334709E+00 0.19079211E+04</pdfrwt>
<pdfrwt beam="2">  1       -2 0.76017815E-01 0.19079211E+04</pdfrwt>
<totfact> 0.11864015E+01</totfact>
</mgrwt>
</event>
<event>
 6    1  0.1073090E-006  0.1860844E+04  0.7818608E-02  0.8674596E-01
          2   -1    0    0  501    0  0.00000000000E+00  0.00000000000E+00  0.95942191764E+03  0.95942191764E+03  0.00000000000E+00 0. -1.
         -2   -1    0    0    0  501 -0.00000000000E+00 -0.00000000000E+00 -0.90229887435E+03  0.90229887435E+03  0.00000000000E+00 0.  1.
         23    2    1    2    0    0  0.27759647419E+03 -0.83016266197E+03  0.33739633540E+03  0.94260003493E+03  0.91807902202E+02 0.  0.
         11    1    3    3    0    0  0.13871922657E+03 -0.47107403199E+03  0.14402328359E+03  0.51175821796E+03  0.00000000000E+00 0.  1.
        -11    1    3    3    0    0  0.13887724762E+03 -0.35908862998E+03  0.19337305180E+03  0.43084181697E+03  0.00000000000E+00 0. -1.
         22    1    1    2    0    0 -0.27759647419E+03  0.83016266197E+03 -0.28027329210E+03  0.91912075707E+03  0.00000000000E+00 0. -1.
<mgrwt>
<rscale>  0 0.18608442E+04</rscale>
<asrwt>0</asrwt>
<pdfrwt beam="1">  1        2 0.14760337E+00 0.18608442E+04</pdfrwt>
<pdfrwt beam="2">  1       -2 0.13881521E+00 0.18608442E+04</pdfrwt>
<totfact> 0.92321628E+00</totfact>
</mgrwt>
</event>
<event>
 6    1  0.1014650E-006  0.3886949E+04  0.7818608E-02  0.8027749E-01
          2   -1    0    0  501    0  0.00000000000E+00  0.00000000000E+00  0.36201895416E+04  0.36201895416E+04  0.00000000000E+00 0. -1.
         -2   -1    0    0    0  501 -0.00000000000E+00 -0.00000000000E+00 -0.10433414698E+04  0.10433414698E+04  0.00000000000E+00 0.  1.
         23    2    1    2    0    0 -0.91379546739E+03  0.13634127694E+03 -0.76087633985E+03  0.12002933140E+04  0.90333466365E+02 0.  0.
         13    1    3    3    0    0 -0.42091742985E+03  0.54776497740E+02 -0.40709262076E+03  0.58812953449E+03  0.00000000000E+00 0.  1.
        -13    1    3    3    0    0 -0.49287803754E+03  0.81564779203E+02 -0.35378371908E+03  0.61216377954E+03  0.00000000000E+00 0. -1.
         22    1    1    2    0    0  0.91379546739E+03 -0.13634127694E+03  0.33377244117E+04  0.34632376974E+04  0.00000000000E+00 0. -1.
<mgrwt>
<rscale>  0 0.38869494E+04</rscale>
<asrwt>0</asrwt>
<pdfrwt beam="1">  1        2 0.55695223E+00 0.38869494E+04</pdfrwt>
<pdfrwt beam="2">  1       -2 0.16051407E+00 0.38869494E+04</pdfrwt>
<totfact> 0.13243198E-01</totfact>
</mgrwt>
</event>
<event>
 6    1  0.1014650E-006  0.6373561E+04  0.7818608E-02  0.7645735E-01
         -1   -1    0    0    0  501 -0.00000000000E+00  0.00000000000E+00  0.44501544684E+04  0.44501544684E+04  0.00000000000E+00 0.  1.
          1   -1    0    0  501    0  0.00000000000E+00 -0.00000000000E+00 -0.22820713806E+04  0.22820713806E+04  0.00000000000E+00 0. -1.
         23    2    1    2    0    0 -0.24134870631E+04  0.10424030850E+04  0.29855802111E+04  0.39790775525E+04  0.88571873353E+02 0.  0.
         13    1    3    3    0    0 -0.86477299787E+03  0.33115975682E+03  0.10259528379E+04  0.13820558411E+04  0.00000000000E+00 0.  1.
        -13    1    3    3    0    0 -0.15487140652E+04  0.71124332814E+03  0.19596273733E+04  0.25970217114E+04  0.00000000000E+00 0. -1.
         22    1    1    2    0    0  0.24134870631E+04 -0.10424030850E+04 -0.81749712332E+03  0.27531482964E+04  0.00000000000E+00 0. -1.
<mgrwt>
<rscale>  0 0.63735611E+04</rscale>
<asrwt>0</asrwt>
<pdfrwt beam="1">  1        1 0.35108791E+00 0.63735611E+04</pdfrwt>
<pdfrwt beam="2">  1       -1 0.68463915E+00 0.63735611E+04</pdfrwt>
<totfact> 0.28698262E-04</totfact>
</mgrwt>
</event>
<event>
 6    1  0.1014650E-006  0.2109239E+04  0.7818608E-02  0.8557184E-01
         -1   -1    0    0    0  501 -0.00000000000E+00  0.00000000000E+00  0.28629353042E+03  0.28629353042E+03  0.00000000000E+00 0.  1.
          1   -1    0    0  501    0  0.00000000000E+00 -0.00000000000E+00 -0.38849024404E+04  0.38849024404E+04  0.00000000000E+00 0. -1.
         23    2    1    2    0    0  0.82227835708E+03 -0.43703621996E+03 -0.83248014122E+03  0.12525300565E+04  0.93091368194E+02 0.  0.
         13    1    3    3    0    0  0.48138288009E+03 -0.27579587533E+03 -0.55137390823E+03  0.78218030451E+03  0.00000000000E+00 0.  1.
        -13    1    3    3    0    0  0.34089547699E+03 -0.16124034463E+03 -0.28110623300E+03  0.47034975199E+03  0.00000000000E+00 0. -1.
         22    1    1    2    0    0 -0.82227835708E+03  0.43703621996E+03 -0.27661287688E+04  0.29186659143E+04  0.00000000000E+00 0. -1.
<mgrwt>
<rscale>  0 0.21092391E+04</rscale>
<asrwt>0</asrwt>
<pdfrwt beam="1">  1        1 0.59767730E+00 0.21092391E+04</pdfrwt>
<pdfrwt beam="2">  1       -1 0.44045158E-01 0.21092391E+04</pdfrwt>
<totfact> 0.56905521E-01</totfact>
</mgrwt>
</event>
<event>
 6    1  0.1014650E-006  0.6965227E+03  0.7818608E-02  0.9723197E-01
          2   -1    0    0  501    0  0.00000000000E+00  0.00000000000E+00  0.12633025418E+04  0.12633025418E+04  0.00000000000E+00 0. -1.
         -2   -1    0    0    0  501 -0.00000000000E+00 -0.00000000000E+00 -0.96007056954E+02  0.96007056954E+02  0.00000000000E+00 0.  1.
         23    2    1    2    0    0  0.17588768695E+03 -0.20668806666E+03  0.18700863020E+03  0.34214749137E+03  0.91849021534E+02 0.  0.
         11    1    3    3    0    0  0.13800410486E+03 -0.18324167148E+03  0.11288992267E+03  0.25566927419E+03  0.00000000000E+00 0.  1.
        -11    1    3    3    0    0  0.37883582092E+02 -0.23446395177E+02  0.74118707535E+02  0.86478217174E+02  0.00000000000E+00 0. -1.
         22    1    1    2    0    0 -0.17588768695E+03  0.20668806666E+03  0.98028685463E+03  0.10171621074E+04  0.00000000000E+00 0. -1.
<mgrwt>
<rscale>  0 0.69652267E+03</rscale>
<asrwt>0</asrwt>
<pdfrwt beam="1">  1        2 0.19435423E+00 0.69652267E+03</pdfrwt>
<pdfrwt beam="2">  1       -2 0.14770317E-01 0.69652267E+03</pdfrwt>
<totfact> 0.63130715E+02</totfact>
</mgrwt>
</event>
<event>
 6    1  0.1014650E-006  0.1473655E+04  0.7818608E-02  0.8902163E-01
          4   -1    0    0  501    0  0.00000000000E+00  0.00000000000E+00  0.65632118509E+03  0.65632118509E+03  0.00000000000E+00 0. -1.
         -4   -1    0    0    0  501 -0.00000000000E+00 -0.00000000000E+00 -0.82720946241E+03  0.82720946241E+03  0.00000000000E+00 0.  1.
         23    2    1    2    0    0 -0.21782125472E+03 -0.63678404491E+03  0.20899878622E+03  0.71070841703E+03  0.92119175683E+02 0.  0.
         13    1    3    3    0    0 -0.43887007363E+02 -0.18583510119E+03  0.20981556559E+02  0.19209627785E+03  0.00000000000E+00 0. -1.
        -13    1    3    3    0    0 -0.17393424736E+03 -0.45094894372E+03  0.18801722967E+03  0.51861213918E+03  0.00000000000E+00 0.  1.
         22    1    1    2    0    0  0.21782125472E+03  0.63678404491E+03 -0.37988706354E+03  0.77282223047E+03  0.00000000000E+00 0.  1.
<mgrwt>
<rscale>  0 0.14736554E+04</rscale>
<asrwt>0</asrwt>
<pdfrwt beam="1">  1        4 0.10097249E+00 0.14736554E+04</pdfrwt>
<pdfrwt beam="2">  1       -4 0.12726299E+00 0.14736554E+04</pdfrwt>
<totfact> 0.71293427E-01</totfact>
</mgrwt>
</event>
<event>
 6    1  0.1014650E-006  0.2296224E+04  0.7818608E-02  0.8479412E-01
          2   -1    0    0  501    0  0.00000000000E+00  0.00000000000E+00  0.15573314470E+04  0.15573314470E+04  0.00000000000E+00 0. -1.
         -2   -1    0    0    0  501 -0.00000000000E+00 -0.00000000000E+00 -0.84642277648E+03  0.84642277648E+03  0.00000000000E+00 0.  1.
         23    2    1    2    0    0 -0.10049265241E+04  0.16086652884E+03 -0.19612847644E+03  0.10404964544E+04  0.91712232151E+02 0.  0.
         13    1    3    3    0    0 -0.65260696392E+03  0.75616254665E+02 -0.92244382509E+02  0.66341743528E+03  0.00000000000E+00 0. -1.
        -13    1    3    3    0    0 -0.35231956016E+03  0.85250274180E+02 -0.10388409393E+03  0.37707901916E+03  0.00000000000E+00 0.  1.
         22    1    1    2    0    0  0.10049265241E+04 -0.16086652884E+03  0.90703714698E+03  0.13632577691E+04  0.00000000000E+00 0. -1.
<mgrwt>
<rscale>  0 0.22962237E+04</rscale>
<asrwt>0</asrwt>
<pdfrwt beam="1">  1        2 0.23958945E+00 0.22962237E+04</pdfrwt>
<pdfrwt beam="2">  1       -2 0.13021889E+00 0.22962237E+04</pdfrwt>
<totfact> 0.46222279E+00</totfact>
</mgrwt>
</event>
<event>
 6    1  0.1014650E-006  0.1473791E+04  0.7818608E-02  0.8902071E-01
          2   -1    0    0  501    0  0.00000000000E+00  0.00000000000E+00  0.87749747561E+03  0.87749747561E+03  0.00000000000E+00 0. -1.
         -2   -1    0    0    0  501 -0.00000000000E+00 -0.00000000000E+00 -0.61882263483E+03  0.61882263483E+03  0.00000000000E+00 0.  1.
         23    2    1    2    0    0  0.26911963068E+02  0.67776228616E+03  0.41406858434E+03  0.80045145486E+03  0.95831981866E+02 0.  0.
         13    1    3    3    0    0  0.61010460740E+02  0.35068375659E+03  0.22558753246E+03  0.42141560040E+03  0.00000000000E+00 0. -1.
        -13    1    3    3    0    0 -0.34098497672E+02  0.32707852957E+03  0.18848105188E+03  0.37903585446E+03  0.00000000000E+00 0.  1.
         22    1    1    2    0    0 -0.26911963068E+02 -0.67776228616E+03 -0.15539374356E+03  0.69586865559E+03  0.00000000000E+00 0.  1.
<mgrwt>
<rscale>  0 0.14737914E+04</rscale>
<asrwt>0</asrwt>
<pdfrwt beam="1">  1        2 0.13499961E+00 0.14737914E+04</pdfrwt>
<pdfrwt beam="2">  1       -2 0.95203481E-01 0.14737914E+04</pdfrwt>
<totfact> 0.27277557E+01</totfact>
</mgrwt>
</event>
<event>
 6    1  0.1014650E-006  0.7126263E+03  0.7818608E-02  0.9695880E-01
         -1   -1    0    0    0  501 -0.00000000000E+00  0.00000000000E+00  0.99764613440E+03  0.99764613440E+03  0.00000000000E+00 0.  1.
          1   -1    0    0  501    0  0.00000000000E+00 -0.00000000000E+00 -0.12725860334E+03  0.12725860334E+03  0.00000000000E+00 0. -1.
         23    2    1    2    0    0 -0.26880243584E+03 -0.64165238442E+02  0.10206300489E+03  0.30839110965E+03  0.91193707058E+02 0.  0.
         13    1    3    3    0    0 -0.20139445124E+03 -0.12538533162E+02  0.46977663976E+02  0.20718069581E+03  0.00000000000E+00 0. -1.
        -13    1    3    3    0    0 -0.67407984599E+02 -0.51626705280E+02  0.55085340917E+02  0.10121041384E+03  0.00000000000E+00 0.  1.
         22    1    1    2    0    0  0.26880243584E+03  0.64165238442E+02  0.76832452617E+03  0.81651362808E+03  0.00000000000E+00 0.  1.
<mgrwt>
<rscale>  0 0.71262628E+03</rscale>
<asrwt>0</asrwt>
<pdfrwt beam="1">  1        1 0.19578247E-01 0.71262628E+03</pdfrwt>
<pdfrwt beam="2">  1       -1 0.15348402E+00 0.71262628E+03</pdfrwt>
<totfact> 0.90181375E+01</totfact>
</mgrwt>
</event>
<event>
 6    1  0.1014650E-006  0.3244609E+04  0.7818608E-02  0.8177134E-01
          2   -1    0    0  501    0  0.00000000000E+00  0.00000000000E+00  0.23367924206E+04  0.23367924206E+04  0.00000000000E+00 0. -1.
         -2   -1    0    0    0  501 -0.00000000000E+00 -0.00000000000E+00 -0.11262755151E+04  0.11262755151E+04  0.00000000000E+00 0.  1.
         23    2    1    2    0    0 -0.12768422545E+04  0.31909455010E+03 -0.40409451053E+03  0.13800130877E+04  0.94848691129E+02 0.  0.
         13    1    3    3    0    0 -0.57435336409E+03  0.11268183241E+03 -0.21766172786E+03  0.62446425836E+03  0.00000000000E+00 0. -1.
        -13    1    3    3    0    0 -0.70248889037E+03  0.20641271768E+03 -0.18643278267E+03  0.75554882938E+03  0.00000000000E+00 0.  1.
         22    1    1    2    0    0  0.12768422545E+04 -0.31909455010E+03  0.16146114160E+04  0.20830548479E+04  0.00000000000E+00 0. -1.
<mgrwt>
<rscale>  0 0.32446091E+04</rscale>
<asrwt>0</asrwt>
<pdfrwt beam="1">  1        2 0.35950653E+00 0.32446091E+04</pdfrwt>
<pdfrwt beam="2">  1       -2 0.17327316E+00 0.32446091E+04</pdfrwt>
<totfact> 0.73235051E-01</totfact>
</mgrwt>
</event>
<event>
 6    1  0.1014650E-006  0.2233103E+04  0.7818608E-02  0.8504775E-01
         -2   -1    0    0    0  501 -0.00000000000E+00  0.00000000000E+00  0.78056981776E+03  0.78056981776E+03  0.00000000000E+00 0.  1.
          2   -1    0    0  501    0  0.00000000000E+00 -0.00000000000E+00 -0.15971499037E+04  0.15971499037E+04  0.00000000000E+00 0. -1.
         23    2    1    2    0    0 -0.19282480242E+03  0.50697485899E+03  0.62605848888E+03  0.83648289033E+03  0.11640224329E+03 0.  0.
         13    1    3    3    0    0 -0.48708125579E+02  0.28347725273E+03  0.35261559822E+03  0.45504900222E+03  0.00000000000E+00 0. -1.
        -13    1    3    3    0    0 -0.14411667684E+03  0.22349760626E+03  0.27344289066E+03  0.38143388811E+03  0.00000000000E+00 0.  1.
         22    1    1    2    0    0  0.19282480242E+03 -0.50697485899E+03 -0.14426385748E+04  0.15412368311E+04  0.00000000000E+00 0. -1.
<mgrwt>
<rscale>  0 0.22331028E+04</rscale>
<asrwt>0</asrwt>
<pdfrwt beam="1">  1        2 0.24571537E+00 0.22331028E+04</pdfrwt>
<pdfrwt beam="2">  1       -2 0.12008767E+00 0.22331028E+04</pdfrwt>
<totfact> 0.54088352E+00</totfact>
</mgrwt>
</event>
<event>
 6    1  0.1014650E-006  0.1710172E+04  0.7818608E-02  0.8755584E-01
          1   -1    0    0  501    0  0.00000000000E+00  0.00000000000E+00  0.10211205990E+04  0.10211205990E+04  0.00000000000E+00 0. -1.
         -1   -1    0    0    0  501 -0.00000000000E+00 -0.00000000000E+00 -0.71604831431E+03  0.71604831431E+03  0.00000000000E+00 0.  1.
         23    2    1    2    0    0  0.24208037859E+03 -0.81072488910E+03  0.25992258367E+03  0.88986952647E+03  0.91816497098E+02 0.  0.
         13    1    3    3    0    0  0.21345550748E+03 -0.71736983505E+03  0.19784086572E+03  0.77416002355E+03  0.00000000000E+00 0. -1.
        -13    1    3    3    0    0  0.28624871119E+02 -0.93355054043E+02  0.62081717956E+02  0.11570950292E+03  0.00000000000E+00 0.  1.
         22    1    1    2    0    0 -0.24208037859E+03  0.81072488910E+03  0.45149701059E+02  0.84729938688E+03  0.00000000000E+00 0.  1.
<mgrwt>
<rscale>  0 0.17101716E+04</rscale>
<asrwt>0</asrwt>
<pdfrwt beam="1">  1        1 0.15709548E+00 0.17101716E+04</pdfrwt>
<pdfrwt beam="2">  1       -1 0.11016128E+00 0.17101716E+04</pdfrwt>
<totfact> 0.10536565E+01</totfact>
</mgrwt>
</event>
<event>
 6    1  0.1014650E-006  0.2450305E+04  0.7818608E-02  0.8420907E-01
         -2   -1    0    0    0  501 -0.00000000000E+00  0.00000000000E+00  0.66978511061E+03  0.66978511061E+03  0.00000000000E+00 0.  1.
          2   -1    0    0  501    0  0.00000000000E+00 -0.00000000000E+00 -0.22410146646E+04  0.22410146646E+04  0.00000000000E+00 0. -1.
         23    2    1    2    0    0  0.29669348352E+03  0.28273293960E+03 -0.21560149191E+04  0.21966997392E+04  0.95522115395E+02 0.  0.
         13    1    3    3    0    0  0.17284573545E+03  0.10719896132E+03 -0.11708428948E+04  0.11883771917E+04  0.00000000000E+00 0. -1.
        -13    1    3    3    0    0  0.12384774807E+03  0.17553397828E+03 -0.98517202427E+03  0.10083225474E+04  0.00000000000E+00 0.  1.
         22    1    1    2    0    0 -0.29669348352E+03 -0.28273293960E+03  0.58478536507E+03  0.71410003606E+03  0.00000000000E+00 0.  1.
<mgrwt>
<rscale>  0 0.24503047E+04</rscale>
<asrwt>0</asrwt>
<pdfrwt beam="1">  1        2 0.34477148E+00 0.24503047E+04</pdfrwt>
<pdfrwt beam="2">  1       -2 0.10304387E+00 0.24503047E+04</pdfrwt>
<totfact> 0.33712125E+00</totfact>
</mgrwt>
</event>
<event>
 6    1  0.1014650E-006  0.2296564E+04  0.7818608E-02  0.8479277E-01
          1   -1    0    0  501    0  0.00000000000E+00  0.00000000000E+00  0.25070021893E+04  0.25070021893E+04  0.00000000000E+00 0. -1.
         -1   -1    0    0    0  501 -0.00000000000E+00 -0.00000000000E+00 -0.52594756792E+03  0.52594756792E+03  0.00000000000E+00 0.  1.
         23    2    1    2    0    0 -0.37792408901E+03  0.75470056368E+03  0.20167299116E+04  0.21881584906E+04  0.91861230692E+02 0.  0.
         11    1    3    3    0    0 -0.33079215346E+03  0.59730729309E+03  0.15642992146E+04  0.17068191128E+04  0.00000000000E+00 0. -1.
        -11    1    3    3    0    0 -0.47131935549E+02  0.15739327059E+03  0.45243069706E+03  0.48133937779E+03  0.00000000000E+00 0.  1.
         22    1    1    2    0    0  0.37792408901E+03 -0.75470056368E+03 -0.35675290214E+02  0.84479126665E+03  0.00000000000E+00 0.  1.
<mgrwt>
<rscale>  0 0.22965641E+04</rscale>
<asrwt>0</asrwt>
<pdfrwt beam="1">  1        1 0.38569264E+00 0.22965641E+04</pdfrwt>
<pdfrwt beam="2">  1       -1 0.80915012E-01 0.22965641E+04</pdfrwt>
<totfact> 0.18438859E+00</totfact>
</mgrwt>
</event>
<event>
 6    1  0.1014650E-006  0.8395955E+03  0.7818608E-02  0.9504409E-01
         -1   -1    0    0    0  501 -0.00000000000E+00  0.00000000000E+00  0.15836259560E+03  0.15836259560E+03  0.00000000000E+00 0.  1.
          1   -1    0    0  501    0  0.00000000000E+00 -0.00000000000E+00 -0.11128269290E+04  0.11128269290E+04  0.00000000000E+00 0. -1.
         23    2    1    2    0    0  0.25537442245E+03 -0.14332855037E+03 -0.38178451654E+02  0.30924410719E+03  0.91734152141E+02 0.  0.
         11    1    3    3    0    0  0.14164768864E+03 -0.66141187970E+02 -0.64827632087E+02  0.16923754407E+03  0.00000000000E+00 0.  1.
        -11    1    3    3    0    0  0.11372673381E+03 -0.77187362401E+02  0.26649180433E+02  0.14000656312E+03  0.00000000000E+00 0. -1.
         22    1    1    2    0    0 -0.25537442245E+03  0.14332855037E+03 -0.91628588177E+03  0.96194541743E+03  0.00000000000E+00 0. -1.
<mgrwt>
<rscale>  0 0.83959552E+03</rscale>
<asrwt>0</asrwt>
<pdfrwt beam="1">  1        1 0.17120414E+00 0.83959552E+03</pdfrwt>
<pdfrwt beam="2">  1       -1 0.24363476E-01 0.83959552E+03</pdfrwt>
<totfact> 0.18315571E+02</totfact>
</mgrwt>
</event>
<event>
 6    1  0.1014650E-006  0.2181133E+04  0.7818608E-02  0.8526322E-01
         -2   -1    0    0    0  501 -0.00000000000E+00  0.00000000000E+00  0.55866868108E+03  0.55866868108E+03  0.00000000000E+00 0.  1.
          2   -1    0    0  501    0  0.00000000000E+00 -0.00000000000E+00 -0.21288742943E+04  0.21288742943E+04  0.00000000000E+00 0. -1.
         23    2    1    2    0    0  0.15351217346E+03 -0.32484356050E+03  0.47972618804E+03  0.60636308983E+03  0.91922005073E+02 0.  0.
         13    1    3    3    0    0  0.71856463782E+02 -0.17028035726E+03  0.17211147336E+03  0.25254922435E+03  0.00000000000E+00 0.  1.
        -13    1    3    3    0    0  0.81655709677E+02 -0.15456320324E+03  0.30761471469E+03  0.35381386549E+03  0.00000000000E+00 0. -1.
         22    1    1    2    0    0 -0.15351217346E+03  0.32484356050E+03 -0.20499318013E+04  0.20811798856E+04  0.00000000000E+00 0. -1.
<mgrwt>
<rscale>  0 0.21811331E+04</rscale>
<asrwt>0</asrwt>
<pdfrwt beam="1">  1        2 0.32751912E+00 0.21811331E+04</pdfrwt>
<pdfrwt beam="2">  1       -2 0.85949029E-01 0.21811331E+04</pdfrwt>
<totfact> 0.60876270E+00</totfact>
</mgrwt>
</event>
<event>
 6    1  0.1014650E-006  0.3358072E+04  0.7818608E-02  0.8148274E-01
         -2   -1    0    0    0  501 -0.00000000000E+00  0.00000000000E+00  0.19115754397E+04  0.19115754397E+04  0.00000000000E+00 0.  1.
          2   -1    0    0  501    0  0.00000000000E+00 -0.00000000000E+00 -0.14747849389E+04  0.14747849389E+04  0.00000000000E+00 0. -1.
         23    2    1    2    0    0 -0.73844363169E+03 -0.48625473502E+03 -0.12194191480E+04  0.15089224793E+04  0.90118397688E+02 0.  0.
         13    1    3    3    0    0 -0.46178800359E+03 -0.32313695761E+03 -0.84375738066E+03  0.10146882137E+04  0.00000000000E+00 0. -1.
        -13    1    3    3    0    0 -0.27665562810E+03 -0.16311777741E+03 -0.37566176735E+03  0.49423426563E+03  0.00000000000E+00 0.  1.
         22    1    1    2    0    0  0.73844363169E+03  0.48625473502E+03  0.16562096488E+04  0.18774378992E+04  0.00000000000E+00 0.  1.
<mgrwt>
<rscale>  0 0.33580725E+04</rscale>
<asrwt>0</asrwt>
<pdfrwt beam="1">  1        2 0.22688999E+00 0.33580725E+04</pdfrwt>
<pdfrwt beam="2">  1       -2 0.29408853E+00 0.33580725E+04</pdfrwt>
<totfact> 0.37665362E-01</totfact>
</mgrwt>
</event>
<event>
 6    1  0.1014650E-006  0.2187399E+04  0.7818608E-02  0.8523691E-01
          1   -1    0    0  501    0  0.00000000000E+00  0.00000000000E+00  0.28227912305E+04  0.28227912305E+04  0.00000000000E+00 0. -1.
         -1   -1    0    0    0  501 -0.00000000000E+00 -0.00000000000E+00 -0.42375738766E+03  0.42375738766E+03  0.00000000000E+00 0.  1.
         23    2    1    2    0    0 -0.40007114642E+03 -0.10009267321E+04  0.14583372618E+04  0.18158769917E+04  0.93543758830E+02 0.  0.
         11    1    3    3    0    0 -0.14591297341E+03 -0.45893831993E+03  0.59875011510E+03  0.76838576095E+03  0.00000000000E+00 0.  1.
        -11    1    3    3    0    0 -0.25415817301E+03 -0.54198841213E+03  0.85958714665E+03  0.10474912307E+04  0.00000000000E+00 0. -1.
         22    1    1    2    0    0  0.40007114642E+03  0.10009267321E+04  0.94069658112E+03  0.14306716265E+04  0.00000000000E+00 0.  1.
<mgrwt>
<rscale>  0 0.21873990E+04</rscale>
<asrwt>0</asrwt>
<pdfrwt beam="1">  1        1 0.43427556E+00 0.21873990E+04</pdfrwt>
<pdfrwt beam="2">  1       -1 0.65193446E-01 0.21873990E+04</pdfrwt>
<totfact> 0.17486139E+00</totfact>
</mgrwt>
</event>
<event>
 6    1  0.1014650E-006  0.2011382E+04  0.7818608E-02  0.8601317E-01
         -2   -1    0    0    0  501 -0.00000000000E+00  0.00000000000E+00  0.96331821840E+03  0.96331821840E+03  0.00000000000E+00 0.  1.
          2   -1    0    0  501    0  0.00000000000E+00 -0.00000000000E+00 -0.10499279152E+04  0.10499279152E+04  0.00000000000E+00 0. -1.
         23    2    1    2    0    0  0.68356251786E+03  0.12056076196E+03  0.68217103020E+03  0.97747761731E+03  0.91173267689E+02 0.  0.
         11    1    3    3    0    0  0.25712784851E+03  0.44246365337E+02  0.31952568799E+03  0.41251561984E+03  0.00000000000E+00 0.  1.
        -11    1    3    3    0    0  0.42643466935E+03  0.76314396620E+02  0.36264534221E+03  0.56496199747E+03  0.00000000000E+00 0. -1.
         22    1    1    2    0    0 -0.68356251786E+03 -0.12056076196E+03 -0.76878072703E+03  0.10357685163E+04  0.00000000000E+00 0. -1.
<mgrwt>
<rscale>  0 0.20113823E+04</rscale>
<asrwt>0</asrwt>
<pdfrwt beam="1">  1        2 0.16152737E+00 0.20113823E+04</pdfrwt>
<pdfrwt beam="2">  1       -2 0.14820280E+00 0.20113823E+04</pdfrwt>
<totfact> 0.67216840E+00</totfact>
</mgrwt>
</event>
<event>
 6    1  0.1014650E-006  0.4159928E+04  0.7818608E-02  0.7973039E-01
         -2   -1    0    0    0  501 -0.00000000000E+00  0.00000000000E+00  0.14238275737E+04  0.14238275737E+04  0.00000000000E+00 0.  1.
          2   -1    0    0  501    0  0.00000000000E+00 -0.00000000000E+00 -0.30384645049E+04  0.30384645049E+04  0.00000000000E+00 0. -1.
         23    2    1    2    0    0  0.57905176395E+03  0.53686626860E+03 -0.28706333487E+04  0.29786973440E+04  0.92605122364E+02 0.  0.
         13    1    3    3    0    0  0.29887053611E+03  0.32944879143E+03 -0.15139906297E+04  0.15779821705E+04  0.00000000000E+00 0.  1.
        -13    1    3    3    0    0  0.28018122784E+03  0.20741747717E+03 -0.13566427190E+04  0.14007151735E+04  0.00000000000E+00 0. -1.
         22    1    1    2    0    0 -0.57905176395E+03 -0.53686626860E+03  0.12559964176E+04  0.14835947346E+04  0.00000000000E+00 0.  1.
<mgrwt>
<rscale>  0 0.41599277E+04</rscale>
<asrwt>0</asrwt>
<pdfrwt beam="1">  1        2 0.46745608E+00 0.41599277E+04</pdfrwt>
<pdfrwt beam="2">  1       -2 0.21905040E+00 0.41599277E+04</pdfrwt>
<totfact> 0.12843604E-01</totfact>
</mgrwt>
</event>
<event>
 6    1  0.1014650E-006  0.1596246E+04  0.7818608E-02  0.8822858E-01
          2   -1    0    0  501    0  0.00000000000E+00  0.00000000000E+00  0.18398982161E+04  0.18398982161E+04  0.00000000000E+00 0. -1.
         -2   -1    0    0    0  501 -0.00000000000E+00 -0.00000000000E+00 -0.34621489245E+03  0.34621489245E+03  0.00000000000E+00 0.  1.
         23    2    1    2    0    0  0.27755498869E+03  0.39586099211E+03  0.16147544698E+04  0.16877147545E+04  0.84890506277E+02 0.  0.
         13    1    3    3    0    0  0.22755341356E+03  0.29848488170E+03  0.13504858775E+04  0.14016725316E+04  0.00000000000E+00 0. -1.
        -13    1    3    3    0    0  0.50001575124E+02  0.97376110405E+02  0.26426859235E+03  0.28604222292E+03  0.00000000000E+00 0.  1.
         22    1    1    2    0    0 -0.27755498869E+03 -0.39586099211E+03 -0.12107114619E+03  0.49839835399E+03  0.00000000000E+00 0.  1.
<mgrwt>
<rscale>  0 0.15962458E+04</rscale>
<asrwt>0</asrwt>
<pdfrwt beam="1">  1        2 0.28306126E+00 0.15962458E+04</pdfrwt>
<pdfrwt beam="2">  1       -2 0.53263831E-01 0.15962458E+04</pdfrwt>
<totfact> 0.26135366E+01</totfact>
</mgrwt>
</event>
<event>
 6    1  0.1014650E-006  0.3720553E+04  0.7818608E-02  0.8063422E-01
         -1   -1    0    0    0  501 -0.00000000000E+00  0.00000000000E+00  0.55702254758E+04  0.55702254758E+04  0.00000000000E+00 0.  1.
          1   -1    0    0  501    0  0.00000000000E+00 -0.00000000000E+00 -0.62127249704E+03  0.62127249704E+03  0.00000000000E+00 0. -1.
         23    2    1    2    0    0  0.15206250451E+04  0.19489267864E+03  0.42262579124E+04  0.44966316528E+04  0.90313868036E+02 0.  0.
         11    1    3    3    0    0  0.10842019415E+04  0.16766499991E+03  0.31056560541E+04  0.32937372282E+04  0.00000000000E+00 0.  1.
        -11    1    3    3    0    0  0.43642310363E+03  0.27227678732E+02  0.11206018582E+04  0.12028944245E+04  0.00000000000E+00 0. -1.
         22    1    1    2    0    0 -0.15206250451E+04 -0.19489267864E+03  0.72269506640E+03  0.16948663201E+04  0.00000000000E+00 0. -1.
<mgrwt>
<rscale>  0 0.37205526E+04</rscale>
<asrwt>0</asrwt>
<pdfrwt beam="1">  1        1 0.95580388E-01 0.37205526E+04</pdfrwt>
<pdfrwt beam="2">  1       -1 0.85695773E+00 0.37205526E+04</pdfrwt>
<totfact> 0.66590784E-04</totfact>
</mgrwt>
</event>
<event>
 6    1  0.1014650E-006  0.1984567E+04  0.7818608E-02  0.8613870E-01
          1   -1    0    0  501    0  0.00000000000E+00  0.00000000000E+00  0.15939511622E+04  0.15939511622E+04  0.00000000000E+00 0. -1.
         -1   -1    0    0    0  501 -0.00000000000E+00 -0.00000000000E+00 -0.61772693771E+03  0.61772693771E+03  0.00000000000E+00 0.  1.
         23    2    1    2    0    0  0.63789988153E+03  0.42298182444E+03 -0.21092876737E+03  0.79917602602E+03  0.91441199677E+02 0.  0.
         11    1    3    3    0    0  0.25410940887E+03  0.11898176531E+03 -0.92676506902E+02  0.29549481736E+03  0.00000000000E+00 0. -1.
        -11    1    3    3    0    0  0.38379047266E+03  0.30400005913E+03 -0.11825226047E+03  0.50368120866E+03  0.00000000000E+00 0.  1.
         22    1    1    2    0    0 -0.63789988153E+03 -0.42298182444E+03  0.11871529919E+04  0.14125020739E+04  0.00000000000E+00 0. -1.
<mgrwt>
<rscale>  0 0.19845670E+04</rscale>
<asrwt>0</asrwt>
<pdfrwt beam="1">  1        1 0.24522325E+00 0.19845670E+04</pdfrwt>
<pdfrwt beam="2">  1       -1 0.95034914E-01 0.19845670E+04</pdfrwt>
<totfact> 0.55983914E+00</totfact>
</mgrwt>
</event>
<event>
 6    1  0.1014650E-006  0.3421194E+04  0.7818608E-02  0.8132724E-01
         -1   -1    0    0    0  501 -0.00000000000E+00  0.00000000000E+00  0.61959747188E+03  0.61959747188E+03  0.00000000000E+00 0.  1.
          1   -1    0    0  501    0  0.00000000000E+00 -0.00000000000E+00 -0.47226510797E+04  0.47226510797E+04  0.00000000000E+00 0. -1.
         23    2    1    2    0    0  0.10505320186E+04 -0.55666061160E+03 -0.13504653714E+03  0.11999582827E+04  0.90408818409E+02 0.  0.
         11    1    3    3    0    0  0.27558285764E+03 -0.14963911265E+03 -0.75800968233E+02  0.32261984168E+03  0.00000000000E+00 0. -1.
        -11    1    3    3    0    0  0.77494916096E+03 -0.40702149894E+03 -0.59245568903E+02  0.87733844103E+03  0.00000000000E+00 0.  1.
         22    1    1    2    0    0 -0.10505320186E+04  0.55666061160E+03 -0.39680070707E+04  0.41422902689E+04  0.00000000000E+00 0. -1.
<mgrwt>
<rscale>  0 0.34211943E+04</rscale>
<asrwt>0</asrwt>
<pdfrwt beam="1">  1        1 0.72656170E+00 0.34211943E+04</pdfrwt>
<pdfrwt beam="2">  1       -1 0.95322689E-01 0.34211943E+04</pdfrwt>
<totfact> 0.16147411E-02</totfact>
</mgrwt>
</event>
<event>
 6    1  0.1014650E-006  0.1174592E+04  0.7818608E-02  0.9135391E-01
          2   -1    0    0  501    0  0.00000000000E+00  0.00000000000E+00  0.31588977744E+04  0.31588977744E+04  0.00000000000E+00 0. -1.
         -2   -1    0    0    0  501 -0.00000000000E+00 -0.00000000000E+00 -0.10918895712E+03  0.10918895712E+03  0.00000000000E+00 0.  1.
         23    2    1    2    0    0  0.34243225275E+03 -0.35543751744E+03  0.24013783662E+04  0.24532689296E+04  0.91185014175E+02 0.  0.
         13    1    3    3    0    0  0.18669324535E+03 -0.22765778720E+03  0.16068214821E+04  0.16335720710E+04  0.00000000000E+00 0. -1.
        -13    1    3    3    0    0  0.15573900740E+03 -0.12777973024E+03  0.79455688415E+03  0.81969685863E+03  0.00000000000E+00 0.  1.
         22    1    1    2    0    0 -0.34243225275E+03  0.35543751744E+03  0.64833045108E+03  0.81481780192E+03  0.00000000000E+00 0.  1.
<mgrwt>
<rscale>  0 0.11745923E+04</rscale>
<asrwt>0</asrwt>
<pdfrwt beam="1">  1        2 0.48598420E+00 0.11745923E+04</pdfrwt>
<pdfrwt beam="2">  1       -2 0.16798304E-01 0.11745923E+04</pdfrwt>
<totfact> 0.40206260E+01</totfact>
</mgrwt>
</event>
<event>
 6    1  0.1014650E-006  0.3713895E+04  0.7818608E-02  0.8064889E-01
          2   -1    0    0  501    0  0.00000000000E+00  0.00000000000E+00  0.12252063327E+04  0.12252063327E+04  0.00000000000E+00 0. -1.
         -2   -1    0    0    0  501 -0.00000000000E+00 -0.00000000000E+00 -0.28144273686E+04  0.28144273686E+04  0.00000000000E+00 0.  1.
         23    2    1    2    0    0 -0.12145761542E+04 -0.96660843028E+03 -0.19013595016E+04  0.24562962409E+04  0.93253294869E+02 0.  0.
         11    1    3    3    0    0 -0.63759475475E+03 -0.45755577515E+03 -0.10003649106E+04  0.12714614870E+04  0.00000000000E+00 0.  1.
        -11    1    3    3    0    0 -0.57698139943E+03 -0.50905265513E+03 -0.90099459106E+03  0.11848347539E+04  0.00000000000E+00 0. -1.
         22    1    1    2    0    0  0.12145761542E+04  0.96660843028E+03  0.31213846568E+03  0.15833374604E+04  0.00000000000E+00 0.  1.
<mgrwt>
<rscale>  0 0.37138951E+04</rscale>
<asrwt>0</asrwt>
<pdfrwt beam="1">  1        2 0.18849328E+00 0.37138951E+04</pdfrwt>
<pdfrwt beam="2">  1       -2 0.43298882E+00 0.37138951E+04</pdfrwt>
<totfact> 0.66412082E-02</totfact>
</mgrwt>
</event>
<event>
 6    1  0.1014650E-006  0.1706061E+04  0.7818608E-02  0.8757915E-01
         -2   -1    0    0    0  501 -0.00000000000E+00  0.00000000000E+00  0.23129130422E+03  0.23129130422E+03  0.00000000000E+00 0.  1.
          2   -1    0    0  501    0  0.00000000000E+00 -0.00000000000E+00 -0.31460786120E+04  0.31460786120E+04  0.00000000000E+00 0. -1.
         23    2    1    2    0    0 -0.20559537660E+03  0.45913352475E+03 -0.28181808381E+04  0.28651142551E+04  0.11689057176E+03 0.  0.
         13    1    3    3    0    0 -0.74148080929E+02  0.29929118535E+03 -0.17798583279E+04  0.18063689598E+04  0.00000000000E+00 0.  1.
        -13    1    3    3    0    0 -0.13144729567E+03  0.15984233940E+03 -0.10383225103E+04  0.10587452953E+04  0.00000000000E+00 0. -1.
         22    1    1    2    0    0  0.20559537660E+03 -0.45913352475E+03 -0.96606469678E+02  0.51225566118E+03  0.00000000000E+00 0.  1.
<mgrwt>
<rscale>  0 0.17060605E+04</rscale>
<asrwt>0</asrwt>
<pdfrwt beam="1">  1        2 0.48401208E+00 0.17060605E+04</pdfrwt>
<pdfrwt beam="2">  1       -2 0.35583278E-01 0.17060605E+04</pdfrwt>
<totfact> 0.99825012E+00</totfact>
</mgrwt>
</event>
<event>
 6    1  0.1014650E-006  0.2832737E+04  0.7818608E-02  0.8293176E-01
          1   -1    0    0  501    0  0.00000000000E+00  0.00000000000E+00  0.20587424649E+04  0.20587424649E+04  0.00000000000E+00 0. -1.
         -1   -1    0    0    0  501 -0.00000000000E+00 -0.00000000000E+00 -0.97442940985E+03  0.97442940985E+03  0.00000000000E+00 0.  1.
         23    2    1    2    0    0  0.45316775792E+03  0.10215988509E+04  0.14717297327E+04  0.18503291502E+04  0.93296992452E+02 0.  0.
         11    1    3    3    0    0  0.57489456553E+02  0.10922933095E+03  0.11965001536E+03  0.17190756391E+03  0.00000000000E+00 0.  1.
        -11    1    3    3    0    0  0.39567830137E+03  0.91236951995E+03  0.13520797173E+04  0.16784215862E+04  0.00000000000E+00 0. -1.
         22    1    1    2    0    0 -0.45316775792E+03 -0.10215988509E+04 -0.38741667767E+03  0.11828427246E+04  0.00000000000E+00 0.  1.
<mgrwt>
<rscale>  0 0.28327366E+04</rscale>
<asrwt>0</asrwt>
<pdfrwt beam="1">  1        1 0.31672961E+00 0.28327366E+04</pdfrwt>
<pdfrwt beam="2">  1       -1 0.14991222E+00 0.28327366E+04</pdfrwt>
<totfact> 0.82001733E-01</totfact>
</mgrwt>
</event>
<event>
 6    1  0.1014650E-006  0.1739196E+04  0.7818608E-02  0.8739320E-01
         -4   -1    0    0    0  501 -0.00000000000E+00  0.00000000000E+00  0.69018003800E+03  0.69018003800E+03  0.00000000000E+00 0.  1.
          4   -1    0    0  501    0  0.00000000000E+00 -0.00000000000E+00 -0.10956575438E+04  0.10956575438E+04  0.00000000000E+00 0. -1.
         23    2    1    2    0    0 -0.48857192893E+03 -0.68977481921E+03 -0.40658272093E+01  0.85009019781E+03  0.90249556894E+02 0.  0.
         11    1    3    3    0    0 -0.39200319139E+03 -0.51688436962E+03 -0.34974073631E+02  0.64966078798E+03  0.00000000000E+00 0.  1.
        -11    1    3    3    0    0 -0.96568737542E+02 -0.17289044959E+03  0.30908246421E+02  0.20042940983E+03  0.00000000000E+00 0. -1.
         22    1    1    2    0    0  0.48857192893E+03  0.68977481921E+03 -0.40141167862E+03  0.93574738401E+03  0.00000000000E+00 0.  1.
<mgrwt>
<rscale>  0 0.17391963E+04</rscale>
<asrwt>0</asrwt>
<pdfrwt beam="1">  1        4 0.16856270E+00 0.17391963E+04</pdfrwt>
<pdfrwt beam="2">  1       -4 0.10618154E+00 0.17391963E+04</pdfrwt>
<totfact> 0.29374061E-01</totfact>
</mgrwt>
</event>
<event>
 6    1  0.1014650E-006  0.1097053E+04  0.7818608E-02  0.9208069E-01
          2   -1    0    0  501    0  0.00000000000E+00  0.00000000000E+00  0.16513961689E+04  0.16513961689E+04  0.00000000000E+00 0. -1.
         -2   -1    0    0    0  501 -0.00000000000E+00 -0.00000000000E+00 -0.18219821261E+03  0.18219821261E+03  0.00000000000E+00 0.  1.
         23    2    1    2    0    0 -0.26272222326E+03  0.41679328602E+03  0.35141963537E+03  0.61205110164E+03  0.91494158425E+02 0.  0.
         11    1    3    3    0    0 -0.89900874096E+02  0.13526909760E+03  0.65386493391E+02  0.17508651989E+03  0.00000000000E+00 0. -1.
        -11    1    3    3    0    0 -0.17282134916E+03  0.28152418842E+03  0.28603314198E+03  0.43696458175E+03  0.00000000000E+00 0.  1.
         22    1    1    2    0    0  0.26272222326E+03 -0.41679328602E+03  0.11177783209E+04  0.12215432799E+04  0.00000000000E+00 0. -1.
<mgrwt>
<rscale>  0 0.10970532E+04</rscale>
<asrwt>0</asrwt>
<pdfrwt beam="1">  1        2 0.25406094E+00 0.10970532E+04</pdfrwt>
<pdfrwt beam="2">  1       -2 0.28030495E-01 0.10970532E+04</pdfrwt>
<totfact> 0.12055619E+02</totfact>
</mgrwt>
</event>
<event>
 6    1  0.1014650E-006  0.1656269E+04  0.7818608E-02  0.8786706E-01
         -1   -1    0    0    0  501 -0.00000000000E+00  0.00000000000E+00  0.44083544453E+03  0.44083544453E+03  0.00000000000E+00 0.  1.
          1   -1    0    0  501    0  0.00000000000E+00 -0.00000000000E+00 -0.15556982180E+04  0.15556982180E+04  0.00000000000E+00 0. -1.
         23    2    1    2    0    0 -0.76668400229E+02  0.79618057639E+03 -0.80596619931E+03  0.11390964069E+04  0.90429840244E+02 0.  0.
         13    1    3    3    0    0 -0.69779157957E+02  0.45999946672E+03 -0.41533266920E+03  0.62367448751E+03  0.00000000000E+00 0. -1.
        -13    1    3    3    0    0 -0.68892422723E+01  0.33618110968E+03 -0.39063353011E+03  0.51542191941E+03  0.00000000000E+00 0.  1.
         22    1    1    2    0    0  0.76668400229E+02 -0.79618057639E+03 -0.30889657419E+03  0.85743725565E+03  0.00000000000E+00 0.  1.
<mgrwt>
<rscale>  0 0.16562692E+04</rscale>
<asrwt>0</asrwt>
<pdfrwt beam="1">  1        1 0.23933819E+00 0.16562692E+04</pdfrwt>
<pdfrwt beam="2">  1       -1 0.67820838E-01 0.16562692E+04</pdfrwt>
<totfact> 0.12585420E+01</totfact>
</mgrwt>
</event>
<event>
 6    1  0.1014650E-006  0.4528605E+04  0.7818608E-02  0.7905648E-01
          2   -1    0    0  501    0  0.00000000000E+00  0.00000000000E+00  0.23510604741E+04  0.23510604741E+04  0.00000000000E+00 0. -1.
         -2   -1    0    0    0  501 -0.00000000000E+00 -0.00000000000E+00 -0.21807459632E+04  0.21807459632E+04  0.00000000000E+00 0.  1.
         23    2    1    2    0    0  0.19988741269E+04  0.87711494639E+03  0.68404313019E+03  0.22893199828E+04  0.90788630638E+02 0.  0.
         11    1    3    3    0    0  0.42621225518E+03  0.21958484754E+03  0.17424946186E+03  0.51013455744E+03  0.00000000000E+00 0.  1.
        -11    1    3    3    0    0  0.15726618717E+04  0.65753009885E+03  0.50979366832E+03  0.17791854254E+04  0.00000000000E+00 0. -1.
         22    1    1    2    0    0 -0.19988741269E+04 -0.87711494639E+03 -0.51372861931E+03  0.22424864545E+04  0.00000000000E+00 0.  1.
<mgrwt>
<rscale>  0 0.45286049E+04</rscale>
<asrwt>0</asrwt>
<pdfrwt beam="1">  1        2 0.36170161E+00 0.45286049E+04</pdfrwt>
<pdfrwt beam="2">  1       -2 0.33549938E+00 0.45286049E+04</pdfrwt>
<totfact> 0.61493368E-02</totfact>
</mgrwt>
</event>
<event>
 6    1  0.1014650E-006  0.9717906E+03  0.7818608E-02  0.9340037E-01
         -2   -1    0    0    0  501 -0.00000000000E+00  0.00000000000E+00  0.85035462149E+02  0.85035462149E+02  0.00000000000E+00 0.  1.
          2   -1    0    0  501    0  0.00000000000E+00 -0.00000000000E+00 -0.27764209063E+04  0.27764209063E+04  0.00000000000E+00 0. -1.
         23    2    1    2    0    0 -0.45497234775E+03 -0.13262032478E+03 -0.11036471568E+04  0.12045010713E+04  0.90541682048E+02 0.  0.
         13    1    3    3    0    0 -0.34164893614E+03 -0.10038044649E+03 -0.72124339231E+03  0.80435829116E+03  0.00000000000E+00 0. -1.
        -13    1    3    3    0    0 -0.11332341162E+03 -0.32239878287E+02 -0.38240376450E+03  0.40014278011E+03  0.00000000000E+00 0.  1.
         22    1    1    2    0    0  0.45497234775E+03  0.13262032478E+03 -0.15877382873E+04  0.16569552972E+04  0.00000000000E+00 0.  1.
<mgrwt>
<rscale>  0 0.97179058E+03</rscale>
<asrwt>0</asrwt>
<pdfrwt beam="1">  1        2 0.42714171E+00 0.97179058E+03</pdfrwt>
<pdfrwt beam="2">  1       -2 0.13082378E-01 0.97179058E+03</pdfrwt>
<totfact> 0.10774568E+02</totfact>
</mgrwt>
</event>
<event>
 6    1  0.1014650E-006  0.1586746E+04  0.7818608E-02  0.8828732E-01
          4   -1    0    0  501    0  0.00000000000E+00  0.00000000000E+00  0.59417880724E+03  0.59417880724E+03  0.00000000000E+00 0. -1.
         -4   -1    0    0    0  501 -0.00000000000E+00 -0.00000000000E+00 -0.10593452039E+04  0.10593452039E+04  0.00000000000E+00 0.  1.
         23    2    1    2    0    0 -0.67742666181E+03  0.98261645501E+00 -0.65827140019E+03  0.94911121313E+03  0.92644540669E+02 0.  0.
         11    1    3    3    0    0 -0.56676726331E+03  0.20585178089E+02 -0.50743583983E+03  0.76101249126E+03  0.00000000000E+00 0.  1.
        -11    1    3    3    0    0 -0.11065939851E+03 -0.19602561634E+02 -0.15083556035E+03  0.18809872187E+03  0.00000000000E+00 0. -1.
         22    1    1    2    0    0  0.67742666181E+03 -0.98261645501E+00  0.19310500350E+03  0.70441279804E+03  0.00000000000E+00 0. -1.
<mgrwt>
<rscale>  0 0.15867457E+04</rscale>
<asrwt>0</asrwt>
<pdfrwt beam="1">  1        4 0.91412125E-01 0.15867457E+04</pdfrwt>
<pdfrwt beam="2">  1       -4 0.16297618E+00 0.15867457E+04</pdfrwt>
<totfact> 0.46599043E-01</totfact>
</mgrwt>
</event>
<event>
 6    1  0.1014650E-006  0.1662667E+04  0.7818608E-02  0.8782948E-01
          1   -1    0    0  501    0  0.00000000000E+00  0.00000000000E+00  0.14798998805E+04  0.14798998805E+04  0.00000000000E+00 0. -1.
         -1   -1    0    0    0  501 -0.00000000000E+00 -0.00000000000E+00 -0.46700127044E+03  0.46700127044E+03  0.00000000000E+00 0.  1.
         23    2    1    2    0    0  0.11992682948E+03 -0.81991960279E+03  0.53465220100E+03  0.99015132617E+03  0.88859851529E+02 0.  0.
         13    1    3    3    0    0  0.68392030870E+02 -0.27480827892E+03  0.22029718607E+03  0.35878671971E+03  0.00000000000E+00 0.  1.
        -13    1    3    3    0    0  0.51534798606E+02 -0.54511132387E+03  0.31435501493E+03  0.63136460646E+03  0.00000000000E+00 0. -1.
         22    1    1    2    0    0 -0.11992682948E+03  0.81991960279E+03  0.47824640911E+03  0.95674982482E+03  0.00000000000E+00 0. -1.
<mgrwt>
<rscale>  0 0.16626667E+04</rscale>
<asrwt>0</asrwt>
<pdfrwt beam="1">  1        1 0.22767690E+00 0.16626667E+04</pdfrwt>
<pdfrwt beam="2">  1       -1 0.71846350E-01 0.16626667E+04</pdfrwt>
<totfact> 0.12608306E+01</totfact>
</mgrwt>
</event>
<event>
 6    1  0.1014650E-006  0.5380733E+04  0.7818608E-02  0.7772317E-01
          2   -1    0    0  501    0  0.00000000000E+00  0.00000000000E+00  0.29371392959E+04  0.29371392959E+04  0.00000000000E+00 0. -1.
         -2   -1    0    0    0  501 -0.00000000000E+00 -0.00000000000E+00 -0.24643273610E+04  0.24643273610E+04  0.00000000000E+00 0.  1.
         23    2    1    2    0    0 -0.20448121732E+04  0.86802736200E+03 -0.12856766138E+04  0.25682687639E+04  0.91168875137E+02 0.  0.
         13    1    3    3    0    0 -0.18386195736E+04  0.74995117673E+03 -0.11491362484E+04  0.22942237949E+04  0.00000000000E+00 0. -1.
        -13    1    3    3    0    0 -0.20619259962E+03  0.11807618527E+03 -0.13654036536E+03  0.27404496901E+03  0.00000000000E+00 0.  1.
         22    1    1    2    0    0  0.20448121732E+04 -0.86802736200E+03  0.17584885487E+04  0.28331978930E+04  0.00000000000E+00 0. -1.
<mgrwt>
<rscale>  0 0.53807333E+04</rscale>
<asrwt>0</asrwt>
<pdfrwt beam="1">  1        2 0.45186758E+00 0.53807333E+04</pdfrwt>
<pdfrwt beam="2">  1       -2 0.37912729E+00 0.53807333E+04</pdfrwt>
<totfact> 0.13655865E-02</totfact>
</mgrwt>
</event>
<event>
 6    1  0.1014650E-006  0.1615693E+04  0.7818608E-02  0.8810965E-01
          2   -1    0    0  501    0  0.00000000000E+00  0.00000000000E+00  0.11648634387E+04  0.11648634387E+04  0.00000000000E+00 0. -1.
         -2   -1    0    0    0  501 -0.00000000000E+00 -0.00000000000E+00 -0.56025088871E+03  0.56025088871E+03  0.00000000000E+00 0.  1.
         23    2    1    2    0    0  0.45861059674E+03  0.66118219006E+03  0.27239043611E+03  0.85456444324E+03  0.92726857376E+02 0.  0.
         13    1    3    3    0    0  0.17017002681E+03  0.21070257560E+03  0.13330476199E+03  0.30186681328E+03  0.00000000000E+00 0.  1.
        -13    1    3    3    0    0  0.28844056993E+03  0.45047961446E+03  0.13908567411E+03  0.55269762996E+03  0.00000000000E+00 0. -1.
         22    1    1    2    0    0 -0.45861059674E+03 -0.66118219006E+03  0.33222211391E+03  0.87054988419E+03  0.00000000000E+00 0. -1.
<mgrwt>
<rscale>  0 0.16156928E+04</rscale>
<asrwt>0</asrwt>
<pdfrwt beam="1">  1        2 0.17920976E+00 0.16156928E+04</pdfrwt>
<pdfrwt beam="2">  1       -2 0.86192445E-01 0.16156928E+04</pdfrwt>
<totfact> 0.22233961E+01</totfact>
</mgrwt>
</event>
<event>
 6    1  0.1014650E-006  0.2318781E+04  0.7818608E-02  0.8470553E-01
          2   -1    0    0  501    0  0.00000000000E+00  0.00000000000E+00  0.23673277422E+04  0.23673277422E+04  0.00000000000E+00 0. -1.
         -2   -1    0    0    0  501 -0.00000000000E+00 -0.00000000000E+00 -0.56780748876E+03  0.56780748876E+03  0.00000000000E+00 0.  1.
         23    2    1    2    0    0  0.48076285679E+03  0.28019374288E+03 -0.38379758674E+03  0.68202221799E+03  0.90621521891E+02 0.  0.
         11    1    3    3    0    0  0.65297342693E+02  0.26023703263E+02 -0.86300098164E+02  0.11130446099E+03  0.00000000000E+00 0.  1.
        -11    1    3    3    0    0  0.41546551410E+03  0.25417003962E+03 -0.29749748857E+03  0.57071775700E+03  0.00000000000E+00 0. -1.
         22    1    1    2    0    0 -0.48076285679E+03 -0.28019374288E+03  0.21833178402E+04  0.22531130130E+04  0.00000000000E+00 0. -1.
<mgrwt>
<rscale>  0 0.23187811E+04</rscale>
<asrwt>0</asrwt>
<pdfrwt beam="1">  1        2 0.36420426E+00 0.23187811E+04</pdfrwt>
<pdfrwt beam="2">  1       -2 0.87354999E-01 0.23187811E+04</pdfrwt>
<totfact> 0.42522249E+00</totfact>
</mgrwt>
</event>
<event>
 6    1  0.1014650E-006  0.4653181E+04  0.7818608E-02  0.7884355E-01
          2   -1    0    0  501    0  0.00000000000E+00  0.00000000000E+00  0.32937742269E+04  0.32937742269E+04  0.00000000000E+00 0. -1.
         -2   -1    0    0    0  501 -0.00000000000E+00 -0.00000000000E+00 -0.16434104820E+04  0.16434104820E+04  0.00000000000E+00 0.  1.
         23    2    1    2    0    0 -0.19012563371E+04 -0.97088241723E+03  0.18045576788E+04  0.27968192969E+04  0.91550183668E+02 0.  0.
         13    1    3    3    0    0 -0.13580996619E+04 -0.72224235750E+03  0.13414354913E+04  0.20409600418E+04  0.00000000000E+00 0.  1.
        -13    1    3    3    0    0 -0.54315667519E+03 -0.24864005973E+03  0.46312218743E+03  0.75585925515E+03  0.00000000000E+00 0. -1.
         22    1    1    2    0    0  0.19012563371E+04  0.97088241723E+03 -0.15419393390E+03  0.21403654119E+04  0.00000000000E+00 0.  1.
<mgrwt>
<rscale>  0 0.46531809E+04</rscale>
<asrwt>0</asrwt>
<pdfrwt beam="1">  1        2 0.50673449E+00 0.46531809E+04</pdfrwt>
<pdfrwt beam="2">  1       -2 0.25283238E+00 0.46531809E+04</pdfrwt>
<totfact> 0.51893059E-02</totfact>
</mgrwt>
</event>
<event>
 6    1  0.1014650E-006  0.2485603E+04  0.7818608E-02  0.8408132E-01
         -1   -1    0    0    0  501 -0.00000000000E+00  0.00000000000E+00  0.16803963455E+04  0.16803963455E+04  0.00000000000E+00 0.  1.
          1   -1    0    0  501    0  0.00000000000E+00 -0.00000000000E+00 -0.91916173206E+03  0.91916173206E+03  0.00000000000E+00 0. -1.
         23    2    1    2    0    0 -0.10625158297E+04 -0.61883190793E+03  0.56053576481E+03  0.13536957873E+04  0.79994514491E+02 0.  0.
         11    1    3    3    0    0 -0.47261865595E+03 -0.31941837350E+03  0.24677829744E+03  0.62152716704E+03  0.00000000000E+00 0. -1.
        -11    1    3    3    0    0 -0.58989717371E+03 -0.29941353443E+03  0.31375746737E+03  0.73216862025E+03  0.00000000000E+00 0.  1.
         22    1    1    2    0    0  0.10625158297E+04  0.61883190793E+03  0.20069884867E+03  0.12458622903E+04  0.00000000000E+00 0.  1.
<mgrwt>
<rscale>  0 0.24856034E+04</rscale>
<asrwt>0</asrwt>
<pdfrwt beam="1">  1        1 0.14140950E+00 0.24856034E+04</pdfrwt>
<pdfrwt beam="2">  1       -1 0.25852252E+00 0.24856034E+04</pdfrwt>
<totfact> 0.95771633E-01</totfact>
</mgrwt>
</event>
<event>
 6    1  0.1014650E-006  0.2399686E+04  0.7818608E-02  0.8439621E-01
          2   -1    0    0  501    0  0.00000000000E+00  0.00000000000E+00  0.24104160189E+04  0.24104160189E+04  0.00000000000E+00 0. -1.
         -2   -1    0    0    0  501 -0.00000000000E+00 -0.00000000000E+00 -0.59725114545E+03  0.59725114545E+03  0.00000000000E+00 0.  1.
         23    2    1    2    0    0  0.11632150679E+04 -0.16237252283E+03  0.12041526250E+04  0.16846667678E+04  0.93190363579E+02 0.  0.
         11    1    3    3    0    0  0.10606121303E+03 -0.15838337135E+01  0.14443106858E+03  0.17919772044E+03  0.00000000000E+00 0. -1.
        -11    1    3    3    0    0  0.10571538549E+04 -0.16078868912E+03  0.10597215564E+04  0.15054690474E+04  0.00000000000E+00 0.  1.
         22    1    1    2    0    0 -0.11632150679E+04  0.16237252283E+03  0.60901224843E+03  0.13230003965E+04  0.00000000000E+00 0. -1.
<mgrwt>
<rscale>  0 0.23996864E+04</rscale>
<asrwt>0</asrwt>
<pdfrwt beam="1">  1        2 0.37083323E+00 0.23996864E+04</pdfrwt>
<pdfrwt beam="2">  1       -2 0.91884793E-01 0.23996864E+04</pdfrwt>
<totfact> 0.35513532E+00</totfact>
</mgrwt>
</event>
<event>
 6    1  0.1014650E-006  0.2529352E+04  0.7818608E-02  0.8392603E-01
          2   -1    0    0  501    0  0.00000000000E+00  0.00000000000E+00  0.83228212276E+03  0.83228212276E+03  0.00000000000E+00 0. -1.
         -2   -1    0    0    0  501 -0.00000000000E+00 -0.00000000000E+00 -0.19217105531E+04  0.19217105531E+04  0.00000000000E+00 0.  1.
         23    2    1    2    0    0  0.79460934670E+02  0.73919050422E+03 -0.16570735163E+04  0.18186116917E+04  0.93483715665E+02 0.  0.
         13    1    3    3    0    0  0.10366475020E+02  0.38477265170E+03 -0.76954340420E+03  0.86043855576E+03  0.00000000000E+00 0.  1.
        -13    1    3    3    0    0  0.69094459650E+02  0.35441785252E+03 -0.88753011214E+03  0.95817313597E+03  0.00000000000E+00 0. -1.
         22    1    1    2    0    0 -0.79460934670E+02 -0.73919050422E+03  0.56764508604E+03  0.93538098408E+03  0.00000000000E+00 0. -1.
<mgrwt>
<rscale>  0 0.25293520E+04</rscale>
<asrwt>0</asrwt>
<pdfrwt beam="1">  1        2 0.12804340E+00 0.25293520E+04</pdfrwt>
<pdfrwt beam="2">  1       -2 0.29564777E+00 0.25293520E+04</pdfrwt>
<totfact> 0.98218134E-01</totfact>
</mgrwt>
</event>
<event>
 6    1  0.1014650E-006  0.2694714E+04  0.7818608E-02  0.8336722E-01
         -2   -1    0    0    0  501 -0.00000000000E+00  0.00000000000E+00  0.64125733115E+03  0.64125733115E+03  0.00000000000E+00 0.  1.
          2   -1    0    0  501    0  0.00000000000E+00 -0.00000000000E+00 -0.28309550359E+04  0.28309550359E+04  0.00000000000E+00 0. -1.
         23    2    1    2    0    0  0.75869744280E+03  0.16394817607E+03 -0.25127301267E+04  0.26314681968E+04  0.91166697776E+02 0.  0.
         11    1    3    3    0    0  0.25129808749E+03  0.59151860699E+02 -0.98517265251E+03  0.10184374437E+04  0.00000000000E+00 0.  1.
        -11    1    3    3    0    0  0.50739935531E+03  0.10479631537E+03 -0.15275574742E+04  0.16130307531E+04  0.00000000000E+00 0. -1.
         22    1    1    2    0    0 -0.75869744280E+03 -0.16394817607E+03  0.32303242200E+03  0.84074417025E+03  0.00000000000E+00 0.  1.
<mgrwt>
<rscale>  0 0.26947138E+04</rscale>
<asrwt>0</asrwt>
<pdfrwt beam="1">  1        2 0.43553154E+00 0.26947138E+04</pdfrwt>
<pdfrwt beam="2">  1       -2 0.98654975E-01 0.26947138E+04</pdfrwt>
<totfact> 0.16571635E+00</totfact>
</mgrwt>
</event>
<event>
 6    1  0.1014650E-006  0.9951717E+03  0.7818608E-02  0.9313856E-01
          1   -1    0    0  501    0  0.00000000000E+00  0.00000000000E+00  0.96420087926E+03  0.96420087926E+03  0.00000000000E+00 0. -1.
         -1   -1    0    0    0  501 -0.00000000000E+00 -0.00000000000E+00 -0.25678432553E+03  0.25678432553E+03  0.00000000000E+00 0.  1.
         23    2    1    2    0    0  0.61053765112E+02 -0.17751402435E+03  0.91654974813E+03  0.93995943359E+03  0.90672514608E+02 0.  0.
         11    1    3    3    0    0  0.79894904961E+02 -0.11469736278E+03  0.54338225567E+03  0.56107304039E+03  0.00000000000E+00 0. -1.
        -11    1    3    3    0    0 -0.18841139849E+02 -0.62816661565E+02  0.37316749246E+03  0.37888639320E+03  0.00000000000E+00 0.  1.
         22    1    1    2    0    0 -0.61053765112E+02  0.17751402435E+03 -0.20913319441E+03  0.28102577120E+03  0.00000000000E+00 0.  1.
<mgrwt>
<rscale>  0 0.99517169E+03</rscale>
<asrwt>0</asrwt>
<pdfrwt beam="1">  1        1 0.14833859E+00 0.99517169E+03</pdfrwt>
<pdfrwt beam="2">  1       -1 0.39505281E-01 0.99517169E+03</pdfrwt>
<totfact> 0.10081467E+02</totfact>
</mgrwt>
</event>
<event>
 6    1  0.1014650E-006  0.1621521E+04  0.7818608E-02  0.8807435E-01
         -2   -1    0    0    0  501 -0.00000000000E+00  0.00000000000E+00  0.53587467786E+03  0.53587467786E+03  0.00000000000E+00 0.  1.
          2   -1    0    0  501    0  0.00000000000E+00 -0.00000000000E+00 -0.12266533082E+04  0.12266533082E+04  0.00000000000E+00 0. -1.
         23    2    1    2    0    0 -0.20247174393E+03 -0.49001470159E+02  0.50209912482E+03  0.55159723250E+03  0.93595003016E+02 0.  0.
         11    1    3    3    0    0 -0.34728827444E+02 -0.25003170948E+02  0.20637815136E+03  0.21076809856E+03  0.00000000000E+00 0. -1.
        -11    1    3    3    0    0 -0.16774291649E+03 -0.23998299211E+02  0.29572097346E+03  0.34082913394E+03  0.00000000000E+00 0.  1.
         22    1    1    2    0    0  0.20247174393E+03  0.49001470159E+02 -0.11928777552E+04  0.12109307536E+04  0.00000000000E+00 0. -1.
<mgrwt>
<rscale>  0 0.16215208E+04</rscale>
<asrwt>0</asrwt>
<pdfrwt beam="1">  1        2 0.18871589E+00 0.16215208E+04</pdfrwt>
<pdfrwt beam="2">  1       -2 0.82442258E-01 0.16215208E+04</pdfrwt>
<totfact> 0.22580564E+01</totfact>
</mgrwt>
</event>
<event>
 6    1  0.1014650E-006  0.5406250E+04  0.7818608E-02  0.7768722E-01
          2   -1    0    0  501    0  0.00000000000E+00  0.00000000000E+00  0.21000198456E+04  0.21000198456E+04  0.00000000000E+00 0. -1.
         -2   -1    0    0    0  501 -0.00000000000E+00 -0.00000000000E+00 -0.34794365632E+04  0.34794365632E+04  0.00000000000E+00 0.  1.
         23    2    1    2    0    0 -0.32179583342E+03  0.10528971277E+04  0.18571138946E+04  0.21607906861E+04  0.89439652917E+02 0.  0.
         13    1    3    3    0    0 -0.16850637934E+03  0.52740676289E+03  0.10202201433E+04  0.11607762206E+04  0.00000000000E+00 0.  1.
        -13    1    3    3    0    0 -0.15328945408E+03  0.52549036479E+03  0.83689375127E+03  0.10000144655E+04  0.00000000000E+00 0. -1.
         22    1    1    2    0    0  0.32179583342E+03 -0.10528971277E+04 -0.32365306122E+04  0.34186657227E+04  0.00000000000E+00 0.  1.
<mgrwt>
<rscale>  0 0.54062504E+04</rscale>
<asrwt>0</asrwt>
<pdfrwt beam="1">  1        2 0.32307998E+00 0.54062504E+04</pdfrwt>
<pdfrwt beam="2">  1       -2 0.53529793E+00 0.54062504E+04</pdfrwt>
<totfact> 0.42891793E-03</totfact>
</mgrwt>
</event>
<event>
 6    1  0.1014650E-006  0.1426748E+04  0.7818608E-02  0.8934681E-01
         -1   -1    0    0    0  501 -0.00000000000E+00  0.00000000000E+00  0.20979272727E+03  0.20979272727E+03  0.00000000000E+00 0.  1.
          1   -1    0    0  501    0  0.00000000000E+00 -0.00000000000E+00 -0.24257396421E+04  0.24257396421E+04  0.00000000000E+00 0. -1.
         23    2    1    2    0    0  0.15961483448E+03 -0.41550381809E+02 -0.23890264504E+04  0.23964510960E+04  0.91253194237E+02 0.  0.
         13    1    3    3    0    0  0.11047594635E+03 -0.69484198355E+02 -0.15227884482E+04  0.15283709126E+04  0.00000000000E+00 0. -1.
        -13    1    3    3    0    0  0.49138888125E+02  0.27933816546E+02 -0.86623800217E+03  0.86808018342E+03  0.00000000000E+00 0.  1.
         22    1    1    2    0    0 -0.15961483448E+03  0.41550381809E+02  0.17307953557E+03  0.23908127331E+03  0.00000000000E+00 0.  1.
<mgrwt>
<rscale>  0 0.14267481E+04</rscale>
<asrwt>0</asrwt>
<pdfrwt beam="1">  1        1 0.37319070E+00 0.14267481E+04</pdfrwt>
<pdfrwt beam="2">  1       -1 0.32275805E-01 0.14267481E+04</pdfrwt>
<totfact> 0.13344011E+01</totfact>
</mgrwt>
</event>
<event>
 6    1  0.1014650E-006  0.2399294E+04  0.7818608E-02  0.8439768E-01
          1   -1    0    0  501    0  0.00000000000E+00  0.00000000000E+00  0.19487419918E+04  0.19487419918E+04  0.00000000000E+00 0. -1.
         -1   -1    0    0    0  501 -0.00000000000E+00 -0.00000000000E+00 -0.73850329540E+03  0.73850329540E+03  0.00000000000E+00 0.  1.
         23    2    1    2    0    0 -0.95229597867E+03 -0.32880081342E+03 -0.11975285578E+03  0.10187564096E+04  0.92446036743E+02 0.  0.
         11    1    3    3    0    0 -0.41043155639E+03 -0.12503425689E+03 -0.78315339206E+01  0.42912581000E+03  0.00000000000E+00 0.  1.
        -11    1    3    3    0    0 -0.54186442228E+03 -0.20376655653E+03 -0.11192132186E+03  0.58963059959E+03  0.00000000000E+00 0. -1.
         22    1    1    2    0    0  0.95229597867E+03  0.32880081342E+03  0.13299915522E+04  0.16684888776E+04  0.00000000000E+00 0. -1.
<mgrwt>
<rscale>  0 0.23992935E+04</rscale>
<asrwt>0</asrwt>
<pdfrwt beam="1">  1        1 0.29980646E+00 0.23992935E+04</pdfrwt>
<pdfrwt beam="2">  1       -1 0.11361589E+00 0.23992935E+04</pdfrwt>
<totfact> 0.20441733E+00</totfact>
</mgrwt>
</event>
<event>
 6    1  0.1014650E-006  0.2947138E+04  0.7818608E-02  0.8258989E-01
         -1   -1    0    0    0  501 -0.00000000000E+00  0.00000000000E+00  0.65489732249E+03  0.65489732249E+03  0.00000000000E+00 0.  1.
          1   -1    0    0  501    0  0.00000000000E+00 -0.00000000000E+00 -0.33156431933E+04  0.33156431933E+04  0.00000000000E+00 0. -1.
         23    2    1    2    0    0 -0.13191184424E+04  0.33664371155E+03 -0.20864534220E+04  0.24929701215E+04  0.90607344043E+02 0.  0.
         13    1    3    3    0    0 -0.10346022038E+04  0.23251011268E+03 -0.16621646894E+04  0.19716120631E+04  0.00000000000E+00 0.  1.
        -13    1    3    3    0    0 -0.28451623860E+03  0.10413359887E+03 -0.42428873260E+03  0.52135805839E+03  0.00000000000E+00 0. -1.
         22    1    1    2    0    0  0.13191184424E+04 -0.33664371155E+03 -0.57429244884E+03  0.14775703944E+04  0.00000000000E+00 0.  1.
<mgrwt>
<rscale>  0 0.29471382E+04</rscale>
<asrwt>0</asrwt>
<pdfrwt beam="1">  1        1 0.51009897E+00 0.29471382E+04</pdfrwt>
<pdfrwt beam="2">  1       -1 0.10075343E+00 0.29471382E+04</pdfrwt>
<totfact> 0.27805155E-01</totfact>
</mgrwt>
</event>
<event>
 6    1  0.1014650E-006  0.2302489E+04  0.7818608E-02  0.8476940E-01
         -2   -1    0    0    0  501 -0.00000000000E+00  0.00000000000E+00  0.11005762285E+04  0.11005762285E+04  0.00000000000E+00 0.  1.
          2   -1    0    0  501    0  0.00000000000E+00 -0.00000000000E+00 -0.12042451985E+04  0.12042451985E+04  0.00000000000E+00 0. -1.
         23    2    1    2    0    0  0.18038171006E+03 -0.87525388669E+03  0.67185012178E+03  0.11215899243E+04  0.89299745836E+02 0.  0.
         13    1    3    3    0    0  0.15261583940E+03 -0.75205365083E+03  0.61347867068E+03  0.98246240006E+03  0.00000000000E+00 0. -1.
        -13    1    3    3    0    0  0.27765870655E+02 -0.12320023586E+03  0.58371451107E+02  0.13912752421E+03  0.00000000000E+00 0.  1.
         22    1    1    2    0    0 -0.18038171006E+03  0.87525388669E+03 -0.77551909169E+03  0.11832315027E+04  0.00000000000E+00 0. -1.
<mgrwt>
<rscale>  0 0.23024888E+04</rscale>
<asrwt>0</asrwt>
<pdfrwt beam="1">  1        2 0.18526849E+00 0.23024888E+04</pdfrwt>
<pdfrwt beam="2">  1       -2 0.16931942E+00 0.23024888E+04</pdfrwt>
<totfact> 0.36788349E+00</totfact>
</mgrwt>
</event>
<event>
 6    1  0.1014650E-006  0.2156528E+04  0.7818608E-02  0.8536743E-01
         -1   -1    0    0    0  501 -0.00000000000E+00  0.00000000000E+00  0.13935658195E+04  0.13935658195E+04  0.00000000000E+00 0.  1.
          1   -1    0    0  501    0  0.00000000000E+00 -0.00000000000E+00 -0.83430073202E+03  0.83430073202E+03  0.00000000000E+00 0. -1.
         23    2    1    2    0    0  0.51650652571E+03 -0.11199484517E+03 -0.68878103308E+03  0.87252860271E+03  0.86977092234E+02 0.  0.
         11    1    3    3    0    0  0.15884715980E+03 -0.32199087668E+02 -0.28010634151E+03  0.32361823802E+03  0.00000000000E+00 0. -1.
        -11    1    3    3    0    0  0.35765936591E+03 -0.79795757506E+02 -0.40867469156E+03  0.54891036469E+03  0.00000000000E+00 0.  1.
         22    1    1    2    0    0 -0.51650652571E+03  0.11199484517E+03  0.12480461205E+04  0.13553379488E+04  0.00000000000E+00 0.  1.
<mgrwt>
<rscale>  0 0.21565277E+04</rscale>
<asrwt>0</asrwt>
<pdfrwt beam="1">  1        1 0.12835396E+00 0.21565277E+04</pdfrwt>
<pdfrwt beam="2">  1       -1 0.21439474E+00 0.21565277E+04</pdfrwt>
<totfact> 0.22685558E+00</totfact>
</mgrwt>
</event>
<event>
 6    1  0.1014650E-006  0.1397169E+04  0.7818608E-02  0.8955871E-01
          2   -1    0    0  501    0  0.00000000000E+00  0.00000000000E+00  0.61426318565E+03  0.61426318565E+03  0.00000000000E+00 0. -1.
         -2   -1    0    0    0  501 -0.00000000000E+00 -0.00000000000E+00 -0.79448034868E+03  0.79448034868E+03  0.00000000000E+00 0.  1.
         23    2    1    2    0    0 -0.76765996029E+02 -0.20824719934E+03 -0.75530512109E+03  0.79231342986E+03  0.89525588615E+02 0.  0.
         11    1    3    3    0    0  0.70353118514E+01 -0.42277406027E+02 -0.25502156611E+03  0.25859789994E+03  0.00000000000E+00 0. -1.
        -11    1    3    3    0    0 -0.83801307881E+02 -0.16596979332E+03 -0.50028355498E+03  0.53371552992E+03  0.00000000000E+00 0.  1.
         22    1    1    2    0    0  0.76765996029E+02  0.20824719934E+03  0.57508795807E+03  0.61643010447E+03  0.00000000000E+00 0. -1.
<mgrwt>
<rscale>  0 0.13971686E+04</rscale>
<asrwt>0</asrwt>
<pdfrwt beam="1">  1        2 0.94502028E-01 0.13971686E+04</pdfrwt>
<pdfrwt beam="2">  1       -2 0.12222775E+00 0.13971686E+04</pdfrwt>
<totfact> 0.23793168E+01</totfact>
</mgrwt>
</event>
<event>
 6    1  0.1014650E-006  0.3866969E+04  0.7818608E-02  0.8031934E-01
         -2   -1    0    0    0  501 -0.00000000000E+00  0.00000000000E+00  0.12482094927E+04  0.12482094927E+04  0.00000000000E+00 0.  1.
          2   -1    0    0  501    0  0.00000000000E+00 -0.00000000000E+00 -0.29949805909E+04  0.29949805909E+04  0.00000000000E+00 0. -1.
         23    2    1    2    0    0  0.12496510395E+04  0.10379346189E+04 -0.20222654653E+04  0.25955150124E+04  0.90579103898E+02 0.  0.
         13    1    3    3    0    0  0.21183793712E+03  0.13355476279E+03 -0.30907352866E+03  0.39779219749E+03  0.00000000000E+00 0. -1.
        -13    1    3    3    0    0  0.10378131024E+04  0.90437985612E+03 -0.17131919366E+04  0.21977228150E+04  0.00000000000E+00 0.  1.
         22    1    1    2    0    0 -0.12496510395E+04 -0.10379346189E+04  0.27549436709E+03  0.16476750711E+04  0.00000000000E+00 0.  1.
<mgrwt>
<rscale>  0 0.38669695E+04</rscale>
<asrwt>0</asrwt>
<pdfrwt beam="1">  1        2 0.46076624E+00 0.38669695E+04</pdfrwt>
<pdfrwt beam="2">  1       -2 0.19203223E+00 0.38669695E+04</pdfrwt>
<totfact> 0.20995422E-01</totfact>
</mgrwt>
</event>
<event>
 6    1  0.1014650E-006  0.1234620E+04  0.7818608E-02  0.9083082E-01
          1   -1    0    0  501    0  0.00000000000E+00  0.00000000000E+00  0.70621245445E+03  0.70621245445E+03  0.00000000000E+00 0. -1.
         -1   -1    0    0    0  501 -0.00000000000E+00 -0.00000000000E+00 -0.53959945435E+03  0.53959945435E+03  0.00000000000E+00 0.  1.
         23    2    1    2    0    0 -0.53133938733E+02  0.29005808073E+03 -0.45950531310E+03  0.55372734188E+03  0.92260125423E+02 0.  0.
         11    1    3    3    0    0  0.25773923185E+02  0.83272692784E+02 -0.14405866716E+03  0.16837914379E+03  0.00000000000E+00 0. -1.
        -11    1    3    3    0    0 -0.78907861918E+02  0.20678538794E+03 -0.31544664594E+03  0.38534819809E+03  0.00000000000E+00 0.  1.
         22    1    1    2    0    0  0.53133938733E+02 -0.29005808073E+03  0.62611831320E+03  0.69208456692E+03  0.00000000000E+00 0. -1.
<mgrwt>
<rscale>  0 0.12346204E+04</rscale>
<asrwt>0</asrwt>
<pdfrwt beam="1">  1        1 0.10864807E+00 0.12346204E+04</pdfrwt>
<pdfrwt beam="2">  1       -1 0.83015300E-01 0.12346204E+04</pdfrwt>
<totfact> 0.38256457E+01</totfact>
</mgrwt>
</event>
<event>
 6    1  0.1014650E-006  0.1154319E+04  0.7818608E-02  0.9153808E-01
         -2   -1    0    0    0  501 -0.00000000000E+00  0.00000000000E+00  0.52206689618E+03  0.52206689618E+03  0.00000000000E+00 0.  1.
          2   -1    0    0  501    0  0.00000000000E+00 -0.00000000000E+00 -0.63806577142E+03  0.63806577142E+03  0.00000000000E+00 0. -1.
         23    2    1    2    0    0 -0.12107841758E+03 -0.22649211238E+03 -0.57399016591E+03  0.63504726263E+03  0.88665974509E+02 0.  0.
         13    1    3    3    0    0 -0.13233223367E+03 -0.19661768738E+03 -0.53108697738E+03  0.58157004101E+03  0.00000000000E+00 0. -1.
        -13    1    3    3    0    0  0.11253816094E+02 -0.29874425002E+02 -0.42903188533E+02  0.53477221619E+02  0.00000000000E+00 0.  1.
         22    1    1    2    0    0  0.12107841758E+03  0.22649211238E+03  0.45799129067E+03  0.52508540496E+03  0.00000000000E+00 0.  1.
<mgrwt>
<rscale>  0 0.11543189E+04</rscale>
<asrwt>0</asrwt>
<pdfrwt beam="1">  1        2 0.98163964E-01 0.11543189E+04</pdfrwt>
<pdfrwt beam="2">  1       -2 0.80317984E-01 0.11543189E+04</pdfrwt>
<totfact> 0.62405935E+01</totfact>
</mgrwt>
</event>
<event>
 6    1  0.1014650E-006  0.9574988E+03  0.7818608E-02  0.9356428E-01
          1   -1    0    0  501    0  0.00000000000E+00  0.00000000000E+00  0.42411682601E+03  0.42411682601E+03  0.00000000000E+00 0. -1.
         -1   -1    0    0    0  501 -0.00000000000E+00 -0.00000000000E+00 -0.54041944456E+03  0.54041944456E+03  0.00000000000E+00 0.  1.
         23    2    1    2    0    0 -0.34798673110E+03 -0.25117537123E+03 -0.26215097689E+03  0.51126419360E+03  0.92109222299E+02 0.  0.
         13    1    3    3    0    0 -0.20371713244E+03 -0.11466848123E+03 -0.18528085283E+03  0.29829268355E+03  0.00000000000E+00 0. -1.
        -13    1    3    3    0    0 -0.14426959867E+03 -0.13650689000E+03 -0.76870124057E+02  0.21297151004E+03  0.00000000000E+00 0.  1.
         22    1    1    2    0    0  0.34798673110E+03  0.25117537123E+03  0.14584835833E+03  0.45327207698E+03  0.00000000000E+00 0. -1.
<mgrwt>
<rscale>  0 0.95749878E+03</rscale>
<asrwt>0</asrwt>
<pdfrwt beam="1">  1        1 0.65248742E-01 0.95749878E+03</pdfrwt>
<pdfrwt beam="2">  1       -1 0.83141453E-01 0.95749878E+03</pdfrwt>
<totfact> 0.80114177E+01</totfact>
</mgrwt>
</event>
<event>
 6    1  0.1014650E-006  0.1749186E+04  0.7818608E-02  0.8733799E-01
         -2   -1    0    0    0  501 -0.00000000000E+00  0.00000000000E+00  0.29515334949E+03  0.29515334949E+03  0.00000000000E+00 0.  1.
          2   -1    0    0  501    0  0.00000000000E+00 -0.00000000000E+00 -0.25915770973E+04  0.25915770973E+04  0.00000000000E+00 0. -1.
         23    2    1    2    0    0  0.45695179433E+03 -0.55318246798E+03 -0.19702581712E+04  0.20985681738E+04  0.85178246444E+02 0.  0.
         13    1    3    3    0    0  0.34309027492E+03 -0.36287552865E+03 -0.14229188917E+04  0.15080078774E+04  0.00000000000E+00 0.  1.
        -13    1    3    3    0    0  0.11386151941E+03 -0.19030693933E+03 -0.54733927954E+03  0.59056029641E+03  0.00000000000E+00 0. -1.
         22    1    1    2    0    0 -0.45695179433E+03  0.55318246798E+03 -0.32616557663E+03  0.78816227301E+03  0.00000000000E+00 0.  1.
<mgrwt>
<rscale>  0 0.17491857E+04</rscale>
<asrwt>0</asrwt>
<pdfrwt beam="1">  1        2 0.39870417E+00 0.17491857E+04</pdfrwt>
<pdfrwt beam="2">  1       -2 0.45408207E-01 0.17491857E+04</pdfrwt>
<totfact> 0.13443307E+01</totfact>
</mgrwt>
</event>
<event>
 6    1  0.1014650E-006  0.1496272E+04  0.7818608E-02  0.8886936E-01
          1   -1    0    0  501    0  0.00000000000E+00  0.00000000000E+00  0.63816548295E+03  0.63816548295E+03  0.00000000000E+00 0. -1.
         -1   -1    0    0    0  501 -0.00000000000E+00 -0.00000000000E+00 -0.87705724067E+03  0.87705724067E+03  0.00000000000E+00 0.  1.
         23    2    1    2    0    0  0.38786228003E+03  0.30772551068E+03 -0.68420680317E+03  0.84931159750E+03  0.89772501042E+02 0.  0.
         13    1    3    3    0    0  0.12429055405E+03  0.14059229028E+03 -0.21010820274E+03  0.28170869843E+03  0.00000000000E+00 0. -1.
        -13    1    3    3    0    0  0.26357172599E+03  0.16713322040E+03 -0.47409860044E+03  0.56760289907E+03  0.00000000000E+00 0.  1.
         22    1    1    2    0    0 -0.38786228003E+03 -0.30772551068E+03  0.44531504544E+03  0.66591112612E+03  0.00000000000E+00 0. -1.
<mgrwt>
<rscale>  0 0.14962722E+04</rscale>
<asrwt>0</asrwt>
<pdfrwt beam="1">  1        1 0.98179306E-01 0.14962722E+04</pdfrwt>
<pdfrwt beam="2">  1       -1 0.13493188E+00 0.14962722E+04</pdfrwt>
<totfact> 0.13970825E+01</totfact>
</mgrwt>
</event>
<event>
 6    1  0.1014650E-006  0.5994949E+03  0.7818608E-02  0.9906454E-01
          2   -1    0    0  501    0  0.00000000000E+00  0.00000000000E+00  0.12013205665E+04  0.12013205665E+04  0.00000000000E+00 0. -1.
         -2   -1    0    0    0  501 -0.00000000000E+00 -0.00000000000E+00 -0.74791484183E+02  0.74791484183E+02  0.00000000000E+00 0.  1.
         23    2    1    2    0    0 -0.24676900063E+03  0.12207534683E+03  0.78953568922E+03  0.84095474928E+03  0.89671376712E+02 0.  0.
         13    1    3    3    0    0 -0.84300062692E+02  0.85326198348E+02  0.39173150271E+03  0.40968357413E+03  0.00000000000E+00 0. -1.
        -13    1    3    3    0    0 -0.16246893794E+03  0.36749148483E+02  0.39780418651E+03  0.43127117515E+03  0.00000000000E+00 0.  1.
         22    1    1    2    0    0  0.24676900063E+03 -0.12207534683E+03  0.33699339309E+03  0.43515730140E+03  0.00000000000E+00 0.  1.
<mgrwt>
<rscale>  0 0.59949495E+03</rscale>
<asrwt>0</asrwt>
<pdfrwt beam="1">  1        2 0.18481853E+00 0.59949495E+03</pdfrwt>
<pdfrwt beam="2">  1       -2 0.11506383E-01 0.59949495E+03</pdfrwt>
<totfact> 0.10434497E+03</totfact>
</mgrwt>
</event>
<event>
 6    1  0.1014650E-006  0.7720170E+04  0.7818608E-02  0.7507405E-01
          2   -1    0    0  501    0  0.00000000000E+00  0.00000000000E+00  0.31522079019E+04  0.31522079019E+04  0.00000000000E+00 0. -1.
         -2   -1    0    0    0  501 -0.00000000000E+00 -0.00000000000E+00 -0.47269266724E+04  0.47269266724E+04  0.00000000000E+00 0.  1.
         23    2    1    2    0    0  0.26011172127E+04 -0.27149010041E+04  0.10206107092E+03  0.37623289130E+04  0.90576882429E+02 0.  0.
         13    1    3    3    0    0  0.54296834185E+03 -0.54109444978E+03 -0.11090043950E+02  0.76662951477E+03  0.00000000000E+00 0.  1.
        -13    1    3    3    0    0  0.20581488708E+04 -0.21738065543E+04  0.11315111487E+03  0.29956993983E+04  0.00000000000E+00 0. -1.
         22    1    1    2    0    0 -0.26011172127E+04  0.27149010041E+04 -0.16767798413E+04  0.41168056612E+04  0.00000000000E+00 0.  1.
<mgrwt>
<rscale>  0 0.77201698E+04</rscale>
<asrwt>0</asrwt>
<pdfrwt beam="1">  1        2 0.48495506E+00 0.77201698E+04</pdfrwt>
<pdfrwt beam="2">  1       -2 0.72721948E+00 0.77201698E+04</pdfrwt>
<totfact> 0.15149165E-04</totfact>
</mgrwt>
</event>
<event>
 6    1  0.1014650E-006  0.1830514E+04  0.7818608E-02  0.8690239E-01
         -1   -1    0    0    0  501 -0.00000000000E+00  0.00000000000E+00  0.47543494400E+03  0.47543494400E+03  0.00000000000E+00 0.  1.
          1   -1    0    0  501    0  0.00000000000E+00 -0.00000000000E+00 -0.17619563706E+04  0.17619563706E+04  0.00000000000E+00 0. -1.
         23    2    1    2    0    0 -0.23645703823E+03  0.34037596646E+03  0.34956528192E+03  0.54962727679E+03  0.90147255067E+02 0.  0.
         11    1    3    3    0    0 -0.13962503802E+03  0.13720706568E+03  0.19702311288E+03  0.27773915302E+03  0.00000000000E+00 0. -1.
        -11    1    3    3    0    0 -0.96832000213E+02  0.20316890078E+03  0.15254216905E+03  0.27188812377E+03  0.00000000000E+00 0.  1.
         22    1    1    2    0    0  0.23645703823E+03 -0.34037596646E+03 -0.16360867086E+04  0.16877640378E+04  0.00000000000E+00 0. -1.
<mgrwt>
<rscale>  0 0.18305143E+04</rscale>
<asrwt>0</asrwt>
<pdfrwt beam="1">  1        1 0.27107020E+00 0.18305143E+04</pdfrwt>
<pdfrwt beam="2">  1       -1 0.73143840E-01 0.18305143E+04</pdfrwt>
<totfact> 0.76667459E+00</totfact>
</mgrwt>
</event>
<event>
 6    1  0.1014650E-006  0.9352728E+03  0.7818608E-02  0.9382532E-01
         -1   -1    0    0    0  501 -0.00000000000E+00  0.00000000000E+00  0.44687288758E+03  0.44687288758E+03  0.00000000000E+00 0.  1.
          1   -1    0    0  501    0  0.00000000000E+00 -0.00000000000E+00 -0.48936461905E+03  0.48936461905E+03  0.00000000000E+00 0. -1.
         23    2    1    2    0    0  0.84061015887E+02 -0.89466447754E+02  0.42566712578E+03  0.45225071416E+03  0.90926931233E+02 0.  0.
         11    1    3    3    0    0  0.41145416802E+02 -0.24825579919E+02  0.30519297512E+03  0.30895308188E+03  0.00000000000E+00 0. -1.
        -11    1    3    3    0    0  0.42915599086E+02 -0.64640867835E+02  0.12047415066E+03  0.14329763228E+03  0.00000000000E+00 0.  1.
         22    1    1    2    0    0 -0.84061015887E+02  0.89466447754E+02 -0.46815885725E+03  0.48398679247E+03  0.00000000000E+00 0. -1.
<mgrwt>
<rscale>  0 0.93527275E+03</rscale>
<asrwt>0</asrwt>
<pdfrwt beam="1">  1        1 0.75286865E-01 0.93527275E+03</pdfrwt>
<pdfrwt beam="2">  1       -1 0.68749675E-01 0.93527275E+03</pdfrwt>
<totfact> 0.98398979E+01</totfact>
</mgrwt>
</event>
<event>
 6    1  0.1014650E-006  0.2621258E+04  0.7818608E-02  0.8361016E-01
          2   -1    0    0  501    0  0.00000000000E+00  0.00000000000E+00  0.25010966830E+04  0.25010966830E+04  0.00000000000E+00 0. -1.
         -2   -1    0    0    0  501 -0.00000000000E+00 -0.00000000000E+00 -0.68679818113E+03  0.68679818113E+03  0.00000000000E+00 0.  1.
         23    2    1    2    0    0  0.13031702028E+04  0.35636813614E+02  0.10542733193E+04  0.16788684104E+04  0.87088160093E+02 0.  0.
         11    1    3    3    0    0  0.59167827541E+03  0.44745618214E+02  0.52145247354E+03  0.78993546198E+03  0.00000000000E+00 0.  1.
        -11    1    3    3    0    0  0.71149192741E+03 -0.91088046004E+01  0.53282084578E+03  0.88893294842E+03  0.00000000000E+00 0. -1.
         22    1    1    2    0    0 -0.13031702028E+04 -0.35636813614E+02  0.76002518256E+03  0.15090264537E+04  0.00000000000E+00 0.  1.
<mgrwt>
<rscale>  0 0.26212582E+04</rscale>
<asrwt>0</asrwt>
<pdfrwt beam="1">  1        2 0.38478410E+00 0.26212582E+04</pdfrwt>
<pdfrwt beam="2">  1       -2 0.10566126E+00 0.26212582E+04</pdfrwt>
<totfact> 0.22219362E+00</totfact>
</mgrwt>
</event>
<event>
 6    1  0.1014650E-006  0.1640959E+04  0.7818608E-02  0.8795773E-01
         -1   -1    0    0    0  501 -0.00000000000E+00  0.00000000000E+00  0.65747127594E+03  0.65747127594E+03  0.00000000000E+00 0.  1.
          1   -1    0    0  501    0  0.00000000000E+00 -0.00000000000E+00 -0.10239024645E+04  0.10239024645E+04  0.00000000000E+00 0. -1.
         23    2    1    2    0    0 -0.54525285193E+03 -0.49667519519E+03 -0.54634732608E+03  0.92219211623E+03  0.89196280590E+02 0.  0.
         13    1    3    3    0    0 -0.35513903828E+03 -0.28607893594E+03 -0.29479406566E+03  0.54301789589E+03  0.00000000000E+00 0.  1.
        -13    1    3    3    0    0 -0.19011381364E+03 -0.21059625925E+03 -0.25155326042E+03  0.37917422035E+03  0.00000000000E+00 0. -1.
         22    1    1    2    0    0  0.54525285193E+03  0.49667519519E+03  0.17991613749E+03  0.75918162424E+03  0.00000000000E+00 0.  1.
<mgrwt>
<rscale>  0 0.16409588E+04</rscale>
<asrwt>0</asrwt>
<pdfrwt beam="1">  1        1 0.15752346E+00 0.16409588E+04</pdfrwt>
<pdfrwt beam="2">  1       -1 0.10114943E+00 0.16409588E+04</pdfrwt>
<totfact> 0.12872665E+01</totfact>
</mgrwt>
</event>
<event>
 6    1  0.1014650E-006  0.4538586E+03  0.7818608E-02  0.1026578E+00
         -2   -1    0    0    0  501 -0.00000000000E+00  0.00000000000E+00  0.20167431721E+02  0.20167431721E+02  0.00000000000E+00 0.  1.
          2   -1    0    0  501    0  0.00000000000E+00 -0.00000000000E+00 -0.25534692693E+04  0.25534692693E+04  0.00000000000E+00 0. -1.
         23    2    1    2    0    0 -0.66381311556E+02 -0.31488939411E+02 -0.24803502721E+04  0.24830723586E+04  0.90071271463E+02 0.  0.
         11    1    3    3    0    0 -0.71776194440E+02 -0.36006771502E+02 -0.11915087846E+04  0.11942116619E+04  0.00000000000E+00 0. -1.
        -11    1    3    3    0    0  0.53948828847E+01  0.45178320910E+01 -0.12888414875E+04  0.12888606967E+04  0.00000000000E+00 0.  1.
         22    1    1    2    0    0  0.66381311556E+02  0.31488939411E+02 -0.52951565464E+02  0.90564342399E+02  0.00000000000E+00 0.  1.
<mgrwt>
<rscale>  0 0.45385864E+03</rscale>
<asrwt>0</asrwt>
<pdfrwt beam="1">  1        2 0.39284168E+00 0.45385864E+03</pdfrwt>
<pdfrwt beam="2">  1       -2 0.31026798E-02 0.45385864E+03</pdfrwt>
<totfact> 0.14811482E+03</totfact>
</mgrwt>
</event>
<event>
 6    1  0.1014650E-006  0.1430614E+04  0.7818608E-02  0.8931952E-01
          2   -1    0    0  501    0  0.00000000000E+00  0.00000000000E+00  0.44639772565E+04  0.44639772565E+04  0.00000000000E+00 0. -1.
         -2   -1    0    0    0  501 -0.00000000000E+00 -0.00000000000E+00 -0.11462070567E+03  0.11462070567E+03  0.00000000000E+00 0.  1.
         23    2    1    2    0    0  0.42502712225E+02 -0.44253228168E+03  0.39650676123E+04  0.39909592218E+04  0.91394963657E+02 0.  0.
         13    1    3    3    0    0 -0.58468980424E+01 -0.28380103399E+03  0.22354623359E+04  0.22534127603E+04  0.00000000000E+00 0. -1.
        -13    1    3    3    0    0  0.48349610267E+02 -0.15873124768E+03  0.17296052764E+04  0.17375464615E+04  0.00000000000E+00 0.  1.
         22    1    1    2    0    0 -0.42502712225E+02  0.44253228168E+03  0.38428893856E+03  0.58763874036E+03  0.00000000000E+00 0.  1.
<mgrwt>
<rscale>  0 0.14306142E+04</rscale>
<asrwt>0</asrwt>
<pdfrwt beam="1">  1        2 0.68676560E+00 0.14306142E+04</pdfrwt>
<pdfrwt beam="2">  1       -2 0.17633958E-01 0.14306142E+04</pdfrwt>
<totfact> 0.35857620E+00</totfact>
</mgrwt>
</event>
<event>
 6    1  0.1014650E-006  0.2237182E+04  0.7818608E-02  0.8503110E-01
          1   -1    0    0  501    0  0.00000000000E+00  0.00000000000E+00  0.97651712365E+03  0.97651712365E+03  0.00000000000E+00 0. -1.
         -1   -1    0    0    0  501 -0.00000000000E+00 -0.00000000000E+00 -0.12813352785E+04  0.12813352785E+04  0.00000000000E+00 0.  1.
         23    2    1    2    0    0  0.10361874479E+03  0.78975369753E+03 -0.94253673745E+03  0.12374932802E+04  0.92554687069E+02 0.  0.
         13    1    3    3    0    0  0.78896386171E+01  0.22281674097E+03 -0.21021251211E+03  0.30642918710E+03  0.00000000000E+00 0. -1.
        -13    1    3    3    0    0  0.95729106177E+02  0.56693695655E+03 -0.73232422534E+03  0.93106409312E+03  0.00000000000E+00 0.  1.
         22    1    1    2    0    0 -0.10361874479E+03 -0.78975369753E+03  0.63771858263E+03  0.10203591219E+04  0.00000000000E+00 0. -1.
<mgrwt>
<rscale>  0 0.22371820E+04</rscale>
<asrwt>0</asrwt>
<pdfrwt beam="1">  1        1 0.15023340E+00 0.22371820E+04</pdfrwt>
<pdfrwt beam="2">  1       -1 0.19712850E+00 0.22371820E+04</pdfrwt>
<totfact> 0.22606018E+00</totfact>
</mgrwt>
</event>
<event>
 6    1  0.1014650E-006  0.1777434E+04  0.7818608E-02  0.8718393E-01
          2   -1    0    0  501    0  0.00000000000E+00  0.00000000000E+00  0.34491295989E+04  0.34491295989E+04  0.00000000000E+00 0. -1.
         -2   -1    0    0    0  501 -0.00000000000E+00 -0.00000000000E+00 -0.22899048300E+03  0.22899048300E+03  0.00000000000E+00 0.  1.
         23    2    1    2    0    0 -0.24237765274E+02 -0.84822173661E+03  0.21445077835E+04  0.23080652119E+04  0.90464384817E+02 0.  0.
         11    1    3    3    0    0 -0.50862670897E+02 -0.58073406069E+03  0.15321062129E+04  0.16392646242E+04  0.00000000000E+00 0. -1.
        -11    1    3    3    0    0  0.26624905623E+02 -0.26748767592E+03  0.61240157066E+03  0.66880058771E+03  0.00000000000E+00 0.  1.
         22    1    1    2    0    0  0.24237765274E+02  0.84822173661E+03  0.10756313324E+04  0.13700548701E+04  0.00000000000E+00 0. -1.
<mgrwt>
<rscale>  0 0.17774339E+04</rscale>
<asrwt>0</asrwt>
<pdfrwt beam="1">  1        2 0.53063529E+00 0.17774339E+04</pdfrwt>
<pdfrwt beam="2">  1       -2 0.35229308E-01 0.17774339E+04</pdfrwt>
<totfact> 0.63623777E+00</totfact>
</mgrwt>
</event>
<event>
 6    1  0.1014650E-006  0.2348095E+04  0.7818608E-02  0.8459196E-01
          2   -1    0    0  501    0  0.00000000000E+00  0.00000000000E+00  0.45632903991E+03  0.45632903991E+03  0.00000000000E+00 0. -1.
         -2   -1    0    0    0  501 -0.00000000000E+00 -0.00000000000E+00 -0.30206005235E+04  0.30206005235E+04  0.00000000000E+00 0.  1.
         23    2    1    2    0    0 -0.39006358588E+03  0.90602360019E+03 -0.22218628885E+04  0.24327686510E+04  0.93060456772E+02 0.  0.
         11    1    3    3    0    0 -0.19519022866E+03  0.40201420038E+03 -0.11087155674E+04  0.11953931789E+04  0.00000000000E+00 0.  1.
        -11    1    3    3    0    0 -0.19487335721E+03  0.50400939981E+03 -0.11131473211E+04  0.12373754721E+04  0.00000000000E+00 0. -1.
         22    1    1    2    0    0  0.39006358588E+03 -0.90602360019E+03 -0.34240859509E+03  0.10441609125E+04  0.00000000000E+00 0. -1.
<mgrwt>
<rscale>  0 0.23480952E+04</rscale>
<asrwt>0</asrwt>
<pdfrwt beam="1">  1        2 0.70204470E-01 0.23480952E+04</pdfrwt>
<pdfrwt beam="2">  1       -2 0.46470776E+00 0.23480952E+04</pdfrwt>
<totfact> 0.17142870E-01</totfact>
</mgrwt>
</event>
<event>
 6    1  0.1014650E-006  0.3458254E+04  0.7818608E-02  0.8123755E-01
         -2   -1    0    0    0  501 -0.00000000000E+00  0.00000000000E+00  0.20960248204E+04  0.20960248204E+04  0.00000000000E+00 0.  1.
          2   -1    0    0  501    0  0.00000000000E+00 -0.00000000000E+00 -0.14264524840E+04  0.14264524840E+04  0.00000000000E+00 0. -1.
         23    2    1    2    0    0 -0.34196820633E+03 -0.12556104987E+04 -0.82286538763E+03  0.15423585355E+04  0.90897895028E+02 0.  0.
         13    1    3    3    0    0 -0.83900059790E+02 -0.20890353225E+03 -0.16917252236E+03  0.28160122184E+03  0.00000000000E+00 0.  1.
        -13    1    3    3    0    0 -0.25806814654E+03 -0.10467069665E+04 -0.65369286526E+03  0.12607573137E+04  0.00000000000E+00 0. -1.
         22    1    1    2    0    0  0.34196820633E+03  0.12556104987E+04  0.14924377241E+04  0.19801187689E+04  0.00000000000E+00 0.  1.
<mgrwt>
<rscale>  0 0.34582538E+04</rscale>
<asrwt>0</asrwt>
<pdfrwt beam="1">  1        2 0.21945423E+00 0.34582538E+04</pdfrwt>
<pdfrwt beam="2">  1       -2 0.32246536E+00 0.34582538E+04</pdfrwt>
<totfact> 0.26632232E-01</totfact>
</mgrwt>
</event>
<event>
 6    1  0.1014650E-006  0.1645309E+04  0.7818608E-02  0.8793187E-01
         -1   -1    0    0    0  501 -0.00000000000E+00  0.00000000000E+00  0.24686484576E+03  0.24686484576E+03  0.00000000000E+00 0.  1.
          1   -1    0    0  501    0  0.00000000000E+00 -0.00000000000E+00 -0.27414201741E+04  0.27414201741E+04  0.00000000000E+00 0. -1.
         23    2    1    2    0    0 -0.41444065989E+03  0.32594808123E+03 -0.11014463763E+03  0.54627405465E+03  0.90996095275E+02 0.  0.
         13    1    3    3    0    0 -0.32437329342E+03  0.23950946343E+03 -0.12096903313E+03  0.42097069201E+03  0.00000000000E+00 0.  1.
        -13    1    3    3    0    0 -0.90067366478E+02  0.86438617800E+02  0.10824395500E+02  0.12530336264E+03  0.00000000000E+00 0. -1.
         22    1    1    2    0    0  0.41444065989E+03 -0.32594808123E+03 -0.23844106907E+04  0.24420109652E+04  0.00000000000E+00 0. -1.
<mgrwt>
<rscale>  0 0.16453088E+04</rscale>
<asrwt>0</asrwt>
<pdfrwt beam="1">  1        1 0.42175696E+00 0.16453088E+04</pdfrwt>
<pdfrwt beam="2">  1       -1 0.37979207E-01 0.16453088E+04</pdfrwt>
<totfact> 0.58885267E+00</totfact>
</mgrwt>
</event>
<event>
 6    1  0.1014650E-006  0.3859018E+04  0.7818608E-02  0.8033607E-01
         -2   -1    0    0    0  501 -0.00000000000E+00  0.00000000000E+00  0.19751126798E+04  0.19751126798E+04  0.00000000000E+00 0.  1.
          2   -1    0    0  501    0  0.00000000000E+00 -0.00000000000E+00 -0.18849583358E+04  0.18849583358E+04  0.00000000000E+00 0. -1.
         23    2    1    2    0    0 -0.95892612587E+03  0.15955007624E+04 -0.45872458851E+03  0.19193417506E+04  0.91008296882E+02 0.  0.
         11    1    3    3    0    0 -0.68646029803E+03  0.11378226137E+04 -0.36954178077E+03  0.13792857459E+04  0.00000000000E+00 0.  1.
        -11    1    3    3    0    0 -0.27246582783E+03  0.45767814864E+03 -0.89182807740E+02  0.54005600476E+03  0.00000000000E+00 0. -1.
         22    1    1    2    0    0  0.95892612587E+03 -0.15955007624E+04  0.54887893253E+03  0.19407292650E+04  0.00000000000E+00 0.  1.
<mgrwt>
<rscale>  0 0.38590181E+04</rscale>
<asrwt>0</asrwt>
<pdfrwt beam="1">  1        2 0.28999359E+00 0.38590181E+04</pdfrwt>
<pdfrwt beam="2">  1       -2 0.30386349E+00 0.38590181E+04</pdfrwt>
<totfact> 0.18590132E-01</totfact>
</mgrwt>
</event>
<event>
 6    1  0.1014650E-006  0.2707498E+04  0.7818608E-02  0.8332576E-01
          1   -1    0    0  501    0  0.00000000000E+00  0.00000000000E+00  0.14672327932E+04  0.14672327932E+04  0.00000000000E+00 0. -1.
         -1   -1    0    0    0  501 -0.00000000000E+00 -0.00000000000E+00 -0.12490422716E+04  0.12490422716E+04  0.00000000000E+00 0.  1.
         23    2    1    2    0    0 -0.12170645101E+04  0.54592187757E+03  0.33188450637E+03  0.13775431870E+04  0.90560412851E+02 0.  0.
         11    1    3    3    0    0 -0.28590270106E+03  0.10582417326E+03  0.43058604876E+02  0.30788496809E+03  0.00000000000E+00 0. -1.
        -11    1    3    3    0    0 -0.93116180904E+03  0.44009770431E+03  0.28882590150E+03  0.10696582189E+04  0.00000000000E+00 0.  1.
         22    1    1    2    0    0  0.12170645101E+04 -0.54592187757E+03 -0.11369398477E+03  0.13387318777E+04  0.00000000000E+00 0. -1.
<mgrwt>
<rscale>  0 0.27074976E+04</rscale>
<asrwt>0</asrwt>
<pdfrwt beam="1">  1        1 0.22572812E+00 0.27074976E+04</pdfrwt>
<pdfrwt beam="2">  1       -1 0.19216035E+00 0.27074976E+04</pdfrwt>
<totfact> 0.10265796E+00</totfact>
</mgrwt>
</event>
<event>
 6    1  0.1014650E-006  0.4394892E+04  0.7818608E-02  0.7929301E-01
         -2   -1    0    0    0  501 -0.00000000000E+00  0.00000000000E+00  0.28369545020E+04  0.28369545020E+04  0.00000000000E+00 0.  1.
          2   -1    0    0  501    0  0.00000000000E+00 -0.00000000000E+00 -0.17020963632E+04  0.17020963632E+04  0.00000000000E+00 0. -1.
         23    2    1    2    0    0 -0.91541640121E+03  0.19699631240E+04  0.90350731947E+03  0.23544994012E+04  0.92736489496E+02 0.  0.
         13    1    3    3    0    0 -0.45946135020E+03  0.10214412568E+04  0.41786757099E+03  0.11954330932E+04  0.00000000000E+00 0.  1.
        -13    1    3    3    0    0 -0.45595505101E+03  0.94852186724E+03  0.48563974848E+03  0.11590663081E+04  0.00000000000E+00 0. -1.
         22    1    1    2    0    0  0.91541640121E+03 -0.19699631240E+04  0.23135081933E+03  0.21845514641E+04  0.00000000000E+00 0. -1.
<mgrwt>
<rscale>  0 0.43948925E+04</rscale>
<asrwt>0</asrwt>
<pdfrwt beam="1">  1        2 0.26186098E+00 0.43948925E+04</pdfrwt>
<pdfrwt beam="2">  1       -2 0.43645454E+00 0.43948925E+04</pdfrwt>
<totfact> 0.31910349E-02</totfact>
</mgrwt>
</event>
<event>
 6    1  0.1014650E-006  0.1446043E+04  0.7818608E-02  0.8921148E-01
          2   -1    0    0  501    0  0.00000000000E+00  0.00000000000E+00  0.21018015514E+04  0.21018015514E+04  0.00000000000E+00 0. -1.
         -2   -1    0    0    0  501 -0.00000000000E+00 -0.00000000000E+00 -0.24871996162E+03  0.24871996162E+03  0.00000000000E+00 0.  1.
         23    2    1    2    0    0  0.22770228464E+03  0.32388349773E+03  0.19080736608E+04  0.19508053907E+04  0.90264759003E+02 0.  0.
         11    1    3    3    0    0  0.19322910550E+03  0.20643877214E+03  0.12698963412E+04  0.13009962226E+04  0.00000000000E+00 0. -1.
        -11    1    3    3    0    0  0.34473179141E+02  0.11744472558E+03  0.63817731964E+03  0.64980916810E+03  0.00000000000E+00 0.  1.
         22    1    1    2    0    0 -0.22770228464E+03 -0.32388349773E+03 -0.54992071085E+02  0.39971612228E+03  0.00000000000E+00 0.  1.
<mgrwt>
<rscale>  0 0.14460429E+04</rscale>
<asrwt>0</asrwt>
<pdfrwt beam="1">  1        2 0.32335407E+00 0.14460429E+04</pdfrwt>
<pdfrwt beam="2">  1       -2 0.38264611E-01 0.14460429E+04</pdfrwt>
<totfact> 0.36707808E+01</totfact>
</mgrwt>
</event>
<event>
 6    1  0.1014650E-006  0.5250070E+04  0.7818608E-02  0.7791048E-01
         -2   -1    0    0    0  501 -0.00000000000E+00  0.00000000000E+00  0.20985653489E+04  0.20985653489E+04  0.00000000000E+00 0.  1.
          2   -1    0    0  501    0  0.00000000000E+00 -0.00000000000E+00 -0.32835810508E+04  0.32835810508E+04  0.00000000000E+00 0. -1.
         23    2    1    2    0    0  0.12207092457E+04  0.15300716880E+04  0.11991660308E+04  0.22974141638E+04  0.94139458113E+02 0.  0.
         13    1    3    3    0    0  0.60951689687E+03  0.78439879902E+03  0.55539488141E+03  0.11380930532E+04  0.00000000000E+00 0.  1.
        -13    1    3    3    0    0  0.61119234880E+03  0.74567288898E+03  0.64377114941E+03  0.11593211106E+04  0.00000000000E+00 0. -1.
         22    1    1    2    0    0 -0.12207092457E+04 -0.15300716880E+04 -0.23841817328E+04  0.30847322360E+04  0.00000000000E+00 0. -1.
<mgrwt>
<rscale>  0 0.52500703E+04</rscale>
<asrwt>0</asrwt>
<pdfrwt beam="1">  1        2 0.50516631E+00 0.52500703E+04</pdfrwt>
<pdfrwt beam="2">  1       -2 0.32285621E+00 0.52500703E+04</pdfrwt>
<totfact> 0.18720999E-02</totfact>
</mgrwt>
</event>
<event>
 6    1  0.1014650E-006  0.5179285E+03  0.7818608E-02  0.1009202E+00
          2   -1    0    0  501    0  0.00000000000E+00  0.00000000000E+00  0.15431475857E+04  0.15431475857E+04  0.00000000000E+00 0. -1.
         -2   -1    0    0    0  501 -0.00000000000E+00 -0.00000000000E+00 -0.43458236264E+02  0.43458236264E+02  0.00000000000E+00 0.  1.
         23    2    1    2    0    0 -0.17684064501E+03  0.13648186067E+03  0.11225235751E+04  0.11482521595E+04  0.92325149593E+02 0.  0.
         13    1    3    3    0    0 -0.26623003173E+01  0.36902731455E+02  0.11041684598E+03  0.11645075916E+03  0.00000000000E+00 0.  1.
        -13    1    3    3    0    0 -0.17417834469E+03  0.99579129216E+02  0.10121067291E+04  0.10318014004E+04  0.00000000000E+00 0. -1.
         22    1    1    2    0    0  0.17684064501E+03 -0.13648186067E+03  0.37716577436E+03  0.43835366243E+03  0.00000000000E+00 0.  1.
<mgrwt>
<rscale>  0 0.51792846E+03</rscale>
<asrwt>0</asrwt>
<pdfrwt beam="1">  1        2 0.23740728E+00 0.51792846E+03</pdfrwt>
<pdfrwt beam="2">  1       -2 0.66858837E-02 0.51792846E+03</pdfrwt>
<totfact> 0.16040020E+03</totfact>
</mgrwt>
</event>
<event>
 6    1  0.1014650E-006  0.1503281E+04  0.7818608E-02  0.8882274E-01
          2   -1    0    0  501    0  0.00000000000E+00  0.00000000000E+00  0.65336613635E+03  0.65336613635E+03  0.00000000000E+00 0. -1.
         -2   -1    0    0    0  501 -0.00000000000E+00 -0.00000000000E+00 -0.86469646065E+03  0.86469646065E+03  0.00000000000E+00 0.  1.
         23    2    1    2    0    0  0.21120579901E+03  0.71735458086E+02  0.61579542461E+03  0.66138828899E+03  0.92068443938E+02 0.  0.
         13    1    3    3    0    0  0.11133192931E+03 -0.10395045911E+02  0.29858288740E+03  0.31883317913E+03  0.00000000000E+00 0. -1.
        -13    1    3    3    0    0  0.99873869708E+02  0.82130503997E+02  0.31721253720E+03  0.34255510987E+03  0.00000000000E+00 0.  1.
         22    1    1    2    0    0 -0.21120579901E+03 -0.71735458086E+02 -0.82712574891E+03  0.85667430800E+03  0.00000000000E+00 0.  1.
<mgrwt>
<rscale>  0 0.15032809E+04</rscale>
<asrwt>0</asrwt>
<pdfrwt beam="1">  1        2 0.10051787E+00 0.15032809E+04</pdfrwt>
<pdfrwt beam="2">  1       -2 0.13303022E+00 0.15032809E+04</pdfrwt>
<totfact> 0.17668973E+01</totfact>
</mgrwt>
</event>
<event>
 6    1  0.1014650E-006  0.3897384E+04  0.7818608E-02  0.8025573E-01
          2   -1    0    0  501    0  0.00000000000E+00  0.00000000000E+00  0.25525397323E+04  0.25525397323E+04  0.00000000000E+00 0. -1.
         -2   -1    0    0    0  501 -0.00000000000E+00 -0.00000000000E+00 -0.14876952733E+04  0.14876952733E+04  0.00000000000E+00 0.  1.
         23    2    1    2    0    0 -0.87486765430E+03  0.28029164383E+03 -0.12476194855E+04  0.15519733007E+04  0.90055134926E+02 0.  0.
         13    1    3    3    0    0 -0.59610658317E+03  0.15878041294E+03 -0.88382561015E+03  0.10778227995E+04  0.00000000000E+00 0.  1.
        -13    1    3    3    0    0 -0.27876107113E+03  0.12151123089E+03 -0.36379387533E+03  0.47415050115E+03  0.00000000000E+00 0. -1.
         22    1    1    2    0    0  0.87486765430E+03 -0.28029164383E+03  0.23124639444E+04  0.24882617050E+04  0.00000000000E+00 0. -1.
<mgrwt>
<rscale>  0 0.38973844E+04</rscale>
<asrwt>0</asrwt>
<pdfrwt beam="1">  1        2 0.39269842E+00 0.38973844E+04</pdfrwt>
<pdfrwt beam="2">  1       -2 0.22887620E+00 0.38973844E+04</pdfrwt>
<totfact> 0.22424995E-01</totfact>
</mgrwt>
</event>
<event>
 6    1  0.1014650E-006  0.2623611E+04  0.7818608E-02  0.8360225E-01
          2   -1    0    0  501    0  0.00000000000E+00  0.00000000000E+00  0.11678540183E+04  0.11678540183E+04  0.00000000000E+00 0. -1.
         -2   -1    0    0    0  501 -0.00000000000E+00 -0.00000000000E+00 -0.14735005272E+04  0.14735005272E+04  0.00000000000E+00 0.  1.
         23    2    1    2    0    0  0.63118335134E+03  0.74601973942E+03 -0.10317235587E+04  0.14239286723E+04  0.90451575888E+02 0.  0.
         11    1    3    3    0    0  0.87517172928E+02  0.13727209041E+03 -0.21047580520E+03  0.26608823149E+03  0.00000000000E+00 0. -1.
        -11    1    3    3    0    0  0.54366617841E+03  0.60874764901E+03 -0.82124775351E+03  0.11578404408E+04  0.00000000000E+00 0.  1.
         22    1    1    2    0    0 -0.63118335134E+03 -0.74601973942E+03  0.72607704982E+03  0.12174258733E+04  0.00000000000E+00 0. -1.
<mgrwt>
<rscale>  0 0.26236109E+04</rscale>
<asrwt>0</asrwt>
<pdfrwt beam="1">  1        2 0.17966985E+00 0.26236109E+04</pdfrwt>
<pdfrwt beam="2">  1       -2 0.22669239E+00 0.26236109E+04</pdfrwt>
<totfact> 0.15677884E+00</totfact>
</mgrwt>
</event>
<event>
 6    1  0.1014650E-006  0.3240616E+04  0.7818608E-02  0.8178172E-01
         -2   -1    0    0    0  501 -0.00000000000E+00  0.00000000000E+00  0.14169414909E+04  0.14169414909E+04  0.00000000000E+00 0.  1.
          2   -1    0    0  501    0  0.00000000000E+00 -0.00000000000E+00 -0.18528628672E+04  0.18528628672E+04  0.00000000000E+00 0. -1.
         23    2    1    2    0    0 -0.13907804330E+04 -0.81107488649E+03 -0.45878007558E+02  0.16132276126E+04  0.91026667893E+02 0.  0.
         13    1    3    3    0    0 -0.13358472297E+04 -0.79378857220E+03 -0.33145135066E+02  0.15542479591E+04  0.00000000000E+00 0. -1.
        -13    1    3    3    0    0 -0.54933203262E+02 -0.17286314286E+02 -0.12732872492E+02  0.58979653476E+02  0.00000000000E+00 0.  1.
         22    1    1    2    0    0  0.13907804330E+04  0.81107488649E+03 -0.39004336868E+03  0.16565767455E+04  0.00000000000E+00 0.  1.
<mgrwt>
<rscale>  0 0.32406162E+04</rscale>
<asrwt>0</asrwt>
<pdfrwt beam="1">  1        2 0.28505582E+00 0.32406162E+04</pdfrwt>
<pdfrwt beam="2">  1       -2 0.21799100E+00 0.32406162E+04</pdfrwt>
<totfact> 0.68897529E-01</totfact>
</mgrwt>
</event>
<event>
 6    1  0.1014650E-006  0.1934415E+04  0.7818608E-02  0.8637913E-01
         -2   -1    0    0    0  501 -0.00000000000E+00  0.00000000000E+00  0.12592299963E+04  0.12592299963E+04  0.00000000000E+00 0.  1.
          2   -1    0    0  501    0  0.00000000000E+00 -0.00000000000E+00 -0.74290683516E+03  0.74290683516E+03  0.00000000000E+00 0. -1.
         23    2    1    2    0    0 -0.96423726426E+03 -0.15598929271E+01  0.22250905082E+03  0.99412757234E+03  0.94991669907E+02 0.  0.
         11    1    3    3    0    0 -0.42586417410E+03  0.61908945109E+01  0.50510485216E+02  0.42889384592E+03  0.00000000000E+00 0. -1.
        -11    1    3    3    0    0 -0.53837309016E+03 -0.77507874379E+01  0.17199856561E+03  0.56523372642E+03  0.00000000000E+00 0.  1.
         22    1    1    2    0    0  0.96423726426E+03  0.15598929271E+01  0.29381411033E+03  0.10080092591E+04  0.00000000000E+00 0.  1.
<mgrwt>
<rscale>  0 0.19344152E+04</rscale>
<asrwt>0</asrwt>
<pdfrwt beam="1">  1        2 0.11429336E+00 0.19344152E+04</pdfrwt>
<pdfrwt beam="2">  1       -2 0.19372769E+00 0.19344152E+04</pdfrwt>
<totfact> 0.51860380E+00</totfact>
</mgrwt>
</event>
<event>
 6    1  0.1014650E-006  0.1701785E+04  0.7818608E-02  0.8760347E-01
          1   -1    0    0  501    0  0.00000000000E+00  0.00000000000E+00  0.76553218719E+03  0.76553218719E+03  0.00000000000E+00 0. -1.
         -1   -1    0    0    0  501 -0.00000000000E+00 -0.00000000000E+00 -0.94577037845E+03  0.94577037845E+03  0.00000000000E+00 0.  1.
         23    2    1    2    0    0  0.64833699706E+03 -0.49931968596E+03 -0.31531248989E+03  0.88190153073E+03  0.93098512732E+02 0.  0.
         11    1    3    3    0    0  0.26617168682E+03 -0.23994423036E+03 -0.17749341226E+03  0.39990562880E+03  0.00000000000E+00 0.  1.
        -11    1    3    3    0    0  0.38216531024E+03 -0.25937545560E+03 -0.13781907763E+03  0.48199590193E+03  0.00000000000E+00 0. -1.
         22    1    1    2    0    0 -0.64833699706E+03  0.49931968596E+03  0.13507429864E+03  0.82940103491E+03  0.00000000000E+00 0. -1.
<mgrwt>
<rscale>  0 0.17017846E+04</rscale>
<asrwt>0</asrwt>
<pdfrwt beam="1">  1        1 0.11777418E+00 0.17017846E+04</pdfrwt>
<pdfrwt beam="2">  1       -1 0.14550313E+00 0.17017846E+04</pdfrwt>
<totfact> 0.85437420E+00</totfact>
</mgrwt>
</event>
<event>
 6    1  0.1014650E-006  0.3149017E+04  0.7818608E-02  0.8202413E-01
         -2   -1    0    0    0  501 -0.00000000000E+00  0.00000000000E+00  0.48410196739E+03  0.48410196739E+03  0.00000000000E+00 0.  1.
          2   -1    0    0  501    0  0.00000000000E+00 -0.00000000000E+00 -0.51209804294E+04  0.51209804294E+04  0.00000000000E+00 0. -1.
         23    2    1    2    0    0  0.28580916480E+02 -0.52175638737E+03 -0.49616119142E+04  0.49898601512E+04  0.89805036683E+02 0.  0.
         11    1    3    3    0    0  0.49587684434E+02 -0.25504322539E+03 -0.21869609972E+04  0.22023406613E+04  0.00000000000E+00 0. -1.
        -11    1    3    3    0    0 -0.21006767953E+02 -0.26671316198E+03 -0.27746509170E+04  0.27875194899E+04  0.00000000000E+00 0.  1.
         22    1    1    2    0    0 -0.28580916480E+02  0.52175638737E+03  0.32473345218E+03  0.61522224563E+03  0.00000000000E+00 0.  1.
<mgrwt>
<rscale>  0 0.31490168E+04</rscale>
<asrwt>0</asrwt>
<pdfrwt beam="1">  1        2 0.78784317E+00 0.31490168E+04</pdfrwt>
<pdfrwt beam="2">  1       -2 0.74477223E-01 0.31490168E+04</pdfrwt>
<totfact> 0.32544893E-02</totfact>
</mgrwt>
</event>
<event>
 6    1  0.1014650E-006  0.4397822E+04  0.7818608E-02  0.7928773E-01
          4   -1    0    0  501    0  0.00000000000E+00  0.00000000000E+00  0.41128961117E+04  0.41128961117E+04  0.00000000000E+00 0. -1.
         -4   -1    0    0    0  501 -0.00000000000E+00 -0.00000000000E+00 -0.11756217787E+04  0.11756217787E+04  0.00000000000E+00 0.  1.
         23    2    1    2    0    0 -0.97542830420E+03 -0.64903926887E+03  0.37055810788E+04  0.38874441575E+04  0.90435596436E+02 0.  0.
         13    1    3    3    0    0 -0.76943703643E+03 -0.47443661266E+03  0.29230776254E+04  0.30596578659E+04  0.00000000000E+00 0.  1.
        -13    1    3    3    0    0 -0.20599126778E+03 -0.17460265621E+03  0.78250345343E+03  0.82778629162E+03  0.00000000000E+00 0. -1.
         22    1    1    2    0    0  0.97542830420E+03  0.64903926887E+03 -0.76830674580E+03  0.14010737328E+04  0.00000000000E+00 0.  1.
<mgrwt>
<rscale>  0 0.43978223E+04</rscale>
<asrwt>0</asrwt>
<pdfrwt beam="1">  1        4 0.63275324E+00 0.43978223E+04</pdfrwt>
<pdfrwt beam="2">  1       -4 0.18086489E+00 0.43978223E+04</pdfrwt>
<totfact> 0.22060234E-05</totfact>
</mgrwt>
</event>
<event>
 6    1  0.1014650E-006  0.4508290E+04  0.7818608E-02  0.7909187E-01
         -2   -1    0    0    0  501 -0.00000000000E+00  0.00000000000E+00  0.16905629433E+04  0.16905629433E+04  0.00000000000E+00 0.  1.
          2   -1    0    0  501    0  0.00000000000E+00 -0.00000000000E+00 -0.30056083437E+04  0.30056083437E+04  0.00000000000E+00 0. -1.
         23    2    1    2    0    0  0.11567433921E+04  0.17608750670E+04  0.17433374698E+03  0.21160576225E+04  0.92581475351E+02 0.  0.
         11    1    3    3    0    0  0.49897799390E+03  0.69882779534E+03  0.39994939064E+02  0.85961556588E+03  0.00000000000E+00 0.  1.
        -11    1    3    3    0    0  0.65776539821E+03  0.10620472717E+04  0.13433880792E+03  0.12564420566E+04  0.00000000000E+00 0. -1.
         22    1    1    2    0    0 -0.11567433921E+04 -0.17608750670E+04 -0.14893791475E+04  0.25801136645E+04  0.00000000000E+00 0. -1.
<mgrwt>
<rscale>  0 0.45082902E+04</rscale>
<asrwt>0</asrwt>
<pdfrwt beam="1">  1        2 0.46240128E+00 0.45082902E+04</pdfrwt>
<pdfrwt beam="2">  1       -2 0.26008661E+00 0.45082902E+04</pdfrwt>
<totfact> 0.72834925E-02</totfact>
</mgrwt>
</event>
<event>
 6    1  0.1014650E-006  0.1167338E+04  0.7818608E-02  0.9141936E-01
          2   -1    0    0  501    0  0.00000000000E+00  0.00000000000E+00  0.18912233311E+04  0.18912233311E+04  0.00000000000E+00 0. -1.
         -2   -1    0    0    0  501 -0.00000000000E+00 -0.00000000000E+00 -0.18013176326E+03  0.18013176326E+03  0.00000000000E+00 0.  1.
         23    2    1    2    0    0  0.31507314163E+03  0.40459391799E+03  0.13420110896E+04  0.14395420505E+04  0.91215280298E+02 0.  0.
         11    1    3    3    0    0  0.11663474584E+03  0.22117418911E+03  0.61092633868E+03  0.66011565438E+03  0.00000000000E+00 0.  1.
        -11    1    3    3    0    0  0.19843839579E+03  0.18341972888E+03  0.73108475092E+03  0.77942639608E+03  0.00000000000E+00 0. -1.
         22    1    1    2    0    0 -0.31507314163E+03 -0.40459391799E+03  0.36908047827E+03  0.63181304394E+03  0.00000000000E+00 0. -1.
<mgrwt>
<rscale>  0 0.11673378E+04</rscale>
<asrwt>0</asrwt>
<pdfrwt beam="1">  1        2 0.29095742E+00 0.11673378E+04</pdfrwt>
<pdfrwt beam="2">  1       -2 0.27712580E-01 0.11673378E+04</pdfrwt>
<totfact> 0.90290696E+01</totfact>
</mgrwt>
</event>
<event>
 6    1  0.1014650E-006  0.2041675E+04  0.7818608E-02  0.8587380E-01
         -1   -1    0    0    0  501 -0.00000000000E+00  0.00000000000E+00  0.10249835004E+04  0.10249835004E+04  0.00000000000E+00 0.  1.
          1   -1    0    0  501    0  0.00000000000E+00 -0.00000000000E+00 -0.10167086154E+04  0.10167086154E+04  0.00000000000E+00 0. -1.
         23    2    1    2    0    0 -0.58492187267E+03 -0.42721216130E+03  0.72087039093E+03  0.10256034469E+04  0.86974029708E+02 0.  0.
         11    1    3    3    0    0 -0.48589445232E+03 -0.31674663111E+03  0.59659986607E+03  0.83207766904E+03  0.00000000000E+00 0.  1.
        -11    1    3    3    0    0 -0.99027420347E+02 -0.11046553019E+03  0.12427052486E+03  0.19352577784E+03  0.00000000000E+00 0. -1.
         22    1    1    2    0    0  0.58492187267E+03  0.42721216130E+03 -0.71259550595E+03  0.10160886689E+04  0.00000000000E+00 0. -1.
<mgrwt>
<rscale>  0 0.20416753E+04</rscale>
<asrwt>0</asrwt>
<pdfrwt beam="1">  1        1 0.15641671E+00 0.20416753E+04</pdfrwt>
<pdfrwt beam="2">  1       -1 0.15768977E+00 0.20416753E+04</pdfrwt>
<totfact> 0.41305627E+00</totfact>
</mgrwt>
</event>
<event>
 6    1  0.1014650E-006  0.1371225E+04  0.7818608E-02  0.8974915E-01
          2   -1    0    0  501    0  0.00000000000E+00  0.00000000000E+00  0.11184123895E+04  0.11184123895E+04  0.00000000000E+00 0. -1.
         -2   -1    0    0    0  501 -0.00000000000E+00 -0.00000000000E+00 -0.42029642084E+03  0.42029642084E+03  0.00000000000E+00 0.  1.
         23    2    1    2    0    0 -0.67870529806E+03 -0.54303687629E+02  0.30288048422E+03  0.75143448692E+03  0.96578612056E+02 0.  0.
         13    1    3    3    0    0 -0.44112915755E+03  0.11235299785E+01  0.16340869820E+03  0.47042384995E+03  0.00000000000E+00 0. -1.
        -13    1    3    3    0    0 -0.23757614051E+03 -0.55427217607E+02  0.13947178602E+03  0.28101063697E+03  0.00000000000E+00 0.  1.
         22    1    1    2    0    0  0.67870529806E+03  0.54303687629E+02  0.39523548440E+03  0.78727432337E+03  0.00000000000E+00 0. -1.
<mgrwt>
<rscale>  0 0.13712253E+04</rscale>
<asrwt>0</asrwt>
<pdfrwt beam="1">  1        2 0.17206344E+00 0.13712253E+04</pdfrwt>
<pdfrwt beam="2">  1       -2 0.64660988E-01 0.13712253E+04</pdfrwt>
<totfact> 0.45708277E+01</totfact>
</mgrwt>
</event>
<event>
 6    1  0.1014650E-006  0.4179553E+04  0.7818608E-02  0.7969273E-01
         -2   -1    0    0    0  501 -0.00000000000E+00  0.00000000000E+00  0.18803886421E+04  0.18803886421E+04  0.00000000000E+00 0.  1.
          2   -1    0    0  501    0  0.00000000000E+00 -0.00000000000E+00 -0.23224807894E+04  0.23224807894E+04  0.00000000000E+00 0. -1.
         23    2    1    2    0    0 -0.15065064371E+04  0.12105209130E+03  0.12288006690E+04  0.19498496674E+04  0.88019244688E+02 0.  0.
         11    1    3    3    0    0 -0.12859972470E+04  0.93856231809E+02  0.10085453723E+04  0.16369977640E+04  0.00000000000E+00 0. -1.
        -11    1    3    3    0    0 -0.22050919013E+03  0.27195859493E+02  0.22025529671E+03  0.31285190336E+03  0.00000000000E+00 0.  1.
         22    1    1    2    0    0  0.15065064371E+04 -0.12105209130E+03 -0.16708928163E+04  0.22530197641E+04  0.00000000000E+00 0. -1.
<mgrwt>
<rscale>  0 0.41795533E+04</rscale>
<asrwt>0</asrwt>
<pdfrwt beam="1">  1        2 0.35730474E+00 0.41795533E+04</pdfrwt>
<pdfrwt beam="2">  1       -2 0.28929056E+00 0.41795533E+04</pdfrwt>
<totfact> 0.12650507E-01</totfact>
</mgrwt>
</event>
<event>
 6    1  0.1014650E-006  0.3280176E+04  0.7818608E-02  0.8167958E-01
          2   -1    0    0  501    0  0.00000000000E+00  0.00000000000E+00  0.12040413946E+04  0.12040413946E+04  0.00000000000E+00 0. -1.
         -2   -1    0    0    0  501 -0.00000000000E+00 -0.00000000000E+00 -0.22340505726E+04  0.22340505726E+04  0.00000000000E+00 0.  1.
         23    2    1    2    0    0  0.66129657708E+03 -0.10657050425E+04 -0.16210037518E+04  0.20516162239E+04  0.91845339466E+02 0.  0.
         11    1    3    3    0    0  0.29982893215E+03 -0.40657499471E+03 -0.61921716004E+03  0.79914360798E+03  0.00000000000E+00 0.  1.
        -11    1    3    3    0    0  0.36146764493E+03 -0.65913004778E+03 -0.10017865918E+04  0.12524726160E+04  0.00000000000E+00 0. -1.
         22    1    1    2    0    0 -0.66129657708E+03  0.10657050425E+04  0.59099457378E+03  0.13864757433E+04  0.00000000000E+00 0. -1.
<mgrwt>
<rscale>  0 0.32801764E+04</rscale>
<asrwt>0</asrwt>
<pdfrwt beam="1">  1        2 0.18523714E+00 0.32801764E+04</pdfrwt>
<pdfrwt beam="2">  1       -2 0.34370008E+00 0.32801764E+04</pdfrwt>
<totfact> 0.26848564E-01</totfact>
</mgrwt>
</event>
<event>
 6    1  0.1014650E-006  0.6858310E+03  0.7818608E-02  0.9741775E-01
          2   -1    0    0  501    0  0.00000000000E+00  0.00000000000E+00  0.61474030596E+03  0.61474030596E+03  0.00000000000E+00 0. -1.
         -2   -1    0    0    0  501 -0.00000000000E+00 -0.00000000000E+00 -0.19128574193E+03  0.19128574193E+03  0.00000000000E+00 0.  1.
         23    2    1    2    0    0 -0.18147214044E+03 -0.78603440211E+01 -0.11733434102E+03  0.23554680848E+03  0.93386447820E+02 0.  0.
         13    1    3    3    0    0 -0.31528879003E+02  0.47008122040E+01 -0.71448731063E+02  0.78237388869E+02  0.00000000000E+00 0. -1.
        -13    1    3    3    0    0 -0.14994326144E+03 -0.12561156225E+02 -0.45885609960E+02  0.15730941961E+03  0.00000000000E+00 0.  1.
         22    1    1    2    0    0  0.18147214044E+03  0.78603440211E+01  0.54078890506E+03  0.57047923941E+03  0.00000000000E+00 0. -1.
<mgrwt>
<rscale>  0 0.68583104E+03</rscale>
<asrwt>0</asrwt>
<pdfrwt beam="1">  1        2 0.94575431E-01 0.68583104E+03</pdfrwt>
<pdfrwt beam="2">  1       -2 0.29428576E-01 0.68583104E+03</pdfrwt>
<totfact> 0.51486003E+02</totfact>
</mgrwt>
</event>
<event>
 6    1  0.1014650E-006  0.1681492E+04  0.7818608E-02  0.8771991E-01
          1   -1    0    0  501    0  0.00000000000E+00  0.00000000000E+00  0.12353766235E+04  0.12353766235E+04  0.00000000000E+00 0. -1.
         -1   -1    0    0    0  501 -0.00000000000E+00 -0.00000000000E+00 -0.57217656386E+03  0.57217656386E+03  0.00000000000E+00 0.  1.
         23    2    1    2    0    0 -0.98455587329E+02 -0.53727475130E+03  0.10161461904E+04  0.11572235538E+04  0.90860398825E+02 0.  0.
         11    1    3    3    0    0 -0.44908073651E+01 -0.39868152276E+01  0.44249218769E+02  0.44654847532E+02  0.00000000000E+00 0. -1.
        -11    1    3    3    0    0 -0.93964779964E+02 -0.53328793607E+03  0.97189697163E+03  0.11125687062E+04  0.00000000000E+00 0.  1.
         22    1    1    2    0    0  0.98455587329E+02  0.53727475130E+03 -0.35294613078E+03  0.65032963356E+03  0.00000000000E+00 0.  1.
<mgrwt>
<rscale>  0 0.16814917E+04</rscale>
<asrwt>0</asrwt>
<pdfrwt beam="1">  1        1 0.19005794E+00 0.16814917E+04</pdfrwt>
<pdfrwt beam="2">  1       -1 0.88027164E-01 0.16814917E+04</pdfrwt>
<totfact> 0.12173849E+01</totfact>
</mgrwt>
</event>
<event>
 6    1  0.1014650E-006  0.9377088E+03  0.7818608E-02  0.9379634E-01
          1   -1    0    0  501    0  0.00000000000E+00  0.00000000000E+00  0.13646276766E+04  0.13646276766E+04  0.00000000000E+00 0. -1.
         -1   -1    0    0    0  501 -0.00000000000E+00 -0.00000000000E+00 -0.16108748749E+03  0.16108748749E+03  0.00000000000E+00 0.  1.
         23    2    1    2    0    0 -0.25762994609E+03 -0.24919597045E+03  0.10879607174E+04  0.11491113470E+04  0.91249899792E+02 0.  0.
         11    1    3    3    0    0 -0.10709090265E+03 -0.10113182583E+03  0.59247645677E+03  0.61051163744E+03  0.00000000000E+00 0. -1.
        -11    1    3    3    0    0 -0.15053904344E+03 -0.14806414462E+03  0.49548426067E+03  0.53859970952E+03  0.00000000000E+00 0.  1.
         22    1    1    2    0    0  0.25762994609E+03  0.24919597045E+03  0.11557947170E+03  0.37660381715E+03  0.00000000000E+00 0.  1.
<mgrwt>
<rscale>  0 0.93770879E+03</rscale>
<asrwt>0</asrwt>
<pdfrwt beam="1">  1        1 0.20994271E+00 0.93770879E+03</pdfrwt>
<pdfrwt beam="2">  1       -1 0.24782691E-01 0.93770879E+03</pdfrwt>
<totfact> 0.11633404E+02</totfact>
</mgrwt>
</event>
<event>
 6    1  0.1014650E-006  0.9773624E+03  0.7818608E-02  0.9333728E-01
         -1   -1    0    0    0  501 -0.00000000000E+00  0.00000000000E+00  0.73592293024E+03  0.73592293024E+03  0.00000000000E+00 0.  1.
          1   -1    0    0  501    0  0.00000000000E+00 -0.00000000000E+00 -0.32450313122E+03  0.32450313122E+03  0.00000000000E+00 0. -1.
         23    2    1    2    0    0 -0.10264044964E+03  0.32586761723E+03 -0.16514154247E+03  0.39024120162E+03  0.91058775154E+02 0.  0.
         13    1    3    3    0    0 -0.10661906019E+03  0.25376556759E+03 -0.99596296016E+02  0.29271831079E+03  0.00000000000E+00 0. -1.
        -13    1    3    3    0    0  0.39786105514E+01  0.72102049639E+02 -0.65545246449E+02  0.97522890831E+02  0.00000000000E+00 0.  1.
         22    1    1    2    0    0  0.10264044964E+03 -0.32586761723E+03  0.57656134148E+03  0.67018485984E+03  0.00000000000E+00 0. -1.
<mgrwt>
<rscale>  0 0.97736236E+03</rscale>
<asrwt>0</asrwt>
<pdfrwt beam="1">  1        1 0.49923559E-01 0.97736236E+03</pdfrwt>
<pdfrwt beam="2">  1       -1 0.11321891E+00 0.97736236E+03</pdfrwt>
<totfact> 0.56617893E+01</totfact>
</mgrwt>
</event>
<event>
 6    1  0.1014650E-006  0.1868571E+04  0.7818608E-02  0.8670661E-01
          2   -1    0    0  501    0  0.00000000000E+00  0.00000000000E+00  0.94090853041E+03  0.94090853041E+03  0.00000000000E+00 0. -1.
         -2   -1    0    0    0  501 -0.00000000000E+00 -0.00000000000E+00 -0.92770926717E+03  0.92770926717E+03  0.00000000000E+00 0.  1.
         23    2    1    2    0    0  0.27455959539E+03 -0.53780173326E+03  0.71713752055E+03  0.94117898783E+03  0.83174443344E+02 0.  0.
         11    1    3    3    0    0  0.66292165930E+02 -0.13357046946E+03  0.12496676748E+03  0.19455696993E+03  0.00000000000E+00 0. -1.
        -11    1    3    3    0    0  0.20826742946E+03 -0.40423126379E+03  0.59217075308E+03  0.74662201789E+03  0.00000000000E+00 0.  1.
         22    1    1    2    0    0 -0.27455959539E+03  0.53780173326E+03 -0.70393825731E+03  0.92743880975E+03  0.00000000000E+00 0.  1.
<mgrwt>
<rscale>  0 0.18685712E+04</rscale>
<asrwt>0</asrwt>
<pdfrwt beam="1">  1        2 0.14475516E+00 0.18685712E+04</pdfrwt>
<pdfrwt beam="2">  1       -2 0.14272450E+00 0.18685712E+04</pdfrwt>
<totfact> 0.88267724E+00</totfact>
</mgrwt>
</event>
<event>
 6    1  0.1014650E-006  0.4686513E+03  0.7818608E-02  0.1022302E+00
          1   -1    0    0  501    0  0.00000000000E+00  0.00000000000E+00  0.12494600617E+03  0.12494600617E+03  0.00000000000E+00 0. -1.
         -1   -1    0    0    0  501 -0.00000000000E+00 -0.00000000000E+00 -0.43945785226E+03  0.43945785226E+03  0.00000000000E+00 0.  1.
         23    2    1    2    0    0 -0.10175609542E+03  0.19445185318E+03 -0.10195348513E+03  0.25887663710E+03  0.91960719594E+02 0.  0.
         11    1    3    3    0    0 -0.45399529387E+02  0.35590057121E+02 -0.63872514173E+02  0.86066645695E+02  0.00000000000E+00 0. -1.
        -11    1    3    3    0    0 -0.56356566030E+02  0.15886179606E+03 -0.38080970960E+02  0.17280999141E+03  0.00000000000E+00 0.  1.
         22    1    1    2    0    0  0.10175609542E+03 -0.19445185318E+03 -0.21255836095E+03  0.30552722133E+03  0.00000000000E+00 0.  1.
<mgrwt>
<rscale>  0 0.46865127E+03</rscale>
<asrwt>0</asrwt>
<pdfrwt beam="1">  1        1 0.19222463E-01 0.46865127E+03</pdfrwt>
<pdfrwt beam="2">  1       -1 0.67608900E-01 0.46865127E+03</pdfrwt>
<totfact> 0.61874731E+02</totfact>
</mgrwt>
</event>
<event>
 6    1  0.1014650E-006  0.1251128E+04  0.7818608E-02  0.9069245E-01
          1   -1    0    0  501    0  0.00000000000E+00  0.00000000000E+00  0.55626912731E+03  0.55626912731E+03  0.00000000000E+00 0. -1.
         -1   -1    0    0    0  501 -0.00000000000E+00 -0.00000000000E+00 -0.70349056029E+03  0.70349056029E+03  0.00000000000E+00 0.  1.
         23    2    1    2    0    0  0.19703287085E+03  0.32088741119E+03  0.42462850415E+03  0.57506776166E+03  0.92751717528E+02 0.  0.
         11    1    3    3    0    0  0.13320417166E+03  0.24826974725E+03  0.36641309021E+03  0.46221182528E+03  0.00000000000E+00 0.  1.
        -11    1    3    3    0    0  0.63828699189E+02  0.72617663939E+02  0.58215413940E+02  0.11285593638E+03  0.00000000000E+00 0. -1.
         22    1    1    2    0    0 -0.19703287085E+03 -0.32088741119E+03 -0.57184993713E+03  0.68469192594E+03  0.00000000000E+00 0.  1.
<mgrwt>
<rscale>  0 0.12511276E+04</rscale>
<asrwt>0</asrwt>
<pdfrwt beam="1">  1        1 0.85579865E-01 0.12511276E+04</pdfrwt>
<pdfrwt beam="2">  1       -1 0.10822932E+00 0.12511276E+04</pdfrwt>
<totfact> 0.29864595E+01</totfact>
</mgrwt>
</event>
<event>
 6    1  0.1014650E-006  0.2409999E+04  0.7818608E-02  0.8435770E-01
         -1   -1    0    0    0  501 -0.00000000000E+00  0.00000000000E+00  0.18663690807E+04  0.18663690807E+04  0.00000000000E+00 0.  1.
          1   -1    0    0  501    0  0.00000000000E+00 -0.00000000000E+00 -0.77799379218E+03  0.77799379218E+03  0.00000000000E+00 0. -1.
         23    2    1    2    0    0  0.10652577383E+04  0.49543351738E+03  0.83007724179E+03  0.14414720632E+04  0.92655612256E+02 0.  0.
         11    1    3    3    0    0  0.43262793958E+03  0.17805834889E+03  0.28156269103E+03  0.54603045583E+03  0.00000000000E+00 0. -1.
        -11    1    3    3    0    0  0.63262979870E+03  0.31737516849E+03  0.54851455076E+03  0.89544160735E+03  0.00000000000E+00 0.  1.
         22    1    1    2    0    0 -0.10652577383E+04 -0.49543351738E+03  0.25829804673E+03  0.12028908097E+04  0.00000000000E+00 0.  1.
<mgrwt>
<rscale>  0 0.24099988E+04</rscale>
<asrwt>0</asrwt>
<pdfrwt beam="1">  1        1 0.11969135E+00 0.24099988E+04</pdfrwt>
<pdfrwt beam="2">  1       -1 0.28713370E+00 0.24099988E+04</pdfrwt>
<totfact> 0.82834069E-01</totfact>
</mgrwt>
</event>
<event>
 6    1  0.1014650E-006  0.2018273E+04  0.7818608E-02  0.8598125E-01
          2   -1    0    0  501    0  0.00000000000E+00  0.00000000000E+00  0.16511987023E+04  0.16511987023E+04  0.00000000000E+00 0. -1.
         -2   -1    0    0    0  501 -0.00000000000E+00 -0.00000000000E+00 -0.61673790325E+03  0.61673790325E+03  0.00000000000E+00 0.  1.
         23    2    1    2    0    0  0.20475702892E+03 -0.65304366356E+03  0.13484653683E+04  0.15149489981E+04  0.91214856387E+02 0.  0.
         11    1    3    3    0    0  0.76709179767E+02 -0.13939868999E+03  0.36192780050E+03  0.39535809819E+03  0.00000000000E+00 0. -1.
        -11    1    3    3    0    0  0.12804784916E+03 -0.51364497357E+03  0.98653756782E+03  0.11195909000E+04  0.00000000000E+00 0.  1.
         22    1    1    2    0    0 -0.20475702892E+03  0.65304366356E+03 -0.31400456925E+03  0.75298760742E+03  0.00000000000E+00 0.  1.
<mgrwt>
<rscale>  0 0.20182733E+04</rscale>
<asrwt>0</asrwt>
<pdfrwt beam="1">  1        2 0.25403057E+00 0.20182733E+04</pdfrwt>
<pdfrwt beam="2">  1       -2 0.94882755E-01 0.20182733E+04</pdfrwt>
<totfact> 0.90536256E+00</totfact>
</mgrwt>
</event>
<event>
 6    1  0.1014650E-006  0.1636086E+04  0.7818608E-02  0.8798681E-01
          1   -1    0    0  501    0  0.00000000000E+00  0.00000000000E+00  0.71522271023E+03  0.71522271023E+03  0.00000000000E+00 0. -1.
         -1   -1    0    0    0  501 -0.00000000000E+00 -0.00000000000E+00 -0.93564477003E+03  0.93564477003E+03  0.00000000000E+00 0.  1.
         23    2    1    2    0    0 -0.68269268670E+03 -0.79121955352E+02 -0.55360626576E+03  0.88709964683E+03  0.90201428055E+02 0.  0.
         11    1    3    3    0    0 -0.12485643254E+03  0.19534637919E+02 -0.11099824035E+03  0.16820029782E+03  0.00000000000E+00 0.  1.
        -11    1    3    3    0    0 -0.55783625416E+03 -0.98656593271E+02 -0.44260802541E+03  0.71889934901E+03  0.00000000000E+00 0. -1.
         22    1    1    2    0    0  0.68269268670E+03  0.79121955352E+02  0.33318420596E+03  0.76376783343E+03  0.00000000000E+00 0. -1.
<mgrwt>
<rscale>  0 0.16360860E+04</rscale>
<asrwt>0</asrwt>
<pdfrwt beam="1">  1        1 0.11003426E+00 0.16360860E+04</pdfrwt>
<pdfrwt beam="2">  1       -1 0.14394535E+00 0.16360860E+04</pdfrwt>
<totfact> 0.98260299E+00</totfact>
</mgrwt>
</event>
<event>
 6    1  0.1014650E-006  0.8885294E+03  0.7818608E-02  0.9440035E-01
         -1   -1    0    0    0  501 -0.00000000000E+00  0.00000000000E+00  0.63279346129E+02  0.63279346129E+02  0.00000000000E+00 0.  1.
          1   -1    0    0  501    0  0.00000000000E+00 -0.00000000000E+00 -0.31190452118E+04  0.31190452118E+04  0.00000000000E+00 0. -1.
         23    2    1    2    0    0  0.33493157889E+03  0.27348493366E+03 -0.18322726772E+04  0.18846694598E+04  0.88219258727E+02 0.  0.
         13    1    3    3    0    0  0.26790466874E+03  0.20914110248E+03 -0.15716839229E+04  0.16080122095E+04  0.00000000000E+00 0. -1.
        -13    1    3    3    0    0  0.67026910154E+02  0.64343831177E+02 -0.26058875425E+03  0.27665725028E+03  0.00000000000E+00 0.  1.
         22    1    1    2    0    0 -0.33493157889E+03 -0.27348493366E+03 -0.12234931885E+04  0.12976550982E+04  0.00000000000E+00 0.  1.
<mgrwt>
<rscale>  0 0.88852944E+03</rscale>
<asrwt>0</asrwt>
<pdfrwt beam="1">  1        1 0.47985309E+00 0.88852944E+03</pdfrwt>
<pdfrwt beam="2">  1       -1 0.97352845E-02 0.88852944E+03</pdfrwt>
<totfact> 0.33548473E+01</totfact>
</mgrwt>
</event>
<event>
 6    1  0.1014650E-006  0.1037345E+04  0.7818608E-02  0.9268508E-01
         -1   -1    0    0    0  501 -0.00000000000E+00  0.00000000000E+00  0.69857711933E+03  0.69857711933E+03  0.00000000000E+00 0.  1.
          1   -1    0    0  501    0  0.00000000000E+00 -0.00000000000E+00 -0.38509897403E+03  0.38509897403E+03  0.00000000000E+00 0. -1.
         23    2    1    2    0    0 -0.98503680424E+02 -0.23017571324E+03 -0.31181182415E+03  0.41012477391E+03  0.91059774192E+02 0.  0.
         13    1    3    3    0    0 -0.18405574591E+02 -0.12045286718E+03 -0.19992607859E+03  0.23413264464E+03  0.00000000000E+00 0. -1.
        -13    1    3    3    0    0 -0.80098105833E+02 -0.10972284606E+03 -0.11188574556E+03  0.17599212927E+03  0.00000000000E+00 0.  1.
         22    1    1    2    0    0  0.98503680424E+02  0.23017571324E+03  0.62528996945E+03  0.67355131944E+03  0.00000000000E+00 0.  1.
<mgrwt>
<rscale>  0 0.10373453E+04</rscale>
<asrwt>0</asrwt>
<pdfrwt beam="1">  1        1 0.59245996E-01 0.10373453E+04</pdfrwt>
<pdfrwt beam="2">  1       -1 0.10747340E+00 0.10373453E+04</pdfrwt>
<totfact> 0.50925114E+01</totfact>
</mgrwt>
</event>
<event>
 6    1  0.1014650E-006  0.2270700E+04  0.7818608E-02  0.8489564E-01
          1   -1    0    0  501    0  0.00000000000E+00  0.00000000000E+00  0.16042010262E+04  0.16042010262E+04  0.00000000000E+00 0. -1.
         -1   -1    0    0    0  501 -0.00000000000E+00 -0.00000000000E+00 -0.80352746569E+03  0.80352746569E+03  0.00000000000E+00 0.  1.
         23    2    1    2    0    0  0.82838203197E+03 -0.65544929704E+03 -0.34624578781E+02  0.10610460670E+04  0.93751389410E+02 0.  0.
         13    1    3    3    0    0  0.50022222758E+03 -0.38988514160E+03 -0.66479479703E+02  0.63769288990E+03  0.00000000000E+00 0.  1.
        -13    1    3    3    0    0  0.32815980439E+03 -0.26556415544E+03  0.31854900922E+02  0.42335317713E+03  0.00000000000E+00 0. -1.
         22    1    1    2    0    0 -0.82838203197E+03  0.65544929704E+03  0.83529813925E+03  0.13466824248E+04  0.00000000000E+00 0. -1.
<mgrwt>
<rscale>  0 0.22707000E+04</rscale>
<asrwt>0</asrwt>
<pdfrwt beam="1">  1        1 0.24680016E+00 0.22707000E+04</pdfrwt>
<pdfrwt beam="2">  1       -1 0.12361961E+00 0.22707000E+04</pdfrwt>
<totfact> 0.28896618E+00</totfact>
</mgrwt>
</event>
<event>
 6    1  0.1014650E-006  0.1456530E+04  0.7818608E-02  0.8913886E-01
         -2   -1    0    0    0  501 -0.00000000000E+00  0.00000000000E+00  0.35327010376E+03  0.35327010376E+03  0.00000000000E+00 0.  1.
          2   -1    0    0  501    0  0.00000000000E+00 -0.00000000000E+00 -0.15013165458E+04  0.15013165458E+04  0.00000000000E+00 0. -1.
         23    2    1    2    0    0 -0.61410356305E+03  0.23380388830E+03 -0.96756619784E+03  0.11731465841E+04  0.91110461191E+02 0.  0.
         13    1    3    3    0    0 -0.54691348758E+02  0.44165778773E+02 -0.13666807401E+03  0.15368774218E+03  0.00000000000E+00 0. -1.
        -13    1    3    3    0    0 -0.55941221429E+03  0.18963810953E+03 -0.83089812383E+03  0.10194588419E+04  0.00000000000E+00 0.  1.
         22    1    1    2    0    0  0.61410356305E+03 -0.23380388830E+03 -0.18048024421E+03  0.68144006551E+03  0.00000000000E+00 0.  1.
<mgrwt>
<rscale>  0 0.14565305E+04</rscale>
<asrwt>0</asrwt>
<pdfrwt beam="1">  1        2 0.23097177E+00 0.14565305E+04</pdfrwt>
<pdfrwt beam="2">  1       -2 0.54349247E-01 0.14565305E+04</pdfrwt>
<totfact> 0.39138154E+01</totfact>
</mgrwt>
</event>
<event>
 6    1  0.1014650E-006  0.1776370E+04  0.7818608E-02  0.8718967E-01
          2   -1    0    0  501    0  0.00000000000E+00  0.00000000000E+00  0.12174907688E+04  0.12174907688E+04  0.00000000000E+00 0. -1.
         -2   -1    0    0    0  501 -0.00000000000E+00 -0.00000000000E+00 -0.64794966028E+03  0.64794966028E+03  0.00000000000E+00 0.  1.
         23    2    1    2    0    0 -0.25125638153E+03  0.17614511852E+03  0.11582017071E+04  0.12016044761E+04  0.90913424230E+02 0.  0.
         13    1    3    3    0    0 -0.10199030108E+03  0.47024538211E+02  0.28398950684E+03  0.30539051836E+03  0.00000000000E+00 0.  1.
        -13    1    3    3    0    0 -0.14926608045E+03  0.12912058031E+03  0.87421220026E+03  0.89621395778E+03  0.00000000000E+00 0. -1.
         22    1    1    2    0    0  0.25125638153E+03 -0.17614511852E+03 -0.58866059861E+03  0.66383595292E+03  0.00000000000E+00 0.  1.
<mgrwt>
<rscale>  0 0.17763702E+04</rscale>
<asrwt>0</asrwt>
<pdfrwt beam="1">  1        2 0.18730627E+00 0.17763702E+04</pdfrwt>
<pdfrwt beam="2">  1       -2 0.99684564E-01 0.17763702E+04</pdfrwt>
<totfact> 0.14557498E+01</totfact>
</mgrwt>
</event>
<event>
 6    1  0.1014650E-006  0.4864617E+04  0.7818608E-02  0.7849738E-01
         -2   -1    0    0    0  501 -0.00000000000E+00  0.00000000000E+00  0.28021619756E+04  0.28021619756E+04  0.00000000000E+00 0.  1.
          2   -1    0    0  501    0  0.00000000000E+00 -0.00000000000E+00 -0.21112712334E+04  0.21112712334E+04  0.00000000000E+00 0. -1.
         23    2    1    2    0    0  0.19184857632E+04 -0.70127423361E+03  0.16777270522E+04  0.26449052552E+04  0.91556391254E+02 0.  0.
         13    1    3    3    0    0  0.99388867019E+03 -0.31538705704E+03  0.84482342994E+03  0.13420172548E+04  0.00000000000E+00 0.  1.
        -13    1    3    3    0    0  0.92459709302E+03 -0.38588717658E+03  0.83290362224E+03  0.13028880003E+04  0.00000000000E+00 0. -1.
         22    1    1    2    0    0 -0.19184857632E+04  0.70127423361E+03 -0.98683631003E+03  0.22685279538E+04  0.00000000000E+00 0. -1.
<mgrwt>
<rscale>  0 0.48646167E+04</rscale>
<asrwt>0</asrwt>
<pdfrwt beam="1">  1        2 0.32481096E+00 0.48646167E+04</pdfrwt>
<pdfrwt beam="2">  1       -2 0.43110185E+00 0.48646167E+04</pdfrwt>
<totfact> 0.19760655E-02</totfact>
</mgrwt>
</event>
<event>
 6    1  0.1014650E-006  0.1498234E+04  0.7818608E-02  0.8885628E-01
         -2   -1    0    0    0  501 -0.00000000000E+00  0.00000000000E+00  0.30202404941E+03  0.30202404941E+03  0.00000000000E+00 0.  1.
          2   -1    0    0  501    0  0.00000000000E+00 -0.00000000000E+00 -0.18580504894E+04  0.18580504894E+04  0.00000000000E+00 0. -1.
         23    2    1    2    0    0 -0.22849526092E+03 -0.71031832333E+03 -0.76137750255E+03  0.10700153026E+04  0.92058902919E+02 0.  0.
         11    1    3    3    0    0 -0.16295556269E+03 -0.61255331591E+03 -0.65225811221E+03  0.90951455469E+03  0.00000000000E+00 0. -1.
        -11    1    3    3    0    0 -0.65539698235E+02 -0.97765007420E+02 -0.10911939034E+03  0.16050074788E+03  0.00000000000E+00 0.  1.
         22    1    1    2    0    0  0.22849526092E+03  0.71031832333E+03 -0.79464893742E+03  0.10900592362E+04  0.00000000000E+00 0.  1.
<mgrwt>
<rscale>  0 0.14982335E+04</rscale>
<asrwt>0</asrwt>
<pdfrwt beam="1">  1        2 0.28585393E+00 0.14982335E+04</pdfrwt>
<pdfrwt beam="2">  1       -2 0.46465238E-01 0.14982335E+04</pdfrwt>
<totfact> 0.33998593E+01</totfact>
</mgrwt>
</event>
<event>
 6    1  0.1014650E-006  0.3118083E+04  0.7818608E-02  0.8210793E-01
          1   -1    0    0  501    0  0.00000000000E+00  0.00000000000E+00  0.13330330282E+04  0.13330330282E+04  0.00000000000E+00 0. -1.
         -1   -1    0    0    0  501 -0.00000000000E+00 -0.00000000000E+00 -0.18233687927E+04  0.18233687927E+04  0.00000000000E+00 0.  1.
         23    2    1    2    0    0 -0.10289610560E+04  0.34868523164E+02  0.93800011587E+03  0.13956860415E+04  0.90103498115E+02 0.  0.
         13    1    3    3    0    0 -0.55767765269E+03 -0.14325531187E+02  0.46624194226E+03  0.72704273181E+03  0.00000000000E+00 0. -1.
        -13    1    3    3    0    0 -0.47128340336E+03  0.49194054352E+02  0.47175817361E+03  0.66864330972E+03  0.00000000000E+00 0.  1.
         22    1    1    2    0    0  0.10289610560E+04 -0.34868523164E+02 -0.14283358803E+04  0.17607157794E+04  0.00000000000E+00 0.  1.
<mgrwt>
<rscale>  0 0.31180833E+04</rscale>
<asrwt>0</asrwt>
<pdfrwt beam="1">  1        1 0.20508200E+00 0.31180833E+04</pdfrwt>
<pdfrwt beam="2">  1       -1 0.28051828E+00 0.31180833E+04</pdfrwt>
<totfact> 0.31877906E-01</totfact>
</mgrwt>
</event>
<event>
 6    1  0.1014650E-006  0.1065243E+04  0.7818608E-02  0.9239746E-01
          2   -1    0    0  501    0  0.00000000000E+00  0.00000000000E+00  0.13932436617E+04  0.13932436617E+04  0.00000000000E+00 0. -1.
         -2   -1    0    0    0  501 -0.00000000000E+00 -0.00000000000E+00 -0.20361543246E+03  0.20361543246E+03  0.00000000000E+00 0.  1.
         23    2    1    2    0    0 -0.79604256523E+02 -0.29266624401E+03  0.12484069743E+04  0.12879168521E+04  0.90661328385E+02 0.  0.
         11    1    3    3    0    0 -0.65629195246E+02 -0.17805035082E+03  0.59945692983E+03  0.62877478433E+03  0.00000000000E+00 0.  1.
        -11    1    3    3    0    0 -0.13975061277E+02 -0.11461589319E+03  0.64895004450E+03  0.65914206781E+03  0.00000000000E+00 0. -1.
         22    1    1    2    0    0  0.79604256523E+02  0.29266624401E+03 -0.58778745065E+02  0.30894224203E+03  0.00000000000E+00 0. -1.
<mgrwt>
<rscale>  0 0.10652435E+04</rscale>
<asrwt>0</asrwt>
<pdfrwt beam="1">  1        2 0.21434517E+00 0.10652435E+04</pdfrwt>
<pdfrwt beam="2">  1       -2 0.31325452E-01 0.10652435E+04</pdfrwt>
<totfact> 0.13720928E+02</totfact>
</mgrwt>
</event>
<event>
 6    1  0.1014650E-006  0.1099773E+04  0.7818608E-02  0.9205413E-01
         -2   -1    0    0    0  501 -0.00000000000E+00  0.00000000000E+00  0.19770336479E+03  0.19770336479E+03  0.00000000000E+00 0.  1.
          2   -1    0    0  501    0  0.00000000000E+00 -0.00000000000E+00 -0.15294383706E+04  0.15294383706E+04  0.00000000000E+00 0. -1.
         23    2    1    2    0    0 -0.52689005862E+02  0.54118322447E+02 -0.15198293229E+04  0.15244488735E+04  0.91423590661E+02 0.  0.
         11    1    3    3    0    0 -0.65970900801E+02  0.41219801960E+02 -0.68313783213E+03  0.68755256491E+03  0.00000000000E+00 0. -1.
        -11    1    3    3    0    0  0.13281894939E+02  0.12898520486E+02 -0.83669149077E+03  0.83689630857E+03  0.00000000000E+00 0.  1.
         22    1    1    2    0    0  0.52689005862E+02 -0.54118322447E+02  0.18809431707E+03  0.20269286193E+03  0.00000000000E+00 0.  1.
<mgrwt>
<rscale>  0 0.10997729E+04</rscale>
<asrwt>0</asrwt>
<pdfrwt beam="1">  1        2 0.23529820E+00 0.10997729E+04</pdfrwt>
<pdfrwt beam="2">  1       -2 0.30415903E-01 0.10997729E+04</pdfrwt>
<totfact> 0.12114448E+02</totfact>
</mgrwt>
</event>
<event>
 6    1  0.1014650E-006  0.1881341E+04  0.7818608E-02  0.8664200E-01
         -1   -1    0    0    0  501 -0.00000000000E+00  0.00000000000E+00  0.63627826318E+03  0.63627826318E+03  0.00000000000E+00 0.  1.
          1   -1    0    0  501    0  0.00000000000E+00 -0.00000000000E+00 -0.13906828451E+04  0.13906828451E+04  0.00000000000E+00 0. -1.
         23    2    1    2    0    0  0.25693021690E+02  0.59663185968E+03  0.40133744827E+03  0.72605013987E+03  0.97197483898E+02 0.  0.
         13    1    3    3    0    0 -0.21436412179E+02  0.26076590489E+03  0.21769535261E+03  0.34036692476E+03  0.00000000000E+00 0. -1.
        -13    1    3    3    0    0  0.47129433869E+02  0.33586595479E+03  0.18364209566E+03  0.38568321512E+03  0.00000000000E+00 0.  1.
         22    1    1    2    0    0 -0.25693021690E+02 -0.59663185968E+03 -0.11557420302E+04  0.13009109684E+04  0.00000000000E+00 0. -1.
<mgrwt>
<rscale>  0 0.18813413E+04</rscale>
<asrwt>0</asrwt>
<pdfrwt beam="1">  1        1 0.21395120E+00 0.18813413E+04</pdfrwt>
<pdfrwt beam="2">  1       -1 0.97888965E-01 0.18813413E+04</pdfrwt>
<totfact> 0.73139368E+00</totfact>
</mgrwt>
</event>
<event>
 6    1  0.1014650E-006  0.2526827E+04  0.7818608E-02  0.8393490E-01
          1   -1    0    0  501    0  0.00000000000E+00  0.00000000000E+00  0.22181438903E+04  0.22181438903E+04  0.00000000000E+00 0. -1.
         -1   -1    0    0    0  501 -0.00000000000E+00 -0.00000000000E+00 -0.71961709772E+03  0.71961709772E+03  0.00000000000E+00 0.  1.
         23    2    1    2    0    0  0.12514658356E+04 -0.80665063479E+02  0.91128827113E+03  0.15530145595E+04  0.93457577903E+02 0.  0.
         13    1    3    3    0    0  0.11362012917E+04 -0.70945664648E+02  0.79173762216E+03  0.13866633063E+04  0.00000000000E+00 0. -1.
        -13    1    3    3    0    0  0.11526454391E+03 -0.97193988311E+01  0.11955064897E+03  0.16635125328E+03  0.00000000000E+00 0.  1.
         22    1    1    2    0    0 -0.12514658356E+04  0.80665063479E+02  0.58723852144E+03  0.13847464285E+04  0.00000000000E+00 0. -1.
<mgrwt>
<rscale>  0 0.25268275E+04</rscale>
<asrwt>0</asrwt>
<pdfrwt beam="1">  1        1 0.34125290E+00 0.25268275E+04</pdfrwt>
<pdfrwt beam="2">  1       -1 0.11071032E+00 0.25268275E+04</pdfrwt>
<totfact> 0.14101347E+00</totfact>
</mgrwt>
</event>
<event>
 6    1  0.1014650E-006  0.3750000E+04  0.7818608E-02  0.8056971E-01
         -2   -1    0    0    0  501 -0.00000000000E+00  0.00000000000E+00  0.11446703871E+04  0.11446703871E+04  0.00000000000E+00 0.  1.
          2   -1    0    0  501    0  0.00000000000E+00 -0.00000000000E+00 -0.30712996551E+04  0.30712996551E+04  0.00000000000E+00 0. -1.
         23    2    1    2    0    0 -0.92973791794E+03  0.79063397683E+03 -0.25625917443E+04  0.28397567765E+04  0.88472710784E+02 0.  0.
         13    1    3    3    0    0 -0.60507272516E+03  0.54817904366E+03 -0.16349993841E+04  0.18275218884E+04  0.00000000000E+00 0.  1.
        -13    1    3    3    0    0 -0.32466519277E+03  0.24245493318E+03 -0.92759236020E+03  0.10122348881E+04  0.00000000000E+00 0. -1.
         22    1    1    2    0    0  0.92973791794E+03 -0.79063397683E+03  0.63596247623E+03  0.13762132656E+04  0.00000000000E+00 0.  1.
<mgrwt>
<rscale>  0 0.37500004E+04</rscale>
<asrwt>0</asrwt>
<pdfrwt beam="1">  1        2 0.47250764E+00 0.37500004E+04</pdfrwt>
<pdfrwt beam="2">  1       -2 0.17610314E+00 0.37500004E+04</pdfrwt>
<totfact> 0.24371817E-01</totfact>
</mgrwt>
</event>
<event>
 6    1  0.1014650E-006  0.3193870E+04  0.7818608E-02  0.8190438E-01
          1   -1    0    0  501    0  0.00000000000E+00  0.00000000000E+00  0.17860875839E+04  0.17860875839E+04  0.00000000000E+00 0. -1.
         -1   -1    0    0    0  501 -0.00000000000E+00 -0.00000000000E+00 -0.14278143731E+04  0.14278143731E+04  0.00000000000E+00 0.  1.
         23    2    1    2    0    0  0.14719137478E+04 -0.12135816838E+03 -0.42841599007E+03  0.15405407333E+04  0.92019587244E+02 0.  0.
         13    1    3    3    0    0  0.72649452423E+03 -0.98404418257E+02 -0.18595776764E+03  0.75634516897E+03  0.00000000000E+00 0.  1.
        -13    1    3    3    0    0  0.74541922356E+03 -0.22953750125E+02 -0.24245822244E+03  0.78419556434E+03  0.00000000000E+00 0. -1.
         22    1    1    2    0    0 -0.14719137478E+04  0.12135816838E+03  0.78668920088E+03  0.16733612236E+04  0.00000000000E+00 0. -1.
<mgrwt>
<rscale>  0 0.31938701E+04</rscale>
<asrwt>0</asrwt>
<pdfrwt beam="1">  1        1 0.27478271E+00 0.31938701E+04</pdfrwt>
<pdfrwt beam="2">  1       -1 0.21966375E+00 0.31938701E+04</pdfrwt>
<totfact> 0.38559779E-01</totfact>
</mgrwt>
</event>
<event>
 6    1  0.1014650E-006  0.1117155E+04  0.7818608E-02  0.9188631E-01
          2   -1    0    0  501    0  0.00000000000E+00  0.00000000000E+00  0.10688262081E+04  0.10688262081E+04  0.00000000000E+00 0. -1.
         -2   -1    0    0    0  501 -0.00000000000E+00 -0.00000000000E+00 -0.29191722033E+03  0.29191722033E+03  0.00000000000E+00 0.  1.
         23    2    1    2    0    0  0.46041787404E+03 -0.85820879584E+02  0.26926524906E+02  0.47653557011E+03  0.83733325082E+02 0.  0.
         11    1    3    3    0    0  0.24844360622E+03 -0.15261818423E+02 -0.14433727243E+02  0.24933006448E+03  0.00000000000E+00 0. -1.
        -11    1    3    3    0    0  0.21197426782E+03 -0.70559061160E+02  0.41360252149E+02  0.22720550563E+03  0.00000000000E+00 0.  1.
         22    1    1    2    0    0 -0.46041787404E+03  0.85820879584E+02  0.74998246281E+03  0.88420785828E+03  0.00000000000E+00 0. -1.
<mgrwt>
<rscale>  0 0.11171549E+04</rscale>
<asrwt>0</asrwt>
<pdfrwt beam="1">  1        2 0.16443480E+00 0.11171549E+04</pdfrwt>
<pdfrwt beam="2">  1       -2 0.44910342E-01 0.11171549E+04</pdfrwt>
<totfact> 0.10618619E+02</totfact>
</mgrwt>
</event>
<event>
 6    1  0.1014650E-006  0.8096266E+03  0.7818608E-02  0.9546187E-01
          2   -1    0    0  501    0  0.00000000000E+00  0.00000000000E+00  0.17542961736E+04  0.17542961736E+04  0.00000000000E+00 0. -1.
         -2   -1    0    0    0  501 -0.00000000000E+00 -0.00000000000E+00 -0.93412849912E+02  0.93412849912E+02  0.00000000000E+00 0.  1.
         23    2    1    2    0    0 -0.18101184157E+03 -0.32820105272E+02  0.16506591539E+04  0.16634619618E+04  0.92669356729E+02 0.  0.
         13    1    3    3    0    0 -0.10445057088E+02 -0.29187172829E+02  0.40331178149E+03  0.40450140095E+03  0.00000000000E+00 0. -1.
        -13    1    3    3    0    0 -0.17056678448E+03 -0.36329324430E+01  0.12473473725E+04  0.12589605608E+04  0.00000000000E+00 0.  1.
         22    1    1    2    0    0  0.18101184157E+03  0.32820105272E+02  0.10224169707E+02  0.18424706170E+03  0.00000000000E+00 0.  1.
<mgrwt>
<rscale>  0 0.80962659E+03</rscale>
<asrwt>0</asrwt>
<pdfrwt beam="1">  1        2 0.26989170E+00 0.80962659E+03</pdfrwt>
<pdfrwt beam="2">  1       -2 0.14371209E-01 0.80962659E+03</pdfrwt>
<totfact> 0.34927504E+02</totfact>
</mgrwt>
</event>
<event>
 6    1  0.1014650E-006  0.2923065E+04  0.7818608E-02  0.8266048E-01
          1   -1    0    0  501    0  0.00000000000E+00  0.00000000000E+00  0.14994352855E+04  0.14994352855E+04  0.00000000000E+00 0. -1.
         -1   -1    0    0    0  501 -0.00000000000E+00 -0.00000000000E+00 -0.14245878399E+04  0.14245878399E+04  0.00000000000E+00 0.  1.
         23    2    1    2    0    0 -0.51916222253E+03 -0.13577588601E+04 -0.99148780459E+02  0.14600172435E+04  0.93708778774E+02 0.  0.
         11    1    3    3    0    0 -0.72097855195E+02 -0.22873953346E+03  0.15326854253E+02  0.24032225730E+03  0.00000000000E+00 0. -1.
        -11    1    3    3    0    0 -0.44706436733E+03 -0.11290193266E+04 -0.11447563471E+03  0.12196949862E+04  0.00000000000E+00 0.  1.
         22    1    1    2    0    0  0.51916222253E+03  0.13577588601E+04  0.17399622606E+03  0.14640058819E+04  0.00000000000E+00 0. -1.
<mgrwt>
<rscale>  0 0.29230650E+04</rscale>
<asrwt>0</asrwt>
<pdfrwt beam="1">  1        1 0.23068235E+00 0.29230650E+04</pdfrwt>
<pdfrwt beam="2">  1       -1 0.21916736E+00 0.29230650E+04</pdfrwt>
<totfact> 0.62529940E-01</totfact>
</mgrwt>
</event>
<event>
 6    1  0.1014650E-006  0.2915672E+04  0.7818608E-02  0.8268230E-01
         -2   -1    0    0    0  501 -0.00000000000E+00  0.00000000000E+00  0.19122417083E+04  0.19122417083E+04  0.00000000000E+00 0.  1.
          2   -1    0    0  501    0  0.00000000000E+00 -0.00000000000E+00 -0.11114103288E+04  0.11114103288E+04  0.00000000000E+00 0. -1.
         23    2    1    2    0    0  0.43210944692E+03 -0.39979882609E+03  0.17823188510E+04  0.18791541856E+04  0.89455526238E+02 0.  0.
         13    1    3    3    0    0  0.19440649813E+03 -0.20333072471E+03  0.98114680082E+03  0.10206793399E+04  0.00000000000E+00 0.  1.
        -13    1    3    3    0    0  0.23770294880E+03 -0.19646810138E+03  0.80117205016E+03  0.85847484569E+03  0.00000000000E+00 0. -1.
         22    1    1    2    0    0 -0.43210944692E+03  0.39979882609E+03 -0.98148747151E+03  0.11444978515E+04  0.00000000000E+00 0. -1.
<mgrwt>
<rscale>  0 0.29156716E+04</rscale>
<asrwt>0</asrwt>
<pdfrwt beam="1">  1        2 0.17098620E+00 0.29156716E+04</pdfrwt>
<pdfrwt beam="2">  1       -2 0.29419103E+00 0.29156716E+04</pdfrwt>
<totfact> 0.63731372E-01</totfact>
</mgrwt>
</event>
<event>
 6    1  0.1014650E-006  0.2249336E+04  0.7818608E-02  0.8498170E-01
          1   -1    0    0  501    0  0.00000000000E+00  0.00000000000E+00  0.23624445356E+04  0.23624445356E+04  0.00000000000E+00 0. -1.
         -1   -1    0    0    0  501 -0.00000000000E+00 -0.00000000000E+00 -0.53541061103E+03  0.53541061103E+03  0.00000000000E+00 0.  1.
         23    2    1    2    0    0 -0.77680841111E+03  0.78363979232E+03  0.11826154058E+04  0.16200453568E+04  0.91897379599E+02 0.  0.
         11    1    3    3    0    0 -0.20370445898E+03  0.26019210548E+03  0.32872862095E+03  0.46610936978E+03  0.00000000000E+00 0. -1.
        -11    1    3    3    0    0 -0.57310395212E+03  0.52344768684E+03  0.85388678490E+03  0.11539359871E+04  0.00000000000E+00 0.  1.
         22    1    1    2    0    0  0.77680841111E+03 -0.78363979232E+03  0.64441851876E+03  0.12778097898E+04  0.00000000000E+00 0.  1.
<mgrwt>
<rscale>  0 0.22493358E+04</rscale>
<asrwt>0</asrwt>
<pdfrwt beam="1">  1        1 0.36345300E+00 0.22493358E+04</pdfrwt>
<pdfrwt beam="2">  1       -1 0.82370864E-01 0.22493358E+04</pdfrwt>
<totfact> 0.22427498E+00</totfact>
</mgrwt>
</event>
<event>
 6    1  0.1014650E-006  0.2513591E+04  0.7818608E-02  0.8398160E-01
          2   -1    0    0  501    0  0.00000000000E+00  0.00000000000E+00  0.13647817935E+04  0.13647817935E+04  0.00000000000E+00 0. -1.
         -2   -1    0    0    0  501 -0.00000000000E+00 -0.00000000000E+00 -0.11573536006E+04  0.11573536006E+04  0.00000000000E+00 0.  1.
         23    2    1    2    0    0 -0.27079600149E+03 -0.63465677877E+03 -0.94795003165E+03  0.11763945040E+04  0.95786561438E+02 0.  0.
         11    1    3    3    0    0 -0.14620695480E+03 -0.42855641647E+03 -0.56573121910E+03  0.72463017325E+03  0.00000000000E+00 0. -1.
        -11    1    3    3    0    0 -0.12458904668E+03 -0.20610036230E+03 -0.38221881255E+03  0.45176433077E+03  0.00000000000E+00 0.  1.
         22    1    1    2    0    0  0.27079600149E+03  0.63465677877E+03  0.11553782246E+04  0.13457408900E+04  0.00000000000E+00 0. -1.
<mgrwt>
<rscale>  0 0.25135912E+04</rscale>
<asrwt>0</asrwt>
<pdfrwt beam="1">  1        2 0.20996643E+00 0.25135912E+04</pdfrwt>
<pdfrwt beam="2">  1       -2 0.17805440E+00 0.25135912E+04</pdfrwt>
<totfact> 0.25266981E+00</totfact>
</mgrwt>
</event>
<event>
 6    1  0.1014650E-006  0.2173644E+03  0.7818608E-02  0.1135863E+00
         -2   -1    0    0    0  501 -0.00000000000E+00  0.00000000000E+00  0.18615700990E+02  0.18615700990E+02  0.00000000000E+00 0.  1.
          2   -1    0    0  501    0  0.00000000000E+00 -0.00000000000E+00 -0.63450839419E+03  0.63450839419E+03  0.00000000000E+00 0. -1.
         23    2    1    2    0    0  0.26985505327E+02  0.71480964860E+02 -0.50477154670E+03  0.51826989600E+03  0.89283956650E+02 0.  0.
         11    1    3    3    0    0  0.93702280308E+01 -0.15642199067E+01 -0.29995625858E+03  0.30010665607E+03  0.00000000000E+00 0. -1.
        -11    1    3    3    0    0  0.17615277296E+02  0.73045184767E+02 -0.20481528812E+03  0.21816323994E+03  0.00000000000E+00 0.  1.
         22    1    1    2    0    0 -0.26985505327E+02 -0.71480964860E+02 -0.11112114650E+03  0.13485419917E+03  0.00000000000E+00 0.  1.
<mgrwt>
<rscale>  0 0.21736438E+03</rscale>
<asrwt>0</asrwt>
<pdfrwt beam="1">  1        2 0.97616668E-01 0.21736438E+03</pdfrwt>
<pdfrwt beam="2">  1       -2 0.28639542E-02 0.21736438E+03</pdfrwt>
<totfact> 0.20992702E+04</totfact>
</mgrwt>
</event>
<event>
 6    1  0.1014650E-006  0.3101406E+04  0.7818608E-02  0.8215352E-01
         -1   -1    0    0    0  501 -0.00000000000E+00  0.00000000000E+00  0.12695006503E+04  0.12695006503E+04  0.00000000000E+00 0.  1.
          1   -1    0    0  501    0  0.00000000000E+00 -0.00000000000E+00 -0.18941929208E+04  0.18941929208E+04  0.00000000000E+00 0. -1.
         23    2    1    2    0    0 -0.10043366657E+04 -0.69301496901E+03 -0.12863428526E+04  0.17756217508E+04  0.95878997624E+02 0.  0.
         11    1    3    3    0    0 -0.75969724828E+03 -0.48889129592E+03 -0.90580285281E+03  0.12793097422E+04  0.00000000000E+00 0. -1.
        -11    1    3    3    0    0 -0.24463941737E+03 -0.20412367309E+03 -0.38053999983E+03  0.49631200864E+03  0.00000000000E+00 0.  1.
         22    1    1    2    0    0  0.10043366657E+04  0.69301496901E+03  0.66165058219E+03  0.13880718202E+04  0.00000000000E+00 0.  1.
<mgrwt>
<rscale>  0 0.31014056E+04</rscale>
<asrwt>0</asrwt>
<pdfrwt beam="1">  1        1 0.29141429E+00 0.31014056E+04</pdfrwt>
<pdfrwt beam="2">  1       -1 0.19530779E+00 0.31014056E+04</pdfrwt>
<totfact> 0.48121919E-01</totfact>
</mgrwt>
</event>
<event>
 6    1  0.1014650E-006  0.2220268E+04  0.7818608E-02  0.8510039E-01
          2   -1    0    0  501    0  0.00000000000E+00  0.00000000000E+00  0.24114039612E+04  0.24114039612E+04  0.00000000000E+00 0. -1.
         -2   -1    0    0    0  501 -0.00000000000E+00 -0.00000000000E+00 -0.51107074411E+03  0.51107074411E+03  0.00000000000E+00 0.  1.
         23    2    1    2    0    0  0.48450667274E+03 -0.26243054301E+02 -0.35996206882E+03  0.61068531324E+03  0.89041827176E+02 0.  0.
         11    1    3    3    0    0  0.33591750878E+03  0.17529755255E+02 -0.27172262879E+03  0.43241305718E+03  0.00000000000E+00 0.  1.
        -11    1    3    3    0    0  0.14858916396E+03 -0.43772809556E+02 -0.88239440031E+02  0.17827225606E+03  0.00000000000E+00 0. -1.
         22    1    1    2    0    0 -0.48450667274E+03  0.26243054301E+02  0.22602952859E+04  0.23117893921E+04  0.00000000000E+00 0. -1.
<mgrwt>
<rscale>  0 0.22202685E+04</rscale>
<asrwt>0</asrwt>
<pdfrwt beam="1">  1        2 0.37098522E+00 0.22202685E+04</pdfrwt>
<pdfrwt beam="2">  1       -2 0.78626270E-01 0.22202685E+04</pdfrwt>
<totfact> 0.51354894E+00</totfact>
</mgrwt>
</event>
<event>
 6    1  0.1014650E-006  0.5416413E+04  0.7818608E-02  0.7767297E-01
          2   -1    0    0  501    0  0.00000000000E+00  0.00000000000E+00  0.30035666149E+04  0.30035666149E+04  0.00000000000E+00 0. -1.
         -2   -1    0    0    0  501 -0.00000000000E+00 -0.00000000000E+00 -0.24418907996E+04  0.24418907996E+04  0.00000000000E+00 0.  1.
         23    2    1    2    0    0 -0.18874579848E+03  0.27002761987E+04  0.22549584756E+03  0.27177966041E+04  0.91942799714E+02 0.  0.
         11    1    3    3    0    0 -0.11397049633E+03  0.17680716377E+04  0.19035888700E+03  0.17819380169E+04  0.00000000000E+00 0. -1.
        -11    1    3    3    0    0 -0.74775302150E+02  0.93220456098E+03  0.35136960565E+02  0.93585858724E+03  0.00000000000E+00 0.  1.
         22    1    1    2    0    0  0.18874579848E+03 -0.27002761987E+04  0.33617996767E+03  0.27276608104E+04  0.00000000000E+00 0.  1.
<mgrwt>
<rscale>  0 0.54164127E+04</rscale>
<asrwt>0</asrwt>
<pdfrwt beam="1">  1        2 0.46208717E+00 0.54164127E+04</pdfrwt>
<pdfrwt beam="2">  1       -2 0.37567551E+00 0.54164127E+04</pdfrwt>
<totfact> 0.13026244E-02</totfact>
</mgrwt>
</event>
<event>
 6    1  0.1014650E-006  0.1190362E+04  0.7818608E-02  0.9121334E-01
          1   -1    0    0  501    0  0.00000000000E+00  0.00000000000E+00  0.13921797469E+04  0.13921797469E+04  0.00000000000E+00 0. -1.
         -1   -1    0    0    0  501 -0.00000000000E+00 -0.00000000000E+00 -0.25445033414E+03  0.25445033414E+03  0.00000000000E+00 0.  1.
         23    2    1    2    0    0  0.43268477739E+03 -0.40315109716E+03  0.54781917975E+03  0.81132115211E+03  0.91592764155E+02 0.  0.
         11    1    3    3    0    0  0.32367536432E+03 -0.32562862799E+03  0.37518130564E+03  0.59292559140E+03  0.00000000000E+00 0. -1.
        -11    1    3    3    0    0  0.10900941306E+03 -0.77522469165E+02  0.17263787411E+03  0.21839556071E+03  0.00000000000E+00 0.  1.
         22    1    1    2    0    0 -0.43268477739E+03  0.40315109716E+03  0.58991023301E+03  0.83530892892E+03  0.00000000000E+00 0. -1.
<mgrwt>
<rscale>  0 0.11903623E+04</rscale>
<asrwt>0</asrwt>
<pdfrwt beam="1">  1        1 0.21418150E+00 0.11903623E+04</pdfrwt>
<pdfrwt beam="2">  1       -1 0.39146206E-01 0.11903623E+04</pdfrwt>
<totfact> 0.48808431E+01</totfact>
</mgrwt>
</event>
<event>
 6    1  0.1014650E-006  0.1376098E+04  0.7818608E-02  0.8971304E-01
          1   -1    0    0  501    0  0.00000000000E+00  0.00000000000E+00  0.75853452160E+03  0.75853452160E+03  0.00000000000E+00 0. -1.
         -1   -1    0    0    0  501 -0.00000000000E+00 -0.00000000000E+00 -0.62411300464E+03  0.62411300464E+03  0.00000000000E+00 0.  1.
         23    2    1    2    0    0 -0.58489082259E+03 -0.32560970207E+03 -0.79643534951E+02  0.67983688398E+03  0.87841583110E+02 0.  0.
         13    1    3    3    0    0 -0.19507353453E+03 -0.15028520060E+03 -0.50794226994E+02  0.25143464138E+03  0.00000000000E+00 0. -1.
        -13    1    3    3    0    0 -0.38981728806E+03 -0.17532450147E+03 -0.28849307956E+02  0.42840224259E+03  0.00000000000E+00 0.  1.
         22    1    1    2    0    0  0.58489082259E+03  0.32560970207E+03  0.21406505190E+03  0.70281064226E+03  0.00000000000E+00 0. -1.
<mgrwt>
<rscale>  0 0.13760978E+04</rscale>
<asrwt>0</asrwt>
<pdfrwt beam="1">  1        1 0.11669762E+00 0.13760978E+04</pdfrwt>
<pdfrwt beam="2">  1       -1 0.96017385E-01 0.13760978E+04</pdfrwt>
<totfact> 0.24582623E+01</totfact>
</mgrwt>
</event>
<event>
 6    1  0.1014650E-006  0.4879348E+03  0.7818608E-02  0.1016977E+00
          2   -1    0    0  501    0  0.00000000000E+00  0.00000000000E+00  0.83615703853E+03  0.83615703853E+03  0.00000000000E+00 0. -1.
         -2   -1    0    0    0  501 -0.00000000000E+00 -0.00000000000E+00 -0.71182908185E+02  0.71182908185E+02  0.00000000000E+00 0.  1.
         23    2    1    2    0    0 -0.62449451059E+02 -0.19349629088E+03  0.17586363702E+03  0.28412896970E+03  0.91980998449E+02 0.  0.
         11    1    3    3    0    0 -0.16437553646E+02 -0.61370702855E+02  0.11536070300E+03  0.13169908175E+03  0.00000000000E+00 0. -1.
        -11    1    3    3    0    0 -0.46011897413E+02 -0.13212558803E+03  0.60502934026E+02  0.15242988795E+03  0.00000000000E+00 0.  1.
         22    1    1    2    0    0  0.62449451059E+02  0.19349629088E+03  0.58911049332E+03  0.62321097701E+03  0.00000000000E+00 0. -1.
<mgrwt>
<rscale>  0 0.48793479E+03</rscale>
<asrwt>0</asrwt>
<pdfrwt beam="1">  1        2 0.12863954E+00 0.48793479E+03</pdfrwt>
<pdfrwt beam="2">  1       -2 0.10951217E-01 0.48793479E+03</pdfrwt>
<totfact> 0.19250279E+03</totfact>
</mgrwt>
</event>
<event>
 6    1  0.1014650E-006  0.2093730E+04  0.7818608E-02  0.8564010E-01
          2   -1    0    0  501    0  0.00000000000E+00  0.00000000000E+00  0.17604604285E+04  0.17604604285E+04  0.00000000000E+00 0. -1.
         -2   -1    0    0    0  501 -0.00000000000E+00 -0.00000000000E+00 -0.62252261791E+03  0.62252261791E+03  0.00000000000E+00 0.  1.
         23    2    1    2    0    0 -0.19487709680E+03  0.23191142784E+03  0.17081956890E+04  0.17372632610E+04  0.91603127113E+02 0.  0.
         11    1    3    3    0    0 -0.80755527268E+02  0.16588440790E+03  0.97216272601E+03  0.98951475876E+03  0.00000000000E+00 0.  1.
        -11    1    3    3    0    0 -0.11412156954E+03  0.66027019944E+02  0.73603296301E+03  0.74774850226E+03  0.00000000000E+00 0. -1.
         22    1    1    2    0    0  0.19487709680E+03 -0.23191142784E+03 -0.57025787848E+03  0.64571978535E+03  0.00000000000E+00 0.  1.
<mgrwt>
<rscale>  0 0.20937301E+04</rscale>
<asrwt>0</asrwt>
<pdfrwt beam="1">  1        2 0.27084006E+00 0.20937301E+04</pdfrwt>
<pdfrwt beam="2">  1       -2 0.95772711E-01 0.20937301E+04</pdfrwt>
<totfact> 0.76530368E+00</totfact>
</mgrwt>
</event>
<event>
 6    1  0.1014650E-006  0.1282156E+04  0.7818608E-02  0.9043837E-01
         -1   -1    0    0    0  501 -0.00000000000E+00  0.00000000000E+00  0.30858828954E+03  0.30858828954E+03  0.00000000000E+00 0.  1.
          1   -1    0    0  501    0  0.00000000000E+00 -0.00000000000E+00 -0.13318096965E+04  0.13318096965E+04  0.00000000000E+00 0. -1.
         23    2    1    2    0    0  0.50086783476E+03 -0.17714304313E+03 -0.66745543656E+02  0.54627992901E+03  0.10825224071E+03 0.  0.
         13    1    3    3    0    0  0.89006554188E+02 -0.78151123219E+02 -0.93029845017E+01  0.11881207964E+03  0.00000000000E+00 0.  1.
        -13    1    3    3    0    0  0.41186128057E+03 -0.98991919915E+02 -0.57442559155E+02  0.42746784937E+03  0.00000000000E+00 0. -1.
         22    1    1    2    0    0 -0.50086783476E+03  0.17714304313E+03 -0.95647586325E+03  0.10941180570E+04  0.00000000000E+00 0. -1.
<mgrwt>
<rscale>  0 0.12821558E+04</rscale>
<asrwt>0</asrwt>
<pdfrwt beam="1">  1        1 0.20489380E+00 0.12821558E+04</pdfrwt>
<pdfrwt beam="2">  1       -1 0.47475121E-01 0.12821558E+04</pdfrwt>
<totfact> 0.37395695E+01</totfact>
</mgrwt>
</event>
<event>
 6    1  0.1014650E-006  0.1803026E+04  0.7818608E-02  0.8704692E-01
          1   -1    0    0  501    0  0.00000000000E+00  0.00000000000E+00  0.23580623116E+04  0.23580623116E+04  0.00000000000E+00 0. -1.
         -1   -1    0    0    0  501 -0.00000000000E+00 -0.00000000000E+00 -0.34465842377E+03  0.34465842377E+03  0.00000000000E+00 0.  1.
         23    2    1    2    0    0  0.17561073628E+02  0.26817588580E+03  0.22955518739E+04  0.23130616754E+04  0.92028317667E+02 0.  0.
         13    1    3    3    0    0  0.43076089097E+02  0.91226431070E+02  0.64280988831E+03  0.65067838729E+03  0.00000000000E+00 0.  1.
        -13    1    3    3    0    0 -0.25515015469E+02  0.17694945473E+03  0.16527419856E+04  0.16623832881E+04  0.00000000000E+00 0. -1.
         22    1    1    2    0    0 -0.17561073628E+02 -0.26817588580E+03 -0.28214798605E+03  0.38965906003E+03  0.00000000000E+00 0.  1.
<mgrwt>
<rscale>  0 0.18030264E+04</rscale>
<asrwt>0</asrwt>
<pdfrwt beam="1">  1        1 0.36277881E+00 0.18030264E+04</pdfrwt>
<pdfrwt beam="2">  1       -1 0.53024374E-01 0.18030264E+04</pdfrwt>
<totfact> 0.57485310E+00</totfact>
</mgrwt>
</event>
<event>
 6    1  0.1014650E-006  0.2452449E+04  0.7818608E-02  0.8420124E-01
          2   -1    0    0  501    0  0.00000000000E+00  0.00000000000E+00  0.10262130895E+04  0.10262130895E+04  0.00000000000E+00 0. -1.
         -2   -1    0    0    0  501 -0.00000000000E+00 -0.00000000000E+00 -0.14652189646E+04  0.14652189646E+04  0.00000000000E+00 0.  1.
         23    2    1    2    0    0 -0.11850446117E+04 -0.67043922754E+02 -0.52563852666E+03  0.13013350682E+04  0.91386430479E+02 0.  0.
         11    1    3    3    0    0 -0.92580605289E+03 -0.14376242506E+02 -0.40920932668E+03  0.10123121045E+04  0.00000000000E+00 0.  1.
        -11    1    3    3    0    0 -0.25923855884E+03 -0.52667680248E+02 -0.11642919998E+03  0.28902296369E+03  0.00000000000E+00 0. -1.
         22    1    1    2    0    0  0.11850446117E+04  0.67043922754E+02  0.86632651535E+02  0.11900969858E+04  0.00000000000E+00 0. -1.
<mgrwt>
<rscale>  0 0.24524493E+04</rscale>
<asrwt>0</asrwt>
<pdfrwt beam="1">  1        2 0.15787894E+00 0.24524493E+04</pdfrwt>
<pdfrwt beam="2">  1       -2 0.22541830E+00 0.24524493E+04</pdfrwt>
<totfact> 0.19818156E+00</totfact>
</mgrwt>
</event>
<event>
 6    1  0.1014650E-006  0.3353860E+04  0.7818608E-02  0.8149324E-01
         -1   -1    0    0    0  501 -0.00000000000E+00  0.00000000000E+00  0.89415531730E+03  0.89415531730E+03  0.00000000000E+00 0.  1.
          1   -1    0    0  501    0  0.00000000000E+00 -0.00000000000E+00 -0.31449730695E+04  0.31449730695E+04  0.00000000000E+00 0. -1.
         23    2    1    2    0    0  0.68554214029E+03 -0.21398576138E+03  0.69708398594E+03  0.10050086479E+04  0.91424103664E+02 0.  0.
         13    1    3    3    0    0  0.10620559293E+03 -0.69321996197E+02  0.12052913250E+03  0.17496410748E+03  0.00000000000E+00 0. -1.
        -13    1    3    3    0    0  0.57933654737E+03 -0.14466376518E+03  0.57655485344E+03  0.83004454043E+03  0.00000000000E+00 0.  1.
         22    1    1    2    0    0 -0.68554214029E+03  0.21398576138E+03 -0.29479017381E+04  0.30341197389E+04  0.00000000000E+00 0. -1.
<mgrwt>
<rscale>  0 0.33538601E+04</rscale>
<asrwt>0</asrwt>
<pdfrwt beam="1">  1        1 0.48384202E+00 0.33538601E+04</pdfrwt>
<pdfrwt beam="2">  1       -1 0.13756236E+00 0.33538601E+04</pdfrwt>
<totfact> 0.16919499E-01</totfact>
</mgrwt>
</event>
<event>
 6    1  0.1014650E-006  0.4474985E+04  0.7818608E-02  0.7915031E-01
          2   -1    0    0  501    0  0.00000000000E+00  0.00000000000E+00  0.25795689477E+04  0.25795689477E+04  0.00000000000E+00 0. -1.
         -2   -1    0    0    0  501 -0.00000000000E+00 -0.00000000000E+00 -0.19407786229E+04  0.19407786229E+04  0.00000000000E+00 0.  1.
         23    2    1    2    0    0 -0.17193638617E+04  0.43636460304E+03 -0.10564208400E+04  0.20667039434E+04  0.92811867743E+02 0.  0.
         11    1    3    3    0    0 -0.40537542188E+03  0.13099051777E+03 -0.28744188604E+03  0.51391690598E+03  0.00000000000E+00 0.  1.
        -11    1    3    3    0    0 -0.13139884399E+04  0.30537408527E+03 -0.76897895394E+03  0.15527870374E+04  0.00000000000E+00 0. -1.
         22    1    1    2    0    0  0.17193638617E+04 -0.43636460304E+03  0.16952111649E+04  0.24536436272E+04  0.00000000000E+00 0. -1.
<mgrwt>
<rscale>  0 0.44749848E+04</rscale>
<asrwt>0</asrwt>
<pdfrwt beam="1">  1        2 0.39685676E+00 0.44749848E+04</pdfrwt>
<pdfrwt beam="2">  1       -2 0.29858132E+00 0.44749848E+04</pdfrwt>
<totfact> 0.77015972E-02</totfact>
</mgrwt>
</event>
<event>
 6    1  0.1014650E-006  0.3940740E+04  0.7818608E-02  0.8016609E-01
          2   -1    0    0  501    0  0.00000000000E+00  0.00000000000E+00  0.30806270387E+04  0.30806270387E+04  0.00000000000E+00 0. -1.
         -2   -1    0    0    0  501 -0.00000000000E+00 -0.00000000000E+00 -0.12602491190E+04  0.12602491190E+04  0.00000000000E+00 0.  1.
         23    2    1    2    0    0  0.57587951979E+02  0.18681801779E+04  0.15939693732E+04  0.24581455930E+04  0.91257024459E+02 0.  0.
         11    1    3    3    0    0 -0.22744530977E+02  0.67877351151E+03  0.57263521809E+03  0.88834784100E+03  0.00000000000E+00 0.  1.
        -11    1    3    3    0    0  0.80332482957E+02  0.11894066664E+04  0.10213341551E+04  0.15697977520E+04  0.00000000000E+00 0. -1.
         22    1    1    2    0    0 -0.57587951979E+02 -0.18681801779E+04  0.22640854658E+03  0.18827305647E+04  0.00000000000E+00 0. -1.
<mgrwt>
<rscale>  0 0.39407398E+04</rscale>
<asrwt>0</asrwt>
<pdfrwt beam="1">  1        2 0.47394262E+00 0.39407398E+04</pdfrwt>
<pdfrwt beam="2">  1       -2 0.19388448E+00 0.39407398E+04</pdfrwt>
<totfact> 0.17904123E-01</totfact>
</mgrwt>
</event>
<event>
 6    1  0.1014650E-006  0.9119189E+03  0.7818608E-02  0.9410804E-01
         -1   -1    0    0    0  501 -0.00000000000E+00  0.00000000000E+00  0.19533608828E+03  0.19533608828E+03  0.00000000000E+00 0.  1.
          1   -1    0    0  501    0  0.00000000000E+00 -0.00000000000E+00 -0.10643144994E+04  0.10643144994E+04  0.00000000000E+00 0. -1.
         23    2    1    2    0    0  0.18929358205E+03  0.30580911086E+02 -0.10033394440E+04  0.10255135777E+04  0.90668659040E+02 0.  0.
         13    1    3    3    0    0  0.73168848031E+02  0.51909541861E+02 -0.33388292484E+03  0.34572545229E+03  0.00000000000E+00 0.  1.
        -13    1    3    3    0    0  0.11612473402E+03 -0.21328630775E+02 -0.66945651917E+03  0.67978812538E+03  0.00000000000E+00 0. -1.
         22    1    1    2    0    0 -0.18929358205E+03 -0.30580911086E+02  0.13436103286E+03  0.23413701006E+03  0.00000000000E+00 0.  1.
<mgrwt>
<rscale>  0 0.91191892E+03</rscale>
<asrwt>0</asrwt>
<pdfrwt beam="1">  1        1 0.16374069E+00 0.91191892E+03</pdfrwt>
<pdfrwt beam="2">  1       -1 0.30051706E-01 0.91191892E+03</pdfrwt>
<totfact> 0.13806708E+02</totfact>
</mgrwt>
</event>
<event>
 6    1  0.1050439E-006  0.3339435E+04  0.7818608E-02  0.8152933E-01
          2   -1    0    0  501    0  0.00000000000E+00  0.00000000000E+00  0.20601896262E+04  0.20601896262E+04  0.00000000000E+00 0. -1.
         -2   -1    0    0    0  501 -0.00000000000E+00 -0.00000000000E+00 -0.13532521275E+04  0.13532521275E+04  0.00000000000E+00 0.  1.
         23    2    1    2    0    0 -0.23500380053E+03 -0.11618376595E+04 -0.84642339519E+03  0.14594653977E+04  0.92266732342E+02 0.  0.
         11    1    3    3    0    0 -0.15662558774E+03 -0.59347278583E+03 -0.47302840406E+03  0.77491766873E+03  0.00000000000E+00 0. -1.
        -11    1    3    3    0    0 -0.78378212796E+02 -0.56836487363E+03 -0.37339499114E+03  0.68454772896E+03  0.00000000000E+00 0.  1.
         22    1    1    2    0    0  0.23500380053E+03  0.11618376595E+04  0.15533608939E+04  0.19539763561E+04  0.00000000000E+00 0. -1.
<mgrwt>
<rscale>  0 0.33394347E+04</rscale>
<asrwt>0</asrwt>
<pdfrwt beam="1">  1        2 0.31695225E+00 0.33394347E+04</pdfrwt>
<pdfrwt beam="2">  1       -2 0.20819264E+00 0.33394347E+04</pdfrwt>
<totfact> 0.60566227E-01</totfact>
</mgrwt>
</event>
<event>
 6    1  0.1014650E-006  0.7886461E+03  0.7818608E-02  0.9576598E-01
         -2   -1    0    0    0  501 -0.00000000000E+00  0.00000000000E+00  0.12557127805E+03  0.12557127805E+03  0.00000000000E+00 0.  1.
          2   -1    0    0  501    0  0.00000000000E+00 -0.00000000000E+00 -0.12382663344E+04  0.12382663344E+04  0.00000000000E+00 0. -1.
         23    2    1    2    0    0  0.19472049358E+03  0.24291445983E+03 -0.96655109989E+03  0.10199167474E+04  0.95318610614E+02 0.  0.
         13    1    3    3    0    0  0.10421447816E+03  0.58119266891E+02 -0.32801044333E+03  0.34904062454E+03  0.00000000000E+00 0. -1.
        -13    1    3    3    0    0  0.90506015420E+02  0.18479519294E+03 -0.63854065656E+03  0.67087612288E+03  0.00000000000E+00 0.  1.
         22    1    1    2    0    0 -0.19472049358E+03 -0.24291445983E+03 -0.14614395648E+03  0.34392086507E+03  0.00000000000E+00 0.  1.
<mgrwt>
<rscale>  0 0.78864615E+03</rscale>
<asrwt>0</asrwt>
<pdfrwt beam="1">  1        2 0.19050251E+00 0.78864615E+03</pdfrwt>
<pdfrwt beam="2">  1       -2 0.19318659E-01 0.78864615E+03</pdfrwt>
<totfact> 0.41031616E+02</totfact>
</mgrwt>
</event>
<event>
 6    1  0.1014650E-006  0.1904727E+04  0.7818608E-02  0.8652507E-01
         -3   -1    0    0    0  501 -0.00000000000E+00  0.00000000000E+00  0.73183165091E+03  0.73183165091E+03  0.00000000000E+00 0.  1.
          3   -1    0    0  501    0  0.00000000000E+00 -0.00000000000E+00 -0.12393512031E+04  0.12393512031E+04  0.00000000000E+00 0. -1.
         23    2    1    2    0    0 -0.58926730120E+01 -0.50517576510E+03  0.57831561368E+03  0.77357052747E+03  0.93408429578E+02 0.  0.
         11    1    3    3    0    0 -0.54343579449E+01 -0.11460736400E+03  0.77473512778E+02  0.13844322054E+03  0.00000000000E+00 0. -1.
        -11    1    3    3    0    0 -0.45831506703E+00 -0.39056840110E+03  0.50084210090E+03  0.63512730694E+03  0.00000000000E+00 0.  1.
         22    1    1    2    0    0  0.58926730120E+01  0.50517576510E+03 -0.10858351659E+04  0.11976123265E+04  0.00000000000E+00 0. -1.
<mgrwt>
<rscale>  0 0.19047272E+04</rscale>
<asrwt>0</asrwt>
<pdfrwt beam="1">  1        3 0.19066941E+00 0.19047272E+04</pdfrwt>
<pdfrwt beam="2">  1       -3 0.11258949E+00 0.19047272E+04</pdfrwt>
<totfact> 0.27277184E-01</totfact>
</mgrwt>
</event>
<event>
 6    1  0.1014650E-006  0.2598038E+04  0.7818608E-02  0.8368868E-01
         -2   -1    0    0    0  501 -0.00000000000E+00  0.00000000000E+00  0.94796585074E+03  0.94796585074E+03  0.00000000000E+00 0.  1.
          2   -1    0    0  501    0  0.00000000000E+00 -0.00000000000E+00 -0.17800746431E+04  0.17800746431E+04  0.00000000000E+00 0. -1.
         23    2    1    2    0    0 -0.51192357319E+03  0.95294764131E+03  0.33548667251E+03  0.11363576983E+04  0.92642103223E+02 0.  0.
         13    1    3    3    0    0 -0.26072250185E+03  0.57583478532E+03  0.21202536426E+03  0.66672083966E+03  0.00000000000E+00 0. -1.
        -13    1    3    3    0    0 -0.25120107134E+03  0.37711285600E+03  0.12346130825E+03  0.46963685868E+03  0.00000000000E+00 0.  1.
         22    1    1    2    0    0  0.51192357319E+03 -0.95294764131E+03 -0.11675954648E+04  0.15916827955E+04  0.00000000000E+00 0. -1.
<mgrwt>
<rscale>  0 0.25980377E+04</rscale>
<asrwt>0</asrwt>
<pdfrwt beam="1">  1        2 0.27385763E+00 0.25980377E+04</pdfrwt>
<pdfrwt beam="2">  1       -2 0.14584090E+00 0.25980377E+04</pdfrwt>
<totfact> 0.25276400E+00</totfact>
</mgrwt>
</event>
<event>
 6    1  0.1014650E-006  0.2400756E+04  0.7818608E-02  0.8439221E-01
          1   -1    0    0  501    0  0.00000000000E+00  0.00000000000E+00  0.14464670926E+04  0.14464670926E+04  0.00000000000E+00 0. -1.
         -1   -1    0    0    0  501 -0.00000000000E+00 -0.00000000000E+00 -0.99615601265E+03  0.99615601265E+03  0.00000000000E+00 0.  1.
         23    2    1    2    0    0 -0.20886761989E+03  0.64740053978E+03  0.12299486817E+04  0.14079309135E+04  0.82113069256E+02 0.  0.
         11    1    3    3    0    0 -0.32475798758E+02  0.22186170464E+03  0.38260517260E+03  0.44346816299E+03  0.00000000000E+00 0.  1.
        -11    1    3    3    0    0 -0.17639182113E+03  0.42553883514E+03  0.84734350911E+03  0.96446275055E+03  0.00000000000E+00 0. -1.
         22    1    1    2    0    0  0.20886761989E+03 -0.64740053978E+03 -0.77963760175E+03  0.10346921917E+04  0.00000000000E+00 0.  1.
<mgrwt>
<rscale>  0 0.24007556E+04</rscale>
<asrwt>0</asrwt>
<pdfrwt beam="1">  1        1 0.22253340E+00 0.24007556E+04</pdfrwt>
<pdfrwt beam="2">  1       -1 0.15325477E+00 0.24007556E+04</pdfrwt>
<totfact> 0.21024500E+00</totfact>
</mgrwt>
</event>
<event>
 6    1  0.1014650E-006  0.2557859E+04  0.7818608E-02  0.8382658E-01
         -2   -1    0    0    0  501 -0.00000000000E+00  0.00000000000E+00  0.45178789547E+03  0.45178789547E+03  0.00000000000E+00 0.  1.
          2   -1    0    0  501    0  0.00000000000E+00 -0.00000000000E+00 -0.36204182089E+04  0.36204182089E+04  0.00000000000E+00 0. -1.
         23    2    1    2    0    0  0.22747899161E+03 -0.59659004521E+03 -0.33475029273E+04  0.34091361340E+04  0.93632035419E+02 0.  0.
         11    1    3    3    0    0  0.76736133392E+02 -0.32801417983E+03 -0.18127764104E+04  0.18438112838E+04  0.00000000000E+00 0.  1.
        -11    1    3    3    0    0  0.15074285822E+03 -0.26857586537E+03 -0.15347265169E+04  0.15653248501E+04  0.00000000000E+00 0. -1.
         22    1    1    2    0    0 -0.22747899161E+03  0.59659004521E+03  0.17887261386E+03  0.66306997040E+03  0.00000000000E+00 0.  1.
<mgrwt>
<rscale>  0 0.25578594E+04</rscale>
<asrwt>0</asrwt>
<pdfrwt beam="1">  1        2 0.55698742E+00 0.25578594E+04</pdfrwt>
<pdfrwt beam="2">  1       -2 0.69505830E-01 0.25578594E+04</pdfrwt>
<totfact> 0.11198671E+00</totfact>
</mgrwt>
</event>
<event>
 6    1  0.1014650E-006  0.1751175E+04  0.7818608E-02  0.8732704E-01
          2   -1    0    0  501    0  0.00000000000E+00  0.00000000000E+00  0.22426684098E+04  0.22426684098E+04  0.00000000000E+00 0. -1.
         -2   -1    0    0    0  501 -0.00000000000E+00 -0.00000000000E+00 -0.34184858941E+03  0.34184858941E+03  0.00000000000E+00 0.  1.
         23    2    1    2    0    0 -0.63148544135E+03  0.10584041130E+03  0.76471116725E+02  0.65106820292E+03  0.89810455140E+02 0.  0.
         11    1    3    3    0    0 -0.51843256195E+03  0.78340362983E+02  0.96164192504E+02  0.53306386641E+03  0.00000000000E+00 0.  1.
        -11    1    3    3    0    0 -0.11305287941E+03  0.27500048318E+02 -0.19693075779E+02  0.11800433650E+03  0.00000000000E+00 0. -1.
         22    1    1    2    0    0  0.63148544135E+03 -0.10584041130E+03  0.18243487037E+04  0.19334487963E+04  0.00000000000E+00 0. -1.
<mgrwt>
<rscale>  0 0.17511745E+04</rscale>
<asrwt>0</asrwt>
<pdfrwt beam="1">  1        2 0.34502590E+00 0.17511745E+04</pdfrwt>
<pdfrwt beam="2">  1       -2 0.52592092E-01 0.17511745E+04</pdfrwt>
<totfact> 0.15802503E+01</totfact>
</mgrwt>
</event>
<event>
 6    1  0.1014650E-006  0.3479703E+04  0.7818608E-02  0.8118617E-01
         -2   -1    0    0    0  501 -0.00000000000E+00  0.00000000000E+00  0.21086611168E+04  0.21086611168E+04  0.00000000000E+00 0.  1.
          2   -1    0    0  501    0  0.00000000000E+00 -0.00000000000E+00 -0.14355476545E+04  0.14355476545E+04  0.00000000000E+00 0. -1.
         23    2    1    2    0    0  0.10126791430E+04 -0.90402142759E+03 -0.76956102419E+03  0.15632788224E+04  0.94035730232E+02 0.  0.
         11    1    3    3    0    0  0.29254807983E+03 -0.31986774039E+03 -0.24505763692E+03  0.49794878830E+03  0.00000000000E+00 0. -1.
        -11    1    3    3    0    0  0.72013106315E+03 -0.58415368720E+03 -0.52450338728E+03  0.10653300341E+04  0.00000000000E+00 0.  1.
         22    1    1    2    0    0 -0.10126791430E+04  0.90402142759E+03  0.14426744865E+04  0.19809299489E+04  0.00000000000E+00 0.  1.
<mgrwt>
<rscale>  0 0.34797032E+04</rscale>
<asrwt>0</asrwt>
<pdfrwt beam="1">  1        2 0.22085348E+00 0.34797032E+04</pdfrwt>
<pdfrwt beam="2">  1       -2 0.32440940E+00 0.34797032E+04</pdfrwt>
<totfact> 0.25551297E-01</totfact>
</mgrwt>
</event>
<event>
 6    1  0.1014650E-006  0.2087574E+04  0.7818608E-02  0.8566737E-01
          4   -1    0    0  501    0  0.00000000000E+00  0.00000000000E+00  0.42773983804E+03  0.42773983804E+03  0.00000000000E+00 0. -1.
         -4   -1    0    0    0  501 -0.00000000000E+00 -0.00000000000E+00 -0.25470880059E+04  0.25470880059E+04  0.00000000000E+00 0.  1.
         23    2    1    2    0    0 -0.55951357281E+03  0.87463010803E+03 -0.93982320760E+03  0.14034232506E+04  0.91081802488E+02 0.  0.
         13    1    3    3    0    0 -0.52277725092E+02  0.46365365740E+02 -0.47409757669E+02  0.84441653248E+02  0.00000000000E+00 0. -1.
        -13    1    3    3    0    0 -0.50723584772E+03  0.82826474229E+03 -0.89241344993E+03  0.13189815974E+04  0.00000000000E+00 0.  1.
         22    1    1    2    0    0  0.55951357281E+03 -0.87463010803E+03 -0.11795249602E+04  0.15714045933E+04  0.00000000000E+00 0.  1.
<mgrwt>
<rscale>  0 0.20875737E+04</rscale>
<asrwt>0</asrwt>
<pdfrwt beam="1">  1        4 0.65806128E-01 0.20875737E+04</pdfrwt>
<pdfrwt beam="2">  1       -4 0.39185970E+00 0.20875737E+04</pdfrwt>
<totfact> 0.30846493E-02</totfact>
</mgrwt>
</event>
<event>
 6    1  0.1014650E-006  0.3419588E+04  0.7818608E-02  0.8133115E-01
         -1   -1    0    0    0  501 -0.00000000000E+00  0.00000000000E+00  0.83104380745E+03  0.83104380745E+03  0.00000000000E+00 0.  1.
          1   -1    0    0  501    0  0.00000000000E+00 -0.00000000000E+00 -0.35177401626E+04  0.35177401626E+04  0.00000000000E+00 0. -1.
         23    2    1    2    0    0  0.13776272756E+04  0.20175390873E+03 -0.26036679452E+04  0.29539881904E+04  0.91640110927E+02 0.  0.
         13    1    3    3    0    0  0.89091834799E+03  0.10298615959E+03 -0.16018120912E+04  0.18357950940E+04  0.00000000000E+00 0. -1.
        -13    1    3    3    0    0  0.48670892759E+03  0.98767749134E+02 -0.10018558540E+04  0.11181930963E+04  0.00000000000E+00 0.  1.
         22    1    1    2    0    0 -0.13776272756E+04 -0.20175390873E+03 -0.83028409944E+02  0.13947957797E+04  0.00000000000E+00 0.  1.
<mgrwt>
<rscale>  0 0.34195884E+04</rscale>
<asrwt>0</asrwt>
<pdfrwt beam="1">  1        1 0.54119079E+00 0.34195884E+04</pdfrwt>
<pdfrwt beam="2">  1       -1 0.12785289E+00 0.34195884E+04</pdfrwt>
<totfact> 0.10494927E-01</totfact>
</mgrwt>
</event>
<event>
 6    1  0.1014650E-006  0.1512364E+04  0.7818608E-02  0.8876273E-01
          2   -1    0    0  501    0  0.00000000000E+00  0.00000000000E+00  0.19500074464E+04  0.19500074464E+04  0.00000000000E+00 0. -1.
         -2   -1    0    0    0  501 -0.00000000000E+00 -0.00000000000E+00 -0.29323529954E+03  0.29323529954E+03  0.00000000000E+00 0.  1.
         23    2    1    2    0    0 -0.47242466271E+03 -0.57966165138E+03  0.96959086778E+03  0.12276587749E+04  0.88582868497E+02 0.  0.
         13    1    3    3    0    0 -0.22638574997E+03 -0.21021262958E+03  0.38371983826E+03  0.49262640175E+03  0.00000000000E+00 0.  1.
        -13    1    3    3    0    0 -0.24603891273E+03 -0.36944902181E+03  0.58587102952E+03  0.73503237311E+03  0.00000000000E+00 0. -1.
         22    1    1    2    0    0  0.47242466271E+03  0.57966165138E+03  0.68718127909E+03  0.10155839711E+04  0.00000000000E+00 0.  1.
<mgrwt>
<rscale>  0 0.15123637E+04</rscale>
<asrwt>0</asrwt>
<pdfrwt beam="1">  1        2 0.30000114E+00 0.15123637E+04</pdfrwt>
<pdfrwt beam="2">  1       -2 0.45113124E-01 0.15123637E+04</pdfrwt>
<totfact> 0.32046306E+01</totfact>
</mgrwt>
</event>
<event>
 6    1  0.1014650E-006  0.5431997E+03  0.7818608E-02  0.1003080E+00
          2   -1    0    0  501    0  0.00000000000E+00  0.00000000000E+00  0.34207309705E+03  0.34207309705E+03  0.00000000000E+00 0. -1.
         -2   -1    0    0    0  501 -0.00000000000E+00 -0.00000000000E+00 -0.21564537560E+03  0.21564537560E+03  0.00000000000E+00 0.  1.
         23    2    1    2    0    0 -0.72122987156E+02 -0.77137392490E+02 -0.18353430490E+03  0.23026105500E+03  0.90462200837E+02 0.  0.
         13    1    3    3    0    0 -0.41537126377E+02  0.11967720084E+02 -0.74796971092E+02  0.86389502118E+02  0.00000000000E+00 0.  1.
        -13    1    3    3    0    0 -0.30585860779E+02 -0.89105112574E+02 -0.10873733380E+03  0.14387155288E+03  0.00000000000E+00 0. -1.
         22    1    1    2    0    0  0.72122987156E+02  0.77137392490E+02  0.30996202635E+03  0.32745741765E+03  0.00000000000E+00 0. -1.
<mgrwt>
<rscale>  0 0.54319971E+03</rscale>
<asrwt>0</asrwt>
<pdfrwt beam="1">  1        2 0.52626630E-01 0.54319971E+03</pdfrwt>
<pdfrwt beam="2">  1       -2 0.33176212E-01 0.54319971E+03</pdfrwt>
<totfact> 0.80775980E+02</totfact>
</mgrwt>
</event>
<event>
 6    1  0.1014650E-006  0.1686162E+04  0.7818608E-02  0.8769297E-01
         -2   -1    0    0    0  501 -0.00000000000E+00  0.00000000000E+00  0.66722259368E+03  0.66722259368E+03  0.00000000000E+00 0.  1.
          2   -1    0    0  501    0  0.00000000000E+00 -0.00000000000E+00 -0.10652893941E+04  0.10652893941E+04  0.00000000000E+00 0. -1.
         23    2    1    2    0    0 -0.58448133880E+03 -0.15845731562E+03 -0.79877671820E+03  0.10063607677E+04  0.89390116341E+02 0.  0.
         11    1    3    3    0    0 -0.27192445757E+03 -0.67784566728E+02 -0.44288042210E+03  0.52409992023E+03  0.00000000000E+00 0. -1.
        -11    1    3    3    0    0 -0.31255688123E+03 -0.90672748897E+02 -0.35589629610E+03  0.48226084745E+03  0.00000000000E+00 0.  1.
         22    1    1    2    0    0  0.58448133880E+03  0.15845731562E+03  0.40070991777E+03  0.72615122012E+03  0.00000000000E+00 0.  1.
<mgrwt>
<rscale>  0 0.16861615E+04</rscale>
<asrwt>0</asrwt>
<pdfrwt beam="1">  1        2 0.16389067E+00 0.16861615E+04</pdfrwt>
<pdfrwt beam="2">  1       -2 0.10264963E+00 0.16861615E+04</pdfrwt>
<totfact> 0.16929842E+01</totfact>
</mgrwt>
</event>
<event>
 6    1  0.1014650E-006  0.1233999E+04  0.7818608E-02  0.9083607E-01
         -1   -1    0    0    0  501 -0.00000000000E+00  0.00000000000E+00  0.92978168923E+03  0.92978168923E+03  0.00000000000E+00 0.  1.
          1   -1    0    0  501    0  0.00000000000E+00 -0.00000000000E+00 -0.40943870851E+03  0.40943870851E+03  0.00000000000E+00 0. -1.
         23    2    1    2    0    0  0.15235621317E+03  0.58600642791E+03  0.37098170200E+03  0.71558208844E+03  0.88398828267E+02 0.  0.
         11    1    3    3    0    0  0.75700384512E+02  0.41929827203E+03  0.23003297185E+03  0.48420734947E+03  0.00000000000E+00 0. -1.
        -11    1    3    3    0    0  0.76655828657E+02  0.16670815588E+03  0.14094873016E+03  0.23137473898E+03  0.00000000000E+00 0.  1.
         22    1    1    2    0    0 -0.15235621317E+03 -0.58600642791E+03  0.14936127871E+03  0.62363830929E+03  0.00000000000E+00 0. -1.
<mgrwt>
<rscale>  0 0.12339994E+04</rscale>
<asrwt>0</asrwt>
<pdfrwt beam="1">  1        1 0.62990571E-01 0.12339994E+04</pdfrwt>
<pdfrwt beam="2">  1       -1 0.14304334E+00 0.12339994E+04</pdfrwt>
<totfact> 0.22745721E+01</totfact>
</mgrwt>
</event>
<event>
 6    1  0.1014650E-006  0.1984250E+04  0.7818608E-02  0.8614020E-01
         -1   -1    0    0    0  501 -0.00000000000E+00  0.00000000000E+00  0.27579891843E+03  0.27579891843E+03  0.00000000000E+00 0.  1.
          1   -1    0    0  501    0  0.00000000000E+00 -0.00000000000E+00 -0.35689487980E+04  0.35689487980E+04  0.00000000000E+00 0. -1.
         23    2    1    2    0    0 -0.45959303497E+03 -0.77239076331E+03 -0.24542624928E+04  0.26152985321E+04  0.92567703213E+02 0.  0.
         11    1    3    3    0    0 -0.37559368558E+03 -0.68055335306E+03 -0.20556536445E+04  0.21977113981E+04  0.00000000000E+00 0.  1.
        -11    1    3    3    0    0 -0.83999349391E+02 -0.91837410254E+02 -0.39860884826E+03  0.41758713406E+03  0.00000000000E+00 0. -1.
         22    1    1    2    0    0  0.45959303497E+03  0.77239076331E+03 -0.83888738676E+03  0.12294491843E+04  0.00000000000E+00 0.  1.
<mgrwt>
<rscale>  0 0.19842502E+04</rscale>
<asrwt>0</asrwt>
<pdfrwt beam="1">  1        1 0.54906903E+00 0.19842502E+04</pdfrwt>
<pdfrwt beam="2">  1       -1 0.42430604E-01 0.19842502E+04</pdfrwt>
<totfact> 0.11236699E+00</totfact>
</mgrwt>
</event>
<event>
 6    1  0.1014650E-006  0.2582194E+04  0.7818608E-02  0.8374275E-01
         -2   -1    0    0    0  501 -0.00000000000E+00  0.00000000000E+00  0.10422662757E+04  0.10422662757E+04  0.00000000000E+00 0.  1.
          2   -1    0    0  501    0  0.00000000000E+00 -0.00000000000E+00 -0.15993332839E+04  0.15993332839E+04  0.00000000000E+00 0. -1.
         23    2    1    2    0    0 -0.12873144592E+04  0.53723056761E+02 -0.22628866979E+03  0.13113819109E+04  0.91930792757E+02 0.  0.
         13    1    3    3    0    0 -0.64687760144E+03 -0.18722495464E+02 -0.11857783484E+03  0.65792238599E+03  0.00000000000E+00 0. -1.
        -13    1    3    3    0    0 -0.64043685773E+03  0.72445552225E+02 -0.10771083494E+03  0.65345952494E+03  0.00000000000E+00 0.  1.
         22    1    1    2    0    0  0.12873144592E+04 -0.53723056761E+02 -0.33077833837E+03  0.13302176486E+04  0.00000000000E+00 0. -1.
<mgrwt>
<rscale>  0 0.25821938E+04</rscale>
<asrwt>0</asrwt>
<pdfrwt beam="1">  1        2 0.24605127E+00 0.25821938E+04</pdfrwt>
<pdfrwt beam="2">  1       -2 0.16034866E+00 0.25821938E+04</pdfrwt>
<totfact> 0.24762661E+00</totfact>
</mgrwt>
</event>
<event>
 6    1  0.1014650E-006  0.1844312E+04  0.7818608E-02  0.8683083E-01
         -2   -1    0    0    0  501 -0.00000000000E+00  0.00000000000E+00  0.56112618465E+03  0.56112618465E+03  0.00000000000E+00 0.  1.
          2   -1    0    0  501    0  0.00000000000E+00 -0.00000000000E+00 -0.15154731716E+04  0.15154731716E+04  0.00000000000E+00 0. -1.
         23    2    1    2    0    0 -0.15289486014E+03  0.13600269518E+03 -0.14881575561E+04  0.15049112462E+04  0.90947104630E+02 0.  0.
         11    1    3    3    0    0 -0.15954421058E+03  0.14265211557E+03 -0.14018431873E+04  0.14180861408E+04  0.00000000000E+00 0. -1.
        -11    1    3    3    0    0  0.66493504335E+01 -0.66494203859E+01 -0.86314368869E+02  0.86825105390E+02  0.00000000000E+00 0.  1.
         22    1    1    2    0    0  0.15289486014E+03 -0.13600269518E+03  0.53381056918E+03  0.57168811001E+03  0.00000000000E+00 0.  1.
<mgrwt>
<rscale>  0 0.18443120E+04</rscale>
<asrwt>0</asrwt>
<pdfrwt beam="1">  1        2 0.23314972E+00 0.18443120E+04</pdfrwt>
<pdfrwt beam="2">  1       -2 0.86327105E-01 0.18443120E+04</pdfrwt>
<totfact> 0.13611885E+01</totfact>
</mgrwt>
</event>
<event>
 6    1  0.1014650E-006  0.1872226E+04  0.7818608E-02  0.8668806E-01
          1   -1    0    0  501    0  0.00000000000E+00  0.00000000000E+00  0.21543693482E+04  0.21543693482E+04  0.00000000000E+00 0. -1.
         -1   -1    0    0    0  501 -0.00000000000E+00 -0.00000000000E+00 -0.40675809215E+03  0.40675809215E+03  0.00000000000E+00 0.  1.
         23    2    1    2    0    0 -0.12606781306E+03 -0.90843181675E+03  0.11168391961E+04  0.14480170007E+04  0.91005413330E+02 0.  0.
         13    1    3    3    0    0  0.47930353279E+01 -0.26321332457E+03  0.31379361600E+03  0.40959816999E+03  0.00000000000E+00 0. -1.
        -13    1    3    3    0    0 -0.13086084838E+03 -0.64521849219E+03  0.80304558011E+03  0.10384188307E+04  0.00000000000E+00 0.  1.
         22    1    1    2    0    0  0.12606781306E+03  0.90843181675E+03  0.63077205992E+03  0.11131104396E+04  0.00000000000E+00 0.  1.
<mgrwt>
<rscale>  0 0.18722256E+04</rscale>
<asrwt>0</asrwt>
<pdfrwt beam="1">  1        1 0.33144143E+00 0.18722256E+04</pdfrwt>
<pdfrwt beam="2">  1       -1 0.62578169E-01 0.18722256E+04</pdfrwt>
<totfact> 0.56858000E+00</totfact>
</mgrwt>
</event>
<event>
 6    1  0.1014650E-006  0.1119052E+04  0.7818608E-02  0.9186819E-01
         -2   -1    0    0    0  501 -0.00000000000E+00  0.00000000000E+00  0.22478871509E+03  0.22478871509E+03  0.00000000000E+00 0.  1.
          2   -1    0    0  501    0  0.00000000000E+00 -0.00000000000E+00 -0.13927264207E+04  0.13927264207E+04  0.00000000000E+00 0. -1.
         23    2    1    2    0    0 -0.26740006533E+03 -0.39597526826E+03 -0.99846726295E+03  0.11105442896E+04  0.89847292011E+02 0.  0.
         11    1    3    3    0    0 -0.18195556287E+03 -0.28054889300E+03 -0.78514138938E+03  0.85338297940E+03  0.00000000000E+00 0. -1.
        -11    1    3    3    0    0 -0.85444502460E+02 -0.11542637526E+03 -0.21332587357E+03  0.25716131016E+03  0.00000000000E+00 0.  1.
         22    1    1    2    0    0  0.26740006533E+03  0.39597526826E+03 -0.16947044268E+03  0.50697084626E+03  0.00000000000E+00 0.  1.
<mgrwt>
<rscale>  0 0.11190517E+04</rscale>
<asrwt>0</asrwt>
<pdfrwt beam="1">  1        2 0.21426560E+00 0.11190517E+04</pdfrwt>
<pdfrwt beam="2">  1       -2 0.34582879E-01 0.11190517E+04</pdfrwt>
<totfact> 0.11348022E+02</totfact>
</mgrwt>
</event>
<event>
 6    1  0.1014650E-006  0.2875215E+04  0.7818608E-02  0.8280290E-01
          1   -1    0    0  501    0  0.00000000000E+00  0.00000000000E+00  0.26405277501E+04  0.26405277501E+04  0.00000000000E+00 0. -1.
         -1   -1    0    0    0  501 -0.00000000000E+00 -0.00000000000E+00 -0.78269016109E+03  0.78269016109E+03  0.00000000000E+00 0.  1.
         23    2    1    2    0    0  0.13077106897E+04  0.24725691429E+03  0.15725076552E+04  0.20620946983E+04  0.90614509079E+02 0.  0.
         13    1    3    3    0    0  0.81143704143E+03  0.14972803562E+03  0.10418311442E+04  0.13290074078E+04  0.00000000000E+00 0.  1.
        -13    1    3    3    0    0  0.49627364831E+03  0.97528878676E+02  0.53067651097E+03  0.73308729049E+03  0.00000000000E+00 0. -1.
         22    1    1    2    0    0 -0.13077106897E+04 -0.24725691429E+03  0.28532993386E+03  0.13611232130E+04  0.00000000000E+00 0. -1.
<mgrwt>
<rscale>  0 0.28752148E+04</rscale>
<asrwt>0</asrwt>
<pdfrwt beam="1">  1        1 0.40623503E+00 0.28752148E+04</pdfrwt>
<pdfrwt beam="2">  1       -1 0.12041387E+00 0.28752148E+04</pdfrwt>
<totfact> 0.57039084E-01</totfact>
</mgrwt>
</event>
<event>
 6    1  0.1014650E-006  0.4267746E+04  0.7818608E-02  0.7952609E-01
          1   -1    0    0  501    0  0.00000000000E+00  0.00000000000E+00  0.41236979036E+04  0.41236979036E+04  0.00000000000E+00 0. -1.
         -1   -1    0    0    0  501 -0.00000000000E+00 -0.00000000000E+00 -0.11042065955E+04  0.11042065955E+04  0.00000000000E+00 0.  1.
         23    2    1    2    0    0 -0.15636411529E+04 -0.12781268177E+04  0.66934543852E+03  0.21292326182E+04  0.83823678008E+02 0.  0.
         13    1    3    3    0    0 -0.10683994000E+04 -0.87742264788E+03  0.49889805961E+03  0.14697778930E+04  0.00000000000E+00 0. -1.
        -13    1    3    3    0    0 -0.49524175293E+03 -0.40070416984E+03  0.17044737892E+03  0.65945472518E+03  0.00000000000E+00 0.  1.
         22    1    1    2    0    0  0.15636411529E+04  0.12781268177E+04  0.23501458696E+04  0.30986718810E+04  0.00000000000E+00 0. -1.
<mgrwt>
<rscale>  0 0.42677462E+04</rscale>
<asrwt>0</asrwt>
<pdfrwt beam="1">  1        1 0.63441506E+00 0.42677462E+04</pdfrwt>
<pdfrwt beam="2">  1       -1 0.16987794E+00 0.42677462E+04</pdfrwt>
<totfact> 0.13981690E-02</totfact>
</mgrwt>
</event>
<event>
 6    1  0.1014650E-006  0.1283701E+04  0.7818608E-02  0.9042592E-01
         -4   -1    0    0    0  501 -0.00000000000E+00  0.00000000000E+00  0.49758490944E+03  0.49758490944E+03  0.00000000000E+00 0.  1.
          4   -1    0    0  501    0  0.00000000000E+00 -0.00000000000E+00 -0.82794275394E+03  0.82794275394E+03  0.00000000000E+00 0. -1.
         23    2    1    2    0    0  0.15999602117E+03  0.40477699224E+02  0.47099905271E+03  0.50735283632E+03  0.91266762520E+02 0.  0.
         13    1    3    3    0    0  0.73330952044E+02 -0.19753034637E+02  0.13180584175E+03  0.15211965956E+03  0.00000000000E+00 0. -1.
        -13    1    3    3    0    0  0.86665069130E+02  0.60230733862E+02  0.33919321097E+03  0.35523317676E+03  0.00000000000E+00 0.  1.
         22    1    1    2    0    0 -0.15999602117E+03 -0.40477699224E+02 -0.80135689721E+03  0.81817482706E+03  0.00000000000E+00 0. -1.
<mgrwt>
<rscale>  0 0.12837006E+04</rscale>
<asrwt>0</asrwt>
<pdfrwt beam="1">  1        4 0.12737581E+00 0.12837006E+04</pdfrwt>
<pdfrwt beam="2">  1       -4 0.76551525E-01 0.12837006E+04</pdfrwt>
<totfact> 0.13680544E+00</totfact>
</mgrwt>
</event>
<event>
 6    1  0.1014650E-006  0.3189132E+04  0.7818608E-02  0.8191693E-01
          3   -1    0    0  501    0  0.00000000000E+00  0.00000000000E+00  0.14455466895E+04  0.14455466895E+04  0.00000000000E+00 0. -1.
         -3   -1    0    0    0  501 -0.00000000000E+00 -0.00000000000E+00 -0.17589479004E+04  0.17589479004E+04  0.00000000000E+00 0.  1.
         23    2    1    2    0    0 -0.10923737013E+04 -0.81038586507E+03  0.67695332121E+03  0.15219941731E+04  0.90525743478E+02 0.  0.
         13    1    3    3    0    0 -0.39989622453E+03 -0.24316729238E+03  0.23329052285E+03  0.52294530357E+03  0.00000000000E+00 0. -1.
        -13    1    3    3    0    0 -0.69247747672E+03 -0.56721857269E+03  0.44366279836E+03  0.99904886949E+03  0.00000000000E+00 0.  1.
         22    1    1    2    0    0  0.10923737013E+04  0.81038586507E+03 -0.99035453206E+03  0.16825004168E+04  0.00000000000E+00 0. -1.
<mgrwt>
<rscale>  0 0.31891324E+04</rscale>
<asrwt>0</asrwt>
<pdfrwt beam="1">  1        3 0.22239180E+00 0.31891324E+04</pdfrwt>
<pdfrwt beam="2">  1       -3 0.27060737E+00 0.31891324E+04</pdfrwt>
<totfact> 0.13035323E-02</totfact>
</mgrwt>
</event>
<event>
 6    1  0.1014650E-006  0.2574527E+04  0.7818608E-02  0.8376906E-01
          1   -1    0    0  501    0  0.00000000000E+00  0.00000000000E+00  0.29042949066E+04  0.29042949066E+04  0.00000000000E+00 0. -1.
         -1   -1    0    0    0  501 -0.00000000000E+00 -0.00000000000E+00 -0.57055061716E+03  0.57055061716E+03  0.00000000000E+00 0.  1.
         23    2    1    2    0    0  0.84160393964E+03  0.73934393044E+03  0.31867458489E+03  0.11693233372E+04  0.10410061048E+03 0.  0.
         13    1    3    3    0    0  0.60061407980E+03  0.56691416854E+03  0.27069197930E+03  0.86913928401E+03  0.00000000000E+00 0.  1.
        -13    1    3    3    0    0  0.24098985984E+03  0.17242976190E+03  0.47982605585E+02  0.30018405317E+03  0.00000000000E+00 0. -1.
         22    1    1    2    0    0 -0.84160393964E+03 -0.73934393044E+03  0.20150697046E+04  0.23055221866E+04  0.00000000000E+00 0. -1.
<mgrwt>
<rscale>  0 0.25745269E+04</rscale>
<asrwt>0</asrwt>
<pdfrwt beam="1">  1        1 0.44681459E+00 0.25745269E+04</pdfrwt>
<pdfrwt beam="2">  1       -1 0.87777020E-01 0.25745269E+04</pdfrwt>
<totfact> 0.79004509E-01</totfact>
</mgrwt>
</event>
<event>
 6    1  0.1014650E-006  0.2837205E+04  0.7818608E-02  0.8291810E-01
          2   -1    0    0  501    0  0.00000000000E+00  0.00000000000E+00  0.24031634781E+04  0.24031634781E+04  0.00000000000E+00 0. -1.
         -2   -1    0    0    0  501 -0.00000000000E+00 -0.00000000000E+00 -0.83740974587E+03  0.83740974587E+03  0.00000000000E+00 0.  1.
         23    2    1    2    0    0  0.44408154005E+03 -0.24060201557E+03  0.22960408506E+04  0.23526447249E+04  0.89643011463E+02 0.  0.
         11    1    3    3    0    0  0.21784931145E+03 -0.16550332641E+03  0.13001980386E+04  0.13286702424E+04  0.00000000000E+00 0.  1.
        -11    1    3    3    0    0  0.22623222860E+03 -0.75098689162E+02  0.99584281206E+03  0.10239744824E+04  0.00000000000E+00 0. -1.
         22    1    1    2    0    0 -0.44408154005E+03  0.24060201557E+03 -0.73028711845E+03  0.88792849908E+03  0.00000000000E+00 0.  1.
<mgrwt>
<rscale>  0 0.28372046E+04</rscale>
<asrwt>0</asrwt>
<pdfrwt beam="1">  1        2 0.36971746E+00 0.28372046E+04</pdfrwt>
<pdfrwt beam="2">  1       -2 0.12883227E+00 0.28372046E+04</pdfrwt>
<totfact> 0.15257794E+00</totfact>
</mgrwt>
</event>
<event>
 6    1  0.1014650E-006  0.3566608E+04  0.7818608E-02  0.8098184E-01
         -2   -1    0    0    0  501 -0.00000000000E+00  0.00000000000E+00  0.85867272776E+03  0.85867272776E+03  0.00000000000E+00 0.  1.
          2   -1    0    0  501    0  0.00000000000E+00 -0.00000000000E+00 -0.37035910231E+04  0.37035910231E+04  0.00000000000E+00 0. -1.
         23    2    1    2    0    0 -0.14463385251E+04 -0.96725590858E+03 -0.93016001044E+03  0.19750300135E+04  0.89815295988E+02 0.  0.
         13    1    3    3    0    0 -0.12062201288E+04 -0.76725631462E+03 -0.75122607911E+03  0.16149272038E+04  0.00000000000E+00 0.  1.
        -13    1    3    3    0    0 -0.24011839629E+03 -0.19999959395E+03 -0.17893393133E+03  0.36010280976E+03  0.00000000000E+00 0. -1.
         22    1    1    2    0    0  0.14463385251E+04  0.96725590858E+03 -0.19147582849E+04  0.25872337373E+04  0.00000000000E+00 0. -1.
<mgrwt>
<rscale>  0 0.35666077E+04</rscale>
<asrwt>0</asrwt>
<pdfrwt beam="1">  1        2 0.56978323E+00 0.35666077E+04</pdfrwt>
<pdfrwt beam="2">  1       -2 0.13210350E+00 0.35666077E+04</pdfrwt>
<totfact> 0.19727246E-01</totfact>
</mgrwt>
</event>
<event>
 6    1  0.1014650E-006  0.5474713E+03  0.7818608E-02  0.1002081E+00
          1   -1    0    0  501    0  0.00000000000E+00  0.00000000000E+00  0.52115159470E+02  0.52115159470E+02  0.00000000000E+00 0. -1.
         -1   -1    0    0    0  501 -0.00000000000E+00 -0.00000000000E+00 -0.14378006116E+04  0.14378006116E+04  0.00000000000E+00 0.  1.
         23    2    1    2    0    0 -0.11297571818E+03  0.19995971494E+03 -0.10782781383E+04  0.11061884498E+04  0.90673824594E+02 0.  0.
         13    1    3    3    0    0 -0.12741924223E+02  0.10732547293E+03 -0.40199316922E+03  0.41626868951E+03  0.00000000000E+00 0. -1.
        -13    1    3    3    0    0 -0.10023379396E+03  0.92634242009E+02 -0.67628496904E+03  0.68991976026E+03  0.00000000000E+00 0.  1.
         22    1    1    2    0    0  0.11297571818E+03 -0.19995971494E+03 -0.30740731391E+03  0.38372732134E+03  0.00000000000E+00 0. -1.
<mgrwt>
<rscale>  0 0.54747131E+03</rscale>
<asrwt>0</asrwt>
<pdfrwt beam="1">  1        1 0.80177174E-02 0.54747131E+03</pdfrwt>
<pdfrwt beam="2">  1       -1 0.22120008E+00 0.54747131E+03</pdfrwt>
<totfact> 0.10241795E+02</totfact>
</mgrwt>
</event>
<event>
 6    1  0.1077551E-006  0.3713461E+04  0.7818608E-02  0.8064985E-01
          2   -1    0    0  501    0  0.00000000000E+00  0.00000000000E+00  0.19980873655E+04  0.19980873655E+04  0.00000000000E+00 0. -1.
         -2   -1    0    0    0  501 -0.00000000000E+00 -0.00000000000E+00 -0.17253742746E+04  0.17253742746E+04  0.00000000000E+00 0.  1.
         23    2    1    2    0    0  0.98231482998E+03  0.15514898255E+04 -0.13164949233E+03  0.18431499100E+04  0.88356652028E+02 0.  0.
         13    1    3    3    0    0  0.22910477085E+03  0.42249638270E+03 -0.13066721950E+02  0.48079406053E+03  0.00000000000E+00 0. -1.
        -13    1    3    3    0    0  0.75321005914E+03  0.11289934428E+04 -0.11858277038E+03  0.13623558494E+04  0.00000000000E+00 0.  1.
         22    1    1    2    0    0 -0.98231482998E+03 -0.15514898255E+04  0.40436258321E+03  0.18803117302E+04  0.00000000000E+00 0. -1.
<mgrwt>
<rscale>  0 0.37134612E+04</rscale>
<asrwt>0</asrwt>
<pdfrwt beam="1">  1        2 0.30739805E+00 0.37134612E+04</pdfrwt>
<pdfrwt beam="2">  1       -2 0.26544220E+00 0.37134612E+04</pdfrwt>
<totfact> 0.27951075E-01</totfact>
</mgrwt>
</event>
<event>
 6    1  0.1014650E-006  0.2318776E+04  0.7818608E-02  0.8470555E-01
          2   -1    0    0  501    0  0.00000000000E+00  0.00000000000E+00  0.28370962875E+04  0.28370962875E+04  0.00000000000E+00 0. -1.
         -2   -1    0    0    0  501 -0.00000000000E+00 -0.00000000000E+00 -0.47378738979E+03  0.47378738979E+03  0.00000000000E+00 0.  1.
         23    2    1    2    0    0  0.63997938445E+03 -0.30867546887E+03  0.24883628935E+04  0.25894319051E+04  0.91397723387E+02 0.  0.
         11    1    3    3    0    0  0.25560260534E+03 -0.13524656693E+03  0.11733997226E+04  0.12085078546E+04  0.00000000000E+00 0. -1.
        -11    1    3    3    0    0  0.38437677911E+03 -0.17342890194E+03  0.13149631710E+04  0.13809240505E+04  0.00000000000E+00 0.  1.
         22    1    1    2    0    0 -0.63997938445E+03  0.30867546887E+03 -0.12505399586E+03  0.72145177211E+03  0.00000000000E+00 0.  1.
<mgrwt>
<rscale>  0 0.23187759E+04</rscale>
<asrwt>0</asrwt>
<pdfrwt beam="1">  1        2 0.43647634E+00 0.23187759E+04</pdfrwt>
<pdfrwt beam="2">  1       -2 0.72890369E-01 0.23187759E+04</pdfrwt>
<totfact> 0.33816179E+00</totfact>
</mgrwt>
</event>
<event>
 6    1  0.1014650E-006  0.3222771E+04  0.7818608E-02  0.8182829E-01
         -2   -1    0    0    0  501 -0.00000000000E+00  0.00000000000E+00  0.87305273186E+03  0.87305273186E+03  0.00000000000E+00 0.  1.
          2   -1    0    0  501    0  0.00000000000E+00 -0.00000000000E+00 -0.29741198877E+04  0.29741198877E+04  0.00000000000E+00 0. -1.
         23    2    1    2    0    0 -0.75964892119E+03 -0.24478716523E+03 -0.27206416468E+04  0.28367965561E+04  0.92393132719E+02 0.  0.
         13    1    3    3    0    0 -0.55931847228E+03 -0.22016851758E+03 -0.20799607214E+04  0.21650745789E+04  0.00000000000E+00 0. -1.
        -13    1    3    3    0    0 -0.20033044891E+03 -0.24618647647E+02 -0.64068092531E+03  0.67172197719E+03  0.00000000000E+00 0.  1.
         22    1    1    2    0    0  0.75964892119E+03  0.24478716523E+03  0.61957449094E+03  0.10103760634E+04  0.00000000000E+00 0.  1.
<mgrwt>
<rscale>  0 0.32227712E+04</rscale>
<asrwt>0</asrwt>
<pdfrwt beam="1">  1        2 0.45755692E+00 0.32227712E+04</pdfrwt>
<pdfrwt beam="2">  1       -2 0.13431580E+00 0.32227712E+04</pdfrwt>
<totfact> 0.60668786E-01</totfact>
</mgrwt>
</event>
<event>
 6    1  0.1014650E-006  0.2169900E+04  0.7818608E-02  0.8531062E-01
         -2   -1    0    0    0  501 -0.00000000000E+00  0.00000000000E+00  0.50061857869E+03  0.50061857869E+03  0.00000000000E+00 0.  1.
          2   -1    0    0  501    0  0.00000000000E+00 -0.00000000000E+00 -0.23513233002E+04  0.23513233002E+04  0.00000000000E+00 0. -1.
         23    2    1    2    0    0 -0.59246422980E+03 -0.30870780760E+03 -0.20474386739E+04  0.21555090953E+04  0.88881732204E+02 0.  0.
         13    1    3    3    0    0 -0.52522713052E+03 -0.28993373938E+03 -0.17496968603E+04  0.18496930056E+04  0.00000000000E+00 0. -1.
        -13    1    3    3    0    0 -0.67237099275E+02 -0.18774068226E+02 -0.29774181364E+03  0.30581608975E+03  0.00000000000E+00 0.  1.
         22    1    1    2    0    0  0.59246422980E+03  0.30870780760E+03  0.19673395241E+03  0.69643278361E+03  0.00000000000E+00 0.  1.
<mgrwt>
<rscale>  0 0.21698997E+04</rscale>
<asrwt>0</asrwt>
<pdfrwt beam="1">  1        2 0.36174206E+00 0.21698997E+04</pdfrwt>
<pdfrwt beam="2">  1       -2 0.77018240E-01 0.21698997E+04</pdfrwt>
<totfact> 0.58458561E+00</totfact>
</mgrwt>
</event>
<event>
 6    1  0.1014650E-006  0.2965175E+04  0.7818608E-02  0.8253746E-01
          1   -1    0    0  501    0  0.00000000000E+00  0.00000000000E+00  0.26348924247E+04  0.26348924247E+04  0.00000000000E+00 0. -1.
         -1   -1    0    0    0  501 -0.00000000000E+00 -0.00000000000E+00 -0.83421433888E+03  0.83421433888E+03  0.00000000000E+00 0.  1.
         23    2    1    2    0    0 -0.91727937950E+03 -0.10648927075E+03  0.22560672887E+04  0.24394851093E+04  0.92231026010E+02 0.  0.
         13    1    3    3    0    0 -0.27837925962E+03 -0.75241466375E+02  0.70356843662E+03  0.76037151148E+03  0.00000000000E+00 0. -1.
        -13    1    3    3    0    0 -0.63890011988E+03 -0.31247804380E+02  0.15524988521E+04  0.16791135978E+04  0.00000000000E+00 0.  1.
         22    1    1    2    0    0  0.91727937950E+03  0.10648927075E+03 -0.45538920294E+03  0.10296216543E+04  0.00000000000E+00 0.  1.
<mgrwt>
<rscale>  0 0.29651746E+04</rscale>
<asrwt>0</asrwt>
<pdfrwt beam="1">  1        1 0.40536806E+00 0.29651746E+04</pdfrwt>
<pdfrwt beam="2">  1       -1 0.12834067E+00 0.29651746E+04</pdfrwt>
<totfact> 0.48744491E-01</totfact>
</mgrwt>
</event>
<event>
 6    1  0.1014650E-006  0.2527818E+04  0.7818608E-02  0.8393142E-01
         -1   -1    0    0    0  501 -0.00000000000E+00  0.00000000000E+00  0.88118727007E+03  0.88118727007E+03  0.00000000000E+00 0.  1.
          1   -1    0    0  501    0  0.00000000000E+00 -0.00000000000E+00 -0.18128557518E+04  0.18128557518E+04  0.00000000000E+00 0. -1.
         23    2    1    2    0    0 -0.98154516600E+03 -0.49727777249E+03  0.19293484504E+03  0.11206871376E+04  0.89441098593E+02 0.  0.
         13    1    3    3    0    0 -0.39767687953E+03 -0.23824518808E+03  0.51181225925E+02  0.46639810039E+03  0.00000000000E+00 0. -1.
        -13    1    3    3    0    0 -0.58386828647E+03 -0.25903258441E+03  0.14175361911E+03  0.65428903724E+03  0.00000000000E+00 0.  1.
         22    1    1    2    0    0  0.98154516600E+03  0.49727777249E+03 -0.11246033268E+04  0.15733558843E+04  0.00000000000E+00 0.  1.
<mgrwt>
<rscale>  0 0.25278176E+04</rscale>
<asrwt>0</asrwt>
<pdfrwt beam="1">  1        1 0.27890088E+00 0.25278176E+04</pdfrwt>
<pdfrwt beam="2">  1       -1 0.13556727E+00 0.25278176E+04</pdfrwt>
<totfact> 0.16125008E+00</totfact>
</mgrwt>
</event>
<event>
 6    1  0.1014650E-006  0.1387749E+04  0.7818608E-02  0.8962735E-01
         -3   -1    0    0    0  501 -0.00000000000E+00  0.00000000000E+00  0.15383902053E+04  0.15383902053E+04  0.00000000000E+00 0.  1.
          3   -1    0    0  501    0  0.00000000000E+00 -0.00000000000E+00 -0.31296459031E+03  0.31296459031E+03  0.00000000000E+00 0. -1.
         23    2    1    2    0    0 -0.65088848096E+03 -0.22620793362E+03  0.54982279577E+03  0.88633406359E+03  0.91962610079E+02 0.  0.
         11    1    3    3    0    0 -0.24877269845E+03 -0.67924159276E+02  0.25868200518E+03  0.36526418756E+03  0.00000000000E+00 0.  1.
        -11    1    3    3    0    0 -0.40211578251E+03 -0.15828377434E+03  0.29114079059E+03  0.52106987603E+03  0.00000000000E+00 0. -1.
         22    1    1    2    0    0  0.65088848096E+03  0.22620793362E+03  0.67560281921E+03  0.96502073201E+03  0.00000000000E+00 0. -1.
<mgrwt>
<rscale>  0 0.13877488E+04</rscale>
<asrwt>0</asrwt>
<pdfrwt beam="1">  1        3 0.48148399E-01 0.13877488E+04</pdfrwt>
<pdfrwt beam="2">  1       -3 0.23667541E+00 0.13877488E+04</pdfrwt>
<totfact> 0.95889877E-01</totfact>
</mgrwt>
</event>
<event>
 6    1  0.1014650E-006  0.3108784E+04  0.7818608E-02  0.8213331E-01
          2   -1    0    0  501    0  0.00000000000E+00  0.00000000000E+00  0.98724918040E+03  0.98724918040E+03  0.00000000000E+00 0. -1.
         -2   -1    0    0    0  501 -0.00000000000E+00 -0.00000000000E+00 -0.24473406701E+04  0.24473406701E+04  0.00000000000E+00 0.  1.
         23    2    1    2    0    0  0.39634847160E+03 -0.11080636938E+04  0.38920326680E+03  0.12426071049E+04  0.87726699756E+02 0.  0.
         11    1    3    3    0    0  0.33179832264E+03 -0.94052503725E+03  0.29611378383E+03  0.10403657268E+04  0.00000000000E+00 0. -1.
        -11    1    3    3    0    0  0.64550148961E+02 -0.16753865656E+03  0.93089482973E+02  0.20224137809E+03  0.00000000000E+00 0.  1.
         22    1    1    2    0    0 -0.39634847160E+03  0.11080636938E+04 -0.18492947565E+04  0.21919827456E+04  0.00000000000E+00 0.  1.
<mgrwt>
<rscale>  0 0.31087844E+04</rscale>
<asrwt>0</asrwt>
<pdfrwt beam="1">  1        2 0.15188449E+00 0.31087844E+04</pdfrwt>
<pdfrwt beam="2">  1       -2 0.37651394E+00 0.31087844E+04</pdfrwt>
<totfact> 0.22950569E-01</totfact>
</mgrwt>
</event>
<event>
 6    1  0.1014650E-006  0.3281237E+04  0.7818608E-02  0.8167686E-01
          1   -1    0    0  501    0  0.00000000000E+00  0.00000000000E+00  0.78343069273E+03  0.78343069273E+03  0.00000000000E+00 0. -1.
         -1   -1    0    0    0  501 -0.00000000000E+00 -0.00000000000E+00 -0.34356958231E+04  0.34356958231E+04  0.00000000000E+00 0.  1.
         23    2    1    2    0    0  0.14752310147E+04  0.35498869006E+03 -0.21251929939E+04  0.26128486588E+04  0.90605385175E+02 0.  0.
         11    1    3    3    0    0  0.81708277763E+03  0.15233645861E+03 -0.11853244662E+04  0.14476963605E+04  0.00000000000E+00 0.  1.
        -11    1    3    3    0    0  0.65814823709E+03  0.20265223145E+03 -0.93986852769E+03  0.11651522983E+04  0.00000000000E+00 0. -1.
         22    1    1    2    0    0 -0.14752310147E+04 -0.35498869006E+03 -0.52707213649E+03  0.16062778570E+04  0.00000000000E+00 0. -1.
<mgrwt>
<rscale>  0 0.32812373E+04</rscale>
<asrwt>0</asrwt>
<pdfrwt beam="1">  1        1 0.12052780E+00 0.32812373E+04</pdfrwt>
<pdfrwt beam="2">  1       -1 0.52856859E+00 0.32812373E+04</pdfrwt>
<totfact> 0.18768666E-02</totfact>
</mgrwt>
</event>
<event>
 6    1  0.1014650E-006  0.1307331E+04  0.7818608E-02  0.9023771E-01
         -2   -1    0    0    0  501 -0.00000000000E+00  0.00000000000E+00  0.22630575714E+03  0.22630575714E+03  0.00000000000E+00 0.  1.
          2   -1    0    0  501    0  0.00000000000E+00 -0.00000000000E+00 -0.18880601831E+04  0.18880601831E+04  0.00000000000E+00 0. -1.
         23    2    1    2    0    0 -0.25521044974E+01  0.34552779520E+03  0.60131330267E+02  0.35815224938E+03  0.72534725226E+02 0.  0.
         11    1    3    3    0    0 -0.18758480510E+02  0.10868583990E+03  0.48461089424E+02  0.12046978698E+03  0.00000000000E+00 0.  1.
        -11    1    3    3    0    0  0.16206376012E+02  0.23684195529E+03  0.11670240843E+02  0.23768246240E+03  0.00000000000E+00 0. -1.
         22    1    1    2    0    0  0.25521044974E+01 -0.34552779520E+03 -0.17218857562E+04  0.17562136908E+04  0.00000000000E+00 0. -1.
<mgrwt>
<rscale>  0 0.13073315E+04</rscale>
<asrwt>0</asrwt>
<pdfrwt beam="1">  1        2 0.29047079E+00 0.13073315E+04</pdfrwt>
<pdfrwt beam="2">  1       -2 0.34816271E-01 0.13073315E+04</pdfrwt>
<totfact> 0.58475018E+01</totfact>
</mgrwt>
</event>
<event>
 6    1  0.1014650E-006  0.3806934E+04  0.7818608E-02  0.8044668E-01
          2   -1    0    0  501    0  0.00000000000E+00  0.00000000000E+00  0.26401996806E+04  0.26401996806E+04  0.00000000000E+00 0. -1.
         -2   -1    0    0    0  501 -0.00000000000E+00 -0.00000000000E+00 -0.13723154862E+04  0.13723154862E+04  0.00000000000E+00 0.  1.
         23    2    1    2    0    0 -0.58253341125E+02 -0.13400877173E+04  0.20563164850E+04  0.24566057805E+04  0.85123044024E+02 0.  0.
         13    1    3    3    0    0 -0.26327453686E+02 -0.69718551086E+03  0.99198603958E+03  0.12127642286E+04  0.00000000000E+00 0.  1.
        -13    1    3    3    0    0 -0.31925887439E+02 -0.64290220643E+03  0.10643304454E+04  0.12438415519E+04  0.00000000000E+00 0. -1.
         22    1    1    2    0    0  0.58253341125E+02  0.13400877173E+04 -0.78843229051E+03  0.15559093863E+04  0.00000000000E+00 0.  1.
<mgrwt>
<rscale>  0 0.38069342E+04</rscale>
<asrwt>0</asrwt>
<pdfrwt beam="1">  1        2 0.40618456E+00 0.38069342E+04</pdfrwt>
<pdfrwt beam="2">  1       -2 0.21112546E+00 0.38069342E+04</pdfrwt>
<totfact> 0.26001631E-01</totfact>
</mgrwt>
</event>
<event>
 6    1  0.1014650E-006  0.2813390E+04  0.7818608E-02  0.8299123E-01
          2   -1    0    0  501    0  0.00000000000E+00  0.00000000000E+00  0.30802766195E+04  0.30802766195E+04  0.00000000000E+00 0. -1.
         -2   -1    0    0    0  501 -0.00000000000E+00 -0.00000000000E+00 -0.64240682653E+03  0.64240682653E+03  0.00000000000E+00 0.  1.
         23    2    1    2    0    0  0.47382127580E+03  0.23221900503E+03  0.29435442460E+04  0.29918353632E+04  0.90519860204E+02 0.  0.
         13    1    3    3    0    0  0.15310851535E+03  0.56278399077E+02  0.70707090703E+03  0.72564367512E+03  0.00000000000E+00 0.  1.
        -13    1    3    3    0    0  0.32071276045E+03  0.17594060595E+03  0.22364733389E+04  0.22661916881E+04  0.00000000000E+00 0. -1.
         22    1    1    2    0    0 -0.47382127580E+03 -0.23221900503E+03 -0.50567445300E+03  0.73084808279E+03  0.00000000000E+00 0.  1.
<mgrwt>
<rscale>  0 0.28133899E+04</rscale>
<asrwt>0</asrwt>
<pdfrwt beam="1">  1        2 0.47388870E+00 0.28133899E+04</pdfrwt>
<pdfrwt beam="2">  1       -2 0.98831821E-01 0.28133899E+04</pdfrwt>
<totfact> 0.11430916E+00</totfact>
</mgrwt>
</event>
<event>
 6    1  0.1014650E-006  0.3887616E+04  0.7818608E-02  0.8027610E-01
          1   -1    0    0  501    0  0.00000000000E+00  0.00000000000E+00  0.17303270265E+04  0.17303270265E+04  0.00000000000E+00 0. -1.
         -1   -1    0    0    0  501 -0.00000000000E+00 -0.00000000000E+00 -0.21836276752E+04  0.21836276752E+04  0.00000000000E+00 0.  1.
         23    2    1    2    0    0  0.73486640640E+03  0.62184701471E+03  0.14721398026E+04  0.17612718925E+04  0.90336791325E+02 0.  0.
         13    1    3    3    0    0  0.40580121103E+03  0.32505745897E+03  0.71635357701E+03  0.88515502699E+03  0.00000000000E+00 0.  1.
        -13    1    3    3    0    0  0.32906519537E+03  0.29678955574E+03  0.75578622563E+03  0.87611686552E+03  0.00000000000E+00 0. -1.
         22    1    1    2    0    0 -0.73486640640E+03 -0.62184701471E+03 -0.19254404514E+04  0.21526828091E+04  0.00000000000E+00 0.  1.
<mgrwt>
<rscale>  0 0.38876162E+04</rscale>
<asrwt>0</asrwt>
<pdfrwt beam="1">  1        1 0.26620416E+00 0.38876162E+04</pdfrwt>
<pdfrwt beam="2">  1       -1 0.33594272E+00 0.38876162E+04</pdfrwt>
<totfact> 0.69048160E-02</totfact>
</mgrwt>
</event>
<event>
 6    1  0.1014650E-006  0.4817448E+04  0.7818608E-02  0.7857302E-01
          1   -1    0    0  501    0  0.00000000000E+00  0.00000000000E+00  0.30932251169E+04  0.30932251169E+04  0.00000000000E+00 0. -1.
         -1   -1    0    0    0  501 -0.00000000000E+00 -0.00000000000E+00 -0.18756964541E+04  0.18756964541E+04  0.00000000000E+00 0.  1.
         23    2    1    2    0    0 -0.99960665502E+03  0.20712166827E+04 -0.12673877044E+03  0.23050509015E+04  0.89693541905E+02 0.  0.
         13    1    3    3    0    0 -0.58031130624E+03  0.12570699610E+04 -0.39286410049E+02  0.13851099310E+04  0.00000000000E+00 0.  1.
        -13    1    3    3    0    0 -0.41929534878E+03  0.81414672166E+03 -0.87452360387E+02  0.91994097052E+03  0.00000000000E+00 0. -1.
         22    1    1    2    0    0  0.99960665502E+03 -0.20712166827E+04  0.13442674332E+04  0.26638706694E+04  0.00000000000E+00 0. -1.
<mgrwt>
<rscale>  0 0.48174480E+04</rscale>
<asrwt>0</asrwt>
<pdfrwt beam="1">  1        1 0.47588079E+00 0.48174480E+04</pdfrwt>
<pdfrwt beam="2">  1       -1 0.28856868E+00 0.48174480E+04</pdfrwt>
<totfact> 0.14642426E-02</totfact>
</mgrwt>
</event>
<event>
 6    1  0.1014650E-006  0.1198969E+04  0.7818608E-02  0.9113759E-01
         -1   -1    0    0    0  501 -0.00000000000E+00  0.00000000000E+00  0.36230968075E+03  0.36230968075E+03  0.00000000000E+00 0.  1.
          1   -1    0    0  501    0  0.00000000000E+00 -0.00000000000E+00 -0.99191872782E+03  0.99191872782E+03  0.00000000000E+00 0. -1.
         23    2    1    2    0    0 -0.29499140499E+00  0.36483102649E+03 -0.84906064033E+03  0.92848110477E+03  0.89841115563E+02 0.  0.
         13    1    3    3    0    0  0.12752640617E+02  0.17675569910E+03 -0.51836830421E+03  0.54782379085E+03  0.00000000000E+00 0.  1.
        -13    1    3    3    0    0 -0.13047632022E+02  0.18807532739E+03 -0.33069233612E+03  0.38065731392E+03  0.00000000000E+00 0. -1.
         22    1    1    2    0    0  0.29499140499E+00 -0.36483102649E+03  0.21945159326E+03  0.42574730380E+03  0.00000000000E+00 0.  1.
<mgrwt>
<rscale>  0 0.11989692E+04</rscale>
<asrwt>0</asrwt>
<pdfrwt beam="1">  1        1 0.15260288E+00 0.11989692E+04</pdfrwt>
<pdfrwt beam="2">  1       -1 0.55739951E-01 0.11989692E+04</pdfrwt>
<totfact> 0.49464425E+01</totfact>
</mgrwt>
</event>
<event>
 6    1  0.1014650E-006  0.1921829E+04  0.7818608E-02  0.8644066E-01
          2   -1    0    0  501    0  0.00000000000E+00  0.00000000000E+00  0.89570765274E+03  0.89570765274E+03  0.00000000000E+00 0. -1.
         -2   -1    0    0    0  501 -0.00000000000E+00 -0.00000000000E+00 -0.10308687854E+04  0.10308687854E+04  0.00000000000E+00 0.  1.
         23    2    1    2    0    0 -0.67312393526E+03  0.71670692642E+02  0.61296777946E+03  0.91765156999E+03  0.90124274397E+02 0.  0.
         13    1    3    3    0    0 -0.24797912762E+03  0.51770685747E+02  0.27739214599E+03  0.37565975869E+03  0.00000000000E+00 0. -1.
        -13    1    3    3    0    0 -0.42514480764E+03  0.19900006894E+02  0.33557563347E+03  0.54199181130E+03  0.00000000000E+00 0.  1.
         22    1    1    2    0    0  0.67312393526E+03 -0.71670692642E+02 -0.74812891207E+03  0.10089248681E+04  0.00000000000E+00 0.  1.
<mgrwt>
<rscale>  0 0.19218294E+04</rscale>
<asrwt>0</asrwt>
<pdfrwt beam="1">  1        2 0.13780118E+00 0.19218294E+04</pdfrwt>
<pdfrwt beam="2">  1       -2 0.15859520E+00 0.19218294E+04</pdfrwt>
<totfact> 0.71185065E+00</totfact>
</mgrwt>
</event>
<event>
 6    1  0.1014650E-006  0.2186495E+04  0.7818608E-02  0.8524070E-01
         -2   -1    0    0    0  501 -0.00000000000E+00  0.00000000000E+00  0.14881165718E+04  0.14881165718E+04  0.00000000000E+00 0.  1.
          2   -1    0    0  501    0  0.00000000000E+00 -0.00000000000E+00 -0.80315649441E+03  0.80315649441E+03  0.00000000000E+00 0. -1.
         23    2    1    2    0    0  0.52644159870E+03 -0.31347204898E+03  0.12894705411E+04  0.14305533772E+04  0.91341153390E+02 0.  0.
         11    1    3    3    0    0  0.31912871939E+03 -0.15772258520E+03  0.82678038855E+03  0.90015852176E+03  0.00000000000E+00 0. -1.
        -11    1    3    3    0    0  0.20731287932E+03 -0.15574946378E+03  0.46269015256E+03  0.53039485544E+03  0.00000000000E+00 0.  1.
         22    1    1    2    0    0 -0.52644159870E+03  0.31347204898E+03 -0.60451046370E+03  0.86071968902E+03  0.00000000000E+00 0. -1.
<mgrwt>
<rscale>  0 0.21864954E+04</rscale>
<asrwt>0</asrwt>
<pdfrwt beam="1">  1        2 0.12356254E+00 0.21864954E+04</pdfrwt>
<pdfrwt beam="2">  1       -2 0.22894101E+00 0.21864954E+04</pdfrwt>
<totfact> 0.27211402E+00</totfact>
</mgrwt>
</event>
<event>
 6    1  0.1014650E-006  0.5209697E+04  0.7818608E-02  0.7796949E-01
         -2   -1    0    0    0  501 -0.00000000000E+00  0.00000000000E+00  0.24419862828E+04  0.24419862828E+04  0.00000000000E+00 0.  1.
          2   -1    0    0  501    0  0.00000000000E+00 -0.00000000000E+00 -0.27785719947E+04  0.27785719947E+04  0.00000000000E+00 0. -1.
         23    2    1    2    0    0  0.11454149429E+04  0.13857972720E+04 -0.20560215361E+04  0.27328145157E+04  0.92957787014E+02 0.  0.
         11    1    3    3    0    0  0.72974651498E+03  0.86354868691E+03 -0.12265753588E+04  0.16681526973E+04  0.00000000000E+00 0.  1.
        -11    1    3    3    0    0  0.41566842790E+03  0.52224858508E+03 -0.82944617729E+03  0.10646618184E+04  0.00000000000E+00 0. -1.
         22    1    1    2    0    0 -0.11454149429E+04 -0.13857972720E+04  0.17194358242E+04  0.24877437617E+04  0.00000000000E+00 0.  1.
<mgrwt>
<rscale>  0 0.52096966E+04</rscale>
<asrwt>0</asrwt>
<pdfrwt beam="1">  1        2 0.42747262E+00 0.52096966E+04</pdfrwt>
<pdfrwt beam="2">  1       -2 0.37569019E+00 0.52096966E+04</pdfrwt>
<totfact> 0.18212006E-02</totfact>
</mgrwt>
</event>
<event>
 6    1  0.1014650E-006  0.3073235E+04  0.7818608E-02  0.8223122E-01
         -1   -1    0    0    0  501 -0.00000000000E+00  0.00000000000E+00  0.18773201815E+04  0.18773201815E+04  0.00000000000E+00 0.  1.
          1   -1    0    0  501    0  0.00000000000E+00 -0.00000000000E+00 -0.12577463379E+04  0.12577463379E+04  0.00000000000E+00 0. -1.
         23    2    1    2    0    0  0.65538541307E+03  0.18939614330E+02  0.17262374698E+04  0.18487566306E+04  0.90091777817E+02 0.  0.
         11    1    3    3    0    0  0.44996316422E+03 -0.28837441960E+02  0.11840476707E+04  0.12669914497E+04  0.00000000000E+00 0.  1.
        -11    1    3    3    0    0  0.20542224884E+03  0.47777056290E+02  0.54218979908E+03  0.58176518085E+03  0.00000000000E+00 0. -1.
         22    1    1    2    0    0 -0.65538541307E+03 -0.18939614330E+02 -0.11066636262E+04  0.12863098888E+04  0.00000000000E+00 0. -1.
<mgrwt>
<rscale>  0 0.30732345E+04</rscale>
<asrwt>0</asrwt>
<pdfrwt beam="1">  1        1 0.19349944E+00 0.30732345E+04</pdfrwt>
<pdfrwt beam="2">  1       -1 0.28881849E+00 0.30732345E+04</pdfrwt>
<totfact> 0.32012929E-01</totfact>
</mgrwt>
</event>
<event>
 6    1  0.1014650E-006  0.2727231E+04  0.7818608E-02  0.8326223E-01
          2   -1    0    0  501    0  0.00000000000E+00  0.00000000000E+00  0.10571122862E+04  0.10571122862E+04  0.00000000000E+00 0. -1.
         -2   -1    0    0    0  501 -0.00000000000E+00 -0.00000000000E+00 -0.17589877125E+04  0.17589877125E+04  0.00000000000E+00 0.  1.
         23    2    1    2    0    0 -0.64443191940E+03 -0.89011904906E+03  0.47975870281E+03  0.12024508313E+04  0.90084230644E+02 0.  0.
         13    1    3    3    0    0 -0.23818233104E+03 -0.40366685169E+03  0.21277099334E+03  0.51473220763E+03  0.00000000000E+00 0. -1.
        -13    1    3    3    0    0 -0.40624958836E+03 -0.48645219737E+03  0.26698770947E+03  0.68771862370E+03  0.00000000000E+00 0.  1.
         22    1    1    2    0    0  0.64443191940E+03  0.89011904906E+03 -0.11816341291E+04  0.16136491673E+04  0.00000000000E+00 0.  1.
<mgrwt>
<rscale>  0 0.27272312E+04</rscale>
<asrwt>0</asrwt>
<pdfrwt beam="1">  1        2 0.16263266E+00 0.27272312E+04</pdfrwt>
<pdfrwt beam="2">  1       -2 0.27061349E+00 0.27272312E+04</pdfrwt>
<totfact> 0.97445183E-01</totfact>
</mgrwt>
</event>
<event>
 6    1  0.1014650E-006  0.2433200E+04  0.7818608E-02  0.8427178E-01
          2   -1    0    0  501    0  0.00000000000E+00  0.00000000000E+00  0.92803098665E+03  0.92803098665E+03  0.00000000000E+00 0. -1.
         -2   -1    0    0    0  501 -0.00000000000E+00 -0.00000000000E+00 -0.15948985210E+04  0.15948985210E+04  0.00000000000E+00 0.  1.
         23    2    1    2    0    0 -0.59715195062E+03  0.90425151806E+03 -0.90340951471E+03  0.14137796673E+04  0.91449091205E+02 0.  0.
         13    1    3    3    0    0 -0.24284448891E+03  0.44108503158E+03 -0.44609686528E+03  0.67270488633E+03  0.00000000000E+00 0.  1.
        -13    1    3    3    0    0 -0.35430746172E+03  0.46316648649E+03 -0.45731264943E+03  0.74107478095E+03  0.00000000000E+00 0. -1.
         22    1    1    2    0    0  0.59715195062E+03 -0.90425151806E+03  0.23654198032E+03  0.11091498404E+04  0.00000000000E+00 0. -1.
<mgrwt>
<rscale>  0 0.24331997E+04</rscale>
<asrwt>0</asrwt>
<pdfrwt beam="1">  1        2 0.14277400E+00 0.24331997E+04</pdfrwt>
<pdfrwt beam="2">  1       -2 0.24536900E+00 0.24331997E+04</pdfrwt>
<totfact> 0.17276249E+00</totfact>
</mgrwt>
</event>
<event>
 6    1  0.1014650E-006  0.2081776E+04  0.7818608E-02  0.8569314E-01
         -1   -1    0    0    0  501 -0.00000000000E+00  0.00000000000E+00  0.15864242580E+04  0.15864242580E+04  0.00000000000E+00 0.  1.
          1   -1    0    0  501    0  0.00000000000E+00 -0.00000000000E+00 -0.68294983337E+03  0.68294983337E+03  0.00000000000E+00 0. -1.
         23    2    1    2    0    0  0.40742357845E+03  0.11495430065E+03  0.14868423714E+04  0.15485921376E+04  0.90713327156E+02 0.  0.
         11    1    3    3    0    0  0.14614730894E+03  0.12393943550E+01  0.43858715704E+03  0.46229781129E+03  0.00000000000E+00 0. -1.
        -11    1    3    3    0    0  0.26127626951E+03  0.11371490629E+03  0.10482552143E+04  0.10862943263E+04  0.00000000000E+00 0.  1.
         22    1    1    2    0    0 -0.40742357845E+03 -0.11495430065E+03 -0.58336794679E+03  0.72078195375E+03  0.00000000000E+00 0. -1.
<mgrwt>
<rscale>  0 0.20817763E+04</rscale>
<asrwt>0</asrwt>
<pdfrwt beam="1">  1        1 0.10506921E+00 0.20817763E+04</pdfrwt>
<pdfrwt beam="2">  1       -1 0.24406527E+00 0.20817763E+04</pdfrwt>
<totfact> 0.19861269E+00</totfact>
</mgrwt>
</event>
<event>
 6    1  0.1014650E-006  0.2263866E+04  0.7818608E-02  0.8492306E-01
          2   -1    0    0  501    0  0.00000000000E+00  0.00000000000E+00  0.17255885730E+04  0.17255885730E+04  0.00000000000E+00 0. -1.
         -2   -1    0    0    0  501 -0.00000000000E+00 -0.00000000000E+00 -0.74251302467E+03  0.74251302467E+03  0.00000000000E+00 0.  1.
         23    2    1    2    0    0  0.39356218698E+03 -0.49979462444E+03 -0.52605167336E+03  0.83037425990E+03  0.90028810973E+02 0.  0.
         11    1    3    3    0    0  0.14879443288E+03 -0.24303262769E+03 -0.27299014055E+03  0.39462419872E+03  0.00000000000E+00 0.  1.
        -11    1    3    3    0    0  0.24476775410E+03 -0.25676199675E+03 -0.25306153281E+03  0.43575006117E+03  0.00000000000E+00 0. -1.
         22    1    1    2    0    0 -0.39356218698E+03  0.49979462444E+03  0.15091272216E+04  0.16377273377E+04  0.00000000000E+00 0. -1.
<mgrwt>
<rscale>  0 0.22638657E+04</rscale>
<asrwt>0</asrwt>
<pdfrwt beam="1">  1        2 0.26547516E+00 0.22638657E+04</pdfrwt>
<pdfrwt beam="2">  1       -2 0.11423277E+00 0.22638657E+04</pdfrwt>
<totfact> 0.51728011E+00</totfact>
</mgrwt>
</event>
<event>
 6    1  0.1014650E-006  0.1013756E+04  0.7818608E-02  0.9293585E-01
         -1   -1    0    0    0  501 -0.00000000000E+00  0.00000000000E+00  0.14107407177E+03  0.14107407177E+03  0.00000000000E+00 0.  1.
          1   -1    0    0  501    0  0.00000000000E+00 -0.00000000000E+00 -0.18212074180E+04  0.18212074180E+04  0.00000000000E+00 0. -1.
         23    2    1    2    0    0  0.31291587632E+03  0.39009571801E+03 -0.94979580722E+03  0.10771352105E+04  0.89538658520E+02 0.  0.
         11    1    3    3    0    0  0.21882974548E+03  0.27399952823E+03 -0.74719291681E+03  0.82538442795E+03  0.00000000000E+00 0. -1.
        -11    1    3    3    0    0  0.94086130845E+02  0.11609618978E+03 -0.20260289042E+03  0.25175078253E+03  0.00000000000E+00 0.  1.
         22    1    1    2    0    0 -0.31291587632E+03 -0.39009571801E+03 -0.73033753904E+03  0.88514627932E+03  0.00000000000E+00 0.  1.
<mgrwt>
<rscale>  0 0.10137557E+04</rscale>
<asrwt>0</asrwt>
<pdfrwt beam="1">  1        1 0.28018574E+00 0.10137557E+04</pdfrwt>
<pdfrwt beam="2">  1       -1 0.21703705E-01 0.10137557E+04</pdfrwt>
<totfact> 0.70545445E+01</totfact>
</mgrwt>
</event>
<event>
 6    1  0.1014650E-006  0.2361981E+04  0.7818608E-02  0.8453876E-01
          1   -1    0    0  501    0  0.00000000000E+00  0.00000000000E+00  0.19387284731E+04  0.19387284731E+04  0.00000000000E+00 0. -1.
         -1   -1    0    0    0  501 -0.00000000000E+00 -0.00000000000E+00 -0.71940905037E+03  0.71940905037E+03  0.00000000000E+00 0.  1.
         23    2    1    2    0    0  0.94134934695E+03 -0.24846583979E+03  0.13592341915E+04  0.16745471570E+04  0.93363413219E+02 0.  0.
         13    1    3    3    0    0  0.42057791880E+03 -0.15583831384E+03  0.65270345817E+03  0.79195528293E+03  0.00000000000E+00 0. -1.
        -13    1    3    3    0    0  0.52077142816E+03 -0.92627525947E+02  0.70653073337E+03  0.88259187405E+03  0.00000000000E+00 0.  1.
         22    1    1    2    0    0 -0.94134934695E+03  0.24846583979E+03 -0.13991476881E+03  0.98359036650E+03  0.00000000000E+00 0.  1.
<mgrwt>
<rscale>  0 0.23619812E+04</rscale>
<asrwt>0</asrwt>
<pdfrwt beam="1">  1        1 0.29826592E+00 0.23619812E+04</pdfrwt>
<pdfrwt beam="2">  1       -1 0.11067832E+00 0.23619812E+04</pdfrwt>
<totfact> 0.22172836E+00</totfact>
</mgrwt>
</event>
<event>
 6    1  0.1014650E-006  0.1965585E+04  0.7818608E-02  0.8622882E-01
         -1   -1    0    0    0  501 -0.00000000000E+00  0.00000000000E+00  0.11380250568E+04  0.11380250568E+04  0.00000000000E+00 0.  1.
          1   -1    0    0  501    0  0.00000000000E+00 -0.00000000000E+00 -0.84873465060E+03  0.84873465060E+03  0.00000000000E+00 0. -1.
         23    2    1    2    0    0 -0.44288443976E+03  0.21664743535E+03 -0.71208266179E+03  0.87059181703E+03  0.88236366838E+02 0.  0.
         11    1    3    3    0    0 -0.11382597451E+03  0.99861663417E+02 -0.20224703728E+03  0.25265108031E+03  0.00000000000E+00 0.  1.
        -11    1    3    3    0    0 -0.32905846524E+03  0.11678577194E+03 -0.50983562451E+03  0.61794073671E+03  0.00000000000E+00 0. -1.
         22    1    1    2    0    0  0.44288443976E+03 -0.21664743535E+03  0.10013730680E+04  0.11161678904E+04  0.00000000000E+00 0.  1.
<mgrwt>
<rscale>  0 0.19655852E+04</rscale>
<asrwt>0</asrwt>
<pdfrwt beam="1">  1        1 0.13057456E+00 0.19655852E+04</pdfrwt>
<pdfrwt beam="2">  1       -1 0.17508078E+00 0.19655852E+04</pdfrwt>
<totfact> 0.42192864E+00</totfact>
</mgrwt>
</event>
<event>
 6    1  0.1014650E-006  0.3384694E+04  0.7818608E-02  0.8141673E-01
         -2   -1    0    0    0  501 -0.00000000000E+00  0.00000000000E+00  0.12122269817E+04  0.12122269817E+04  0.00000000000E+00 0.  1.
          2   -1    0    0  501    0  0.00000000000E+00 -0.00000000000E+00 -0.23626252493E+04  0.23626252493E+04  0.00000000000E+00 0. -1.
         23    2    1    2    0    0 -0.10850364780E+04  0.38865068564E+03 -0.18827477086E+04  0.22093159928E+04  0.89357189540E+02 0.  0.
         11    1    3    3    0    0 -0.10558040434E+04  0.36142451062E+03 -0.18121885141E+04  0.21282333203E+04  0.00000000000E+00 0. -1.
        -11    1    3    3    0    0 -0.29232434677E+02  0.27226175025E+02 -0.70559194533E+02  0.81082672482E+02  0.00000000000E+00 0.  1.
         22    1    1    2    0    0  0.10850364780E+04 -0.38865068564E+03  0.73234944111E+03  0.13655362383E+04  0.00000000000E+00 0.  1.
<mgrwt>
<rscale>  0 0.33846938E+04</rscale>
<asrwt>0</asrwt>
<pdfrwt beam="1">  1        2 0.36348080E+00 0.33846938E+04</pdfrwt>
<pdfrwt beam="2">  1       -2 0.18649646E+00 0.33846938E+04</pdfrwt>
<totfact> 0.56694098E-01</totfact>
</mgrwt>
</event>
<event>
 6    1  0.1014650E-006  0.2343016E+04  0.7818608E-02  0.8461151E-01
         -2   -1    0    0    0  501 -0.00000000000E+00  0.00000000000E+00  0.91884350221E+03  0.91884350221E+03  0.00000000000E+00 0.  1.
          2   -1    0    0  501    0  0.00000000000E+00 -0.00000000000E+00 -0.14936504163E+04  0.14936504163E+04  0.00000000000E+00 0. -1.
         23    2    1    2    0    0 -0.74816861305E+03  0.33148390370E+03 -0.11484791235E+04  0.14131252898E+04  0.90999646176E+02 0.  0.
         13    1    3    3    0    0 -0.31549455308E+03  0.12185777514E+03 -0.54691462440E+03  0.64304100707E+03  0.00000000000E+00 0.  1.
        -13    1    3    3    0    0 -0.43267405997E+03  0.20962612856E+03 -0.60156449915E+03  0.77008428278E+03  0.00000000000E+00 0. -1.
         22    1    1    2    0    0  0.74816861305E+03 -0.33148390370E+03  0.57367220948E+03  0.99936862863E+03  0.00000000000E+00 0.  1.
<mgrwt>
<rscale>  0 0.23430160E+04</rscale>
<asrwt>0</asrwt>
<pdfrwt beam="1">  1        2 0.22979237E+00 0.23430160E+04</pdfrwt>
<pdfrwt beam="2">  1       -2 0.14136054E+00 0.23430160E+04</pdfrwt>
<totfact> 0.40504546E+00</totfact>
</mgrwt>
</event>
<event>
 6    1  0.1014650E-006  0.2209131E+04  0.7818608E-02  0.8514637E-01
          2   -1    0    0  501    0  0.00000000000E+00  0.00000000000E+00  0.13619372953E+04  0.13619372953E+04  0.00000000000E+00 0. -1.
         -2   -1    0    0    0  501 -0.00000000000E+00 -0.00000000000E+00 -0.89583086451E+03  0.89583086451E+03  0.00000000000E+00 0.  1.
         23    2    1    2    0    0  0.10279707817E+04 -0.32074207953E+03 -0.88436239117E+01  0.10808327478E+04  0.92313646753E+02 0.  0.
         11    1    3    3    0    0  0.30125586517E+03 -0.13758318977E+03 -0.11536142655E+02  0.33138695356E+03  0.00000000000E+00 0.  1.
        -11    1    3    3    0    0  0.72671491654E+03 -0.18315888976E+03  0.26925187435E+01  0.74944579422E+03  0.00000000000E+00 0. -1.
         22    1    1    2    0    0 -0.10279707817E+04  0.32074207953E+03  0.47495005469E+03  0.11769354120E+04  0.00000000000E+00 0. -1.
<mgrwt>
<rscale>  0 0.22091315E+04</rscale>
<asrwt>0</asrwt>
<pdfrwt beam="1">  1        2 0.20952882E+00 0.22091315E+04</pdfrwt>
<pdfrwt beam="2">  1       -2 0.13782013E+00 0.22091315E+04</pdfrwt>
<totfact> 0.52006863E+00</totfact>
</mgrwt>
</event>
<event>
 6    1  0.1014650E-006  0.1139841E+04  0.7818608E-02  0.9167207E-01
          1   -1    0    0  501    0  0.00000000000E+00  0.00000000000E+00  0.14720855700E+04  0.14720855700E+04  0.00000000000E+00 0. -1.
         -1   -1    0    0    0  501 -0.00000000000E+00 -0.00000000000E+00 -0.22064566416E+03  0.22064566416E+03  0.00000000000E+00 0.  1.
         23    2    1    2    0    0  0.22263856404E+03  0.42387265288E+03  0.10787483227E+04  0.11837534950E+04  0.91315043710E+02 0.  0.
         11    1    3    3    0    0  0.13316643863E+03  0.31790221172E+03  0.83449468024E+03  0.90287124660E+03  0.00000000000E+00 0.  1.
        -11    1    3    3    0    0  0.89472125411E+02  0.10597044115E+03  0.24425364243E+03  0.28088224839E+03  0.00000000000E+00 0. -1.
         22    1    1    2    0    0 -0.22263856404E+03 -0.42387265288E+03  0.17269158316E+03  0.50897773915E+03  0.00000000000E+00 0.  1.
<mgrwt>
<rscale>  0 0.11398409E+04</rscale>
<asrwt>0</asrwt>
<pdfrwt beam="1">  1        1 0.22647470E+00 0.11398409E+04</pdfrwt>
<pdfrwt beam="2">  1       -1 0.33945488E-01 0.11398409E+04</pdfrwt>
<totfact> 0.55709034E+01</totfact>
</mgrwt>
</event>
<event>
 6    1  0.1014650E-006  0.3046140E+04  0.7818608E-02  0.8230677E-01
         -1   -1    0    0    0  501 -0.00000000000E+00  0.00000000000E+00  0.73411616795E+03  0.73411616795E+03  0.00000000000E+00 0.  1.
          1   -1    0    0  501    0  0.00000000000E+00 -0.00000000000E+00 -0.31599121851E+04  0.31599121851E+04  0.00000000000E+00 0. -1.
         23    2    1    2    0    0 -0.59364329426E+03  0.10275531085E+04  0.35470338333E+01  0.11903298841E+04  0.92708683949E+02 0.  0.
         13    1    3    3    0    0 -0.32526501530E+03  0.64152307941E+03  0.24763120204E+02  0.71969604954E+03  0.00000000000E+00 0. -1.
        -13    1    3    3    0    0 -0.26837827895E+03  0.38603002905E+03 -0.21216086370E+02  0.47063383459E+03  0.00000000000E+00 0.  1.
         22    1    1    2    0    0  0.59364329426E+03 -0.10275531085E+04 -0.24293430510E+04  0.27036984690E+04  0.00000000000E+00 0.  1.
<mgrwt>
<rscale>  0 0.30461403E+04</rscale>
<asrwt>0</asrwt>
<pdfrwt beam="1">  1        1 0.48614034E+00 0.30461403E+04</pdfrwt>
<pdfrwt beam="2">  1       -1 0.11294095E+00 0.30461403E+04</pdfrwt>
<totfact> 0.27651541E-01</totfact>
</mgrwt>
</event>
<event>
 6    1  0.1014650E-006  0.2146364E+04  0.7818608E-02  0.8541090E-01
          2   -1    0    0  501    0  0.00000000000E+00  0.00000000000E+00  0.13223492041E+04  0.13223492041E+04  0.00000000000E+00 0. -1.
         -2   -1    0    0    0  501 -0.00000000000E+00 -0.00000000000E+00 -0.87096477700E+03  0.87096477700E+03  0.00000000000E+00 0.  1.
         23    2    1    2    0    0 -0.91234133897E+03  0.55530826609E+03  0.30910171923E+03  0.11158269241E+04  0.93764931975E+02 0.  0.
         11    1    3    3    0    0 -0.56167998259E+03  0.38371351962E+03  0.22494761558E+03  0.71646486148E+03  0.00000000000E+00 0. -1.
        -11    1    3    3    0    0 -0.35066135638E+03  0.17159474647E+03  0.84154103650E+02  0.39936206259E+03  0.00000000000E+00 0.  1.
         22    1    1    2    0    0  0.91234133897E+03 -0.55530826609E+03  0.14228270792E+03  0.10774870571E+04  0.00000000000E+00 0.  1.
<mgrwt>
<rscale>  0 0.21463640E+04</rscale>
<asrwt>0</asrwt>
<pdfrwt beam="1">  1        2 0.20343834E+00 0.21463640E+04</pdfrwt>
<pdfrwt beam="2">  1       -2 0.13399458E+00 0.21463640E+04</pdfrwt>
<totfact> 0.59237537E+00</totfact>
</mgrwt>
</event>
<event>
 6    1  0.1014650E-006  0.1570803E+04  0.7818608E-02  0.8838688E-01
         -2   -1    0    0    0  501 -0.00000000000E+00  0.00000000000E+00  0.37218408815E+03  0.37218408815E+03  0.00000000000E+00 0.  1.
          2   -1    0    0  501    0  0.00000000000E+00 -0.00000000000E+00 -0.16573942407E+04  0.16573942407E+04  0.00000000000E+00 0. -1.
         23    2    1    2    0    0 -0.73297807767E+03  0.12507487435E+03 -0.32911634997E+03  0.81837399189E+03  0.92292102848E+02 0.  0.
         13    1    3    3    0    0 -0.51821385486E+03  0.11268744529E+03 -0.19592950060E+03  0.56536044158E+03  0.00000000000E+00 0.  1.
        -13    1    3    3    0    0 -0.21476422281E+03  0.12387429066E+02 -0.13318684937E+03  0.25301355032E+03  0.00000000000E+00 0. -1.
         22    1    1    2    0    0  0.73297807767E+03 -0.12507487435E+03 -0.95609380260E+03  0.12112043370E+04  0.00000000000E+00 0. -1.
<mgrwt>
<rscale>  0 0.15708033E+04</rscale>
<asrwt>0</asrwt>
<pdfrwt beam="1">  1        2 0.25498373E+00 0.15708033E+04</pdfrwt>
<pdfrwt beam="2">  1       -2 0.57259090E-01 0.15708033E+04</pdfrwt>
<totfact> 0.28447825E+01</totfact>
</mgrwt>
</event>
<event>
 6    1  0.1014650E-006  0.4115702E+04  0.7818608E-02  0.7981604E-01
          1   -1    0    0  501    0  0.00000000000E+00  0.00000000000E+00  0.22166385663E+04  0.22166385663E+04  0.00000000000E+00 0. -1.
         -1   -1    0    0    0  501 -0.00000000000E+00 -0.00000000000E+00 -0.19104378274E+04  0.19104378274E+04  0.00000000000E+00 0.  1.
         23    2    1    2    0    0 -0.23129811455E+03  0.11940518693E+04  0.18164451559E+04  0.21879794691E+04  0.92317215451E+02 0.  0.
         11    1    3    3    0    0 -0.17934465799E+03  0.79866883995E+03  0.11556723610E+04  0.14161973832E+04  0.00000000000E+00 0. -1.
        -11    1    3    3    0    0 -0.51953456560E+02  0.39538302931E+03  0.66077279490E+03  0.77178208582E+03  0.00000000000E+00 0.  1.
         22    1    1    2    0    0  0.23129811455E+03 -0.11940518693E+04 -0.15102444170E+04  0.19390969247E+04  0.00000000000E+00 0.  1.
<mgrwt>
<rscale>  0 0.41157017E+04</rscale>
<asrwt>0</asrwt>
<pdfrwt beam="1">  1        1 0.34102132E+00 0.41157017E+04</pdfrwt>
<pdfrwt beam="2">  1       -1 0.29391351E+00 0.41157017E+04</pdfrwt>
<totfact> 0.59509634E-02</totfact>
</mgrwt>
</event>
<event>
 6    1  0.1014650E-006  0.1194966E+04  0.7818608E-02  0.9117274E-01
         -2   -1    0    0    0  501 -0.00000000000E+00  0.00000000000E+00  0.41476216211E+03  0.41476216211E+03  0.00000000000E+00 0.  1.
          2   -1    0    0  501    0  0.00000000000E+00 -0.00000000000E+00 -0.86070003664E+03  0.86070003664E+03  0.00000000000E+00 0. -1.
         23    2    1    2    0    0  0.50088897451E+02 -0.17135180139E+03 -0.82904055712E+03  0.85280630693E+03  0.90000079445E+02 0.  0.
         11    1    3    3    0    0  0.24001845958E+02 -0.86905032783E+02 -0.22594618965E+03  0.24326991994E+03  0.00000000000E+00 0. -1.
        -11    1    3    3    0    0  0.26087051493E+02 -0.84446768606E+02 -0.60309436747E+03  0.60953638698E+03  0.00000000000E+00 0.  1.
         22    1    1    2    0    0 -0.50088897451E+02  0.17135180139E+03  0.38310268259E+03  0.42265589182E+03  0.00000000000E+00 0.  1.
<mgrwt>
<rscale>  0 0.11949658E+04</rscale>
<asrwt>0</asrwt>
<pdfrwt beam="1">  1        2 0.13241539E+00 0.11949658E+04</pdfrwt>
<pdfrwt beam="2">  1       -2 0.63809564E-01 0.11949658E+04</pdfrwt>
<totfact> 0.69976371E+01</totfact>
</mgrwt>
</event>
<event>
 6    1  0.1014650E-006  0.1568655E+04  0.7818608E-02  0.8840039E-01
         -2   -1    0    0    0  501 -0.00000000000E+00  0.00000000000E+00  0.18237324774E+04  0.18237324774E+04  0.00000000000E+00 0.  1.
          2   -1    0    0  501    0  0.00000000000E+00 -0.00000000000E+00 -0.33731354278E+03  0.33731354278E+03  0.00000000000E+00 0. -1.
         23    2    1    2    0    0 -0.17104497391E+03  0.75040355623E+03  0.55788992353E+03  0.95500787621E+03  0.91853124761E+02 0.  0.
         11    1    3    3    0    0 -0.13724848101E+02  0.25132446480E+03  0.18928497245E+03  0.31493040319E+03  0.00000000000E+00 0. -1.
        -11    1    3    3    0    0 -0.15732012581E+03  0.49907909144E+03  0.36860495108E+03  0.64007747301E+03  0.00000000000E+00 0.  1.
         22    1    1    2    0    0  0.17104497391E+03 -0.75040355623E+03  0.92852901113E+03  0.12060381440E+04  0.00000000000E+00 0.  1.
<mgrwt>
<rscale>  0 0.15686550E+04</rscale>
<asrwt>0</asrwt>
<pdfrwt beam="1">  1        2 0.51894392E-01 0.15686550E+04</pdfrwt>
<pdfrwt beam="2">  1       -2 0.28057422E+00 0.15686550E+04</pdfrwt>
<totfact> 0.38748654E+00</totfact>
</mgrwt>
</event>
<event>
 6    1  0.1014650E-006  0.2077108E+04  0.7818608E-02  0.8571395E-01
          3   -1    0    0  501    0  0.00000000000E+00  0.00000000000E+00  0.42844722242E+04  0.42844722242E+04  0.00000000000E+00 0. -1.
         -3   -1    0    0    0  501 -0.00000000000E+00 -0.00000000000E+00 -0.25174486977E+03  0.25174486977E+03  0.00000000000E+00 0.  1.
         23    2    1    2    0    0  0.85365010484E+03 -0.24778139969E+03  0.31845937036E+04  0.33076224443E+04  0.92817311718E+02 0.  0.
         11    1    3    3    0    0  0.58427793408E+03 -0.12720277997E+03  0.21896134609E+04  0.22697947836E+04  0.00000000000E+00 0.  1.
        -11    1    3    3    0    0  0.26937217076E+03 -0.12057861971E+03  0.99498024273E+03  0.10378276607E+04  0.00000000000E+00 0. -1.
         22    1    1    2    0    0 -0.85365010484E+03  0.24778139969E+03  0.84813365076E+03  0.12285946496E+04  0.00000000000E+00 0.  1.
<mgrwt>
<rscale>  0 0.20771075E+04</rscale>
<asrwt>0</asrwt>
<pdfrwt beam="1">  1        3 0.65914952E+00 0.20771075E+04</pdfrwt>
<pdfrwt beam="2">  1       -3 0.38729983E-01 0.20771075E+04</pdfrwt>
<totfact> 0.90952718E-03</totfact>
</mgrwt>
</event>
<event>
 6    1  0.1014650E-006  0.1957610E+04  0.7818608E-02  0.8626700E-01
         -1   -1    0    0    0  501 -0.00000000000E+00  0.00000000000E+00  0.28499200482E+03  0.28499200482E+03  0.00000000000E+00 0.  1.
          1   -1    0    0  501    0  0.00000000000E+00 -0.00000000000E+00 -0.33617055619E+04  0.33617055619E+04  0.00000000000E+00 0. -1.
         23    2    1    2    0    0  0.73328426188E+03  0.22172776967E+03 -0.41322251305E+03  0.87522619681E+03  0.91646264156E+02 0.  0.
         11    1    3    3    0    0  0.22361648282E+03  0.67474089202E+02 -0.79207133439E+02  0.24663911712E+03  0.00000000000E+00 0. -1.
        -11    1    3    3    0    0  0.50966777905E+03  0.15425368047E+03 -0.33401537961E+03  0.62858707969E+03  0.00000000000E+00 0.  1.
         22    1    1    2    0    0 -0.73328426188E+03 -0.22172776967E+03 -0.26634910441E+04  0.27714713699E+04  0.00000000000E+00 0. -1.
<mgrwt>
<rscale>  0 0.19576100E+04</rscale>
<asrwt>0</asrwt>
<pdfrwt beam="1">  1        1 0.51718545E+00 0.19576100E+04</pdfrwt>
<pdfrwt beam="2">  1       -1 0.43844925E-01 0.19576100E+04</pdfrwt>
<totfact> 0.15390891E+00</totfact>
</mgrwt>
</event>
<event>
 6    1  0.1014650E-006  0.2376722E+04  0.7818608E-02  0.8448270E-01
          2   -1    0    0  501    0  0.00000000000E+00  0.00000000000E+00  0.12562829692E+04  0.12562829692E+04  0.00000000000E+00 0. -1.
         -2   -1    0    0    0  501 -0.00000000000E+00 -0.00000000000E+00 -0.11241114705E+04  0.11241114705E+04  0.00000000000E+00 0.  1.
         23    2    1    2    0    0  0.60040338446E+03 -0.57291535460E+03  0.91549971539E+03  0.12392023776E+04  0.93629996201E+02 0.  0.
         13    1    3    3    0    0  0.43174753333E+02 -0.13278415388E+02  0.56474235780E+02  0.72316768094E+02  0.00000000000E+00 0. -1.
        -13    1    3    3    0    0  0.55722863113E+03 -0.55963693921E+03  0.85902547961E+03  0.11668856095E+04  0.00000000000E+00 0.  1.
         22    1    1    2    0    0 -0.60040338446E+03  0.57291535460E+03 -0.78332821661E+03  0.11411920621E+04  0.00000000000E+00 0.  1.
<mgrwt>
<rscale>  0 0.23767222E+04</rscale>
<asrwt>0</asrwt>
<pdfrwt beam="1">  1        2 0.19327430E+00 0.23767222E+04</pdfrwt>
<pdfrwt beam="2">  1       -2 0.17294023E+00 0.23767222E+04</pdfrwt>
<totfact> 0.32100284E+00</totfact>
</mgrwt>
</event>
<event>
 6    1  0.1014650E-006  0.1480495E+04  0.7818608E-02  0.8897528E-01
          1   -1    0    0  501    0  0.00000000000E+00  0.00000000000E+00  0.62849690117E+03  0.62849690117E+03  0.00000000000E+00 0. -1.
         -1   -1    0    0    0  501 -0.00000000000E+00 -0.00000000000E+00 -0.87186849057E+03  0.87186849057E+03  0.00000000000E+00 0.  1.
         23    2    1    2    0    0  0.72598474951E+03  0.11893682497E+03 -0.69572124850E+02  0.74445132339E+03  0.90375148639E+02 0.  0.
         11    1    3    3    0    0  0.51839329277E+03  0.73144403168E+02 -0.97759872092E+01  0.52361940342E+03  0.00000000000E+00 0. -1.
        -11    1    3    3    0    0  0.20759145673E+03  0.45792421801E+02 -0.59796137641E+02  0.22083191998E+03  0.00000000000E+00 0.  1.
         22    1    1    2    0    0 -0.72598474951E+03 -0.11893682497E+03 -0.17379946455E+03  0.75591406835E+03  0.00000000000E+00 0.  1.
<mgrwt>
<rscale>  0 0.14804954E+04</rscale>
<asrwt>0</asrwt>
<pdfrwt beam="1">  1        1 0.96691832E-01 0.14804954E+04</pdfrwt>
<pdfrwt beam="2">  1       -1 0.13413361E+00 0.14804954E+04</pdfrwt>
<totfact> 0.14525970E+01</totfact>
</mgrwt>
</event>
<event>
 6    1  0.1014650E-006  0.4584478E+03  0.7818608E-02  0.1025232E+00
         -2   -1    0    0    0  501 -0.00000000000E+00  0.00000000000E+00  0.19703355749E+03  0.19703355749E+03  0.00000000000E+00 0.  1.
          2   -1    0    0  501    0  0.00000000000E+00 -0.00000000000E+00 -0.26667338932E+03  0.26667338932E+03  0.00000000000E+00 0. -1.
         23    2    1    2    0    0 -0.89940636470E+00  0.15804443699E+03 -0.19152236813E+03  0.26412186307E+03  0.90003822481E+02 0.  0.
         11    1    3    3    0    0  0.22656270977E+02  0.11078450177E+03 -0.73610521256E+02  0.13492598447E+03  0.00000000000E+00 0.  1.
        -11    1    3    3    0    0 -0.23555677342E+02  0.47259935220E+02 -0.11791184688E+03  0.12919587860E+03  0.00000000000E+00 0. -1.
         22    1    1    2    0    0  0.89940636470E+00 -0.15804443699E+03  0.12188253630E+03  0.19958508374E+03  0.00000000000E+00 0.  1.
<mgrwt>
<rscale>  0 0.45844784E+03</rscale>
<asrwt>0</asrwt>
<pdfrwt beam="1">  1        2 0.41026675E-01 0.45844784E+03</pdfrwt>
<pdfrwt beam="2">  1       -2 0.30312855E-01 0.45844784E+03</pdfrwt>
<totfact> 0.12559942E+03</totfact>
</mgrwt>
</event>
<event>
 6    1  0.1014650E-006  0.1761426E+04  0.7818608E-02  0.8727086E-01
          1   -1    0    0  501    0  0.00000000000E+00  0.00000000000E+00  0.23776143132E+04  0.23776143132E+04  0.00000000000E+00 0. -1.
         -1   -1    0    0    0  501 -0.00000000000E+00 -0.00000000000E+00 -0.32623248460E+03  0.32623248460E+03  0.00000000000E+00 0.  1.
         23    2    1    2    0    0  0.80286222796E+02 -0.38153844565E+03 -0.17805802884E+03  0.44057051307E+03  0.10188352309E+03 0.  0.
         13    1    3    3    0    0  0.54079479154E+02 -0.30049626471E+03 -0.18173504754E+03  0.35531707343E+03  0.00000000000E+00 0.  1.
        -13    1    3    3    0    0  0.26206743641E+02 -0.81042180941E+02  0.36770187017E+01  0.85253439640E+02  0.00000000000E+00 0. -1.
         22    1    1    2    0    0 -0.80286222796E+02  0.38153844565E+03  0.22294398575E+04  0.22632762847E+04  0.00000000000E+00 0. -1.
<mgrwt>
<rscale>  0 0.17614256E+04</rscale>
<asrwt>0</asrwt>
<pdfrwt beam="1">  1        1 0.36578681E+00 0.17614256E+04</pdfrwt>
<pdfrwt beam="2">  1       -1 0.50189615E-01 0.17614256E+04</pdfrwt>
<totfact> 0.62158303E+00</totfact>
</mgrwt>
</event>
<event>
 6    1  0.1014650E-006  0.8126243E+03  0.7818608E-02  0.9541922E-01
          2   -1    0    0  501    0  0.00000000000E+00  0.00000000000E+00  0.30189374833E+03  0.30189374833E+03  0.00000000000E+00 0. -1.
         -2   -1    0    0    0  501 -0.00000000000E+00 -0.00000000000E+00 -0.54684651714E+03  0.54684651714E+03  0.00000000000E+00 0.  1.
         23    2    1    2    0    0 -0.31437240793E+02  0.24764360820E+03  0.20384394902E+03  0.33518973171E+03  0.92109412674E+02 0.  0.
         13    1    3    3    0    0 -0.43256326752E+02  0.43283881201E+02  0.52293821287E+02  0.80493775664E+02  0.00000000000E+00 0. -1.
        -13    1    3    3    0    0  0.11819085959E+02  0.20435972700E+03  0.15155012773E+03  0.25469595605E+03  0.00000000000E+00 0.  1.
         22    1    1    2    0    0  0.31437240793E+02 -0.24764360820E+03 -0.44879671782E+03  0.51355053375E+03  0.00000000000E+00 0.  1.
<mgrwt>
<rscale>  0 0.81262425E+03</rscale>
<asrwt>0</asrwt>
<pdfrwt beam="1">  1        2 0.46445193E-01 0.81262425E+03</pdfrwt>
<pdfrwt beam="2">  1       -2 0.84130232E-01 0.81262425E+03</pdfrwt>
<totfact> 0.13543146E+02</totfact>
</mgrwt>
</event>
<event>
 6    1  0.1014650E-006  0.4918685E+03  0.7818608E-02  0.1015923E+00
         -1   -1    0    0    0  501 -0.00000000000E+00  0.00000000000E+00  0.33999091609E+03  0.33999091609E+03  0.00000000000E+00 0.  1.
          1   -1    0    0  501    0  0.00000000000E+00 -0.00000000000E+00 -0.17789784163E+03  0.17789784163E+03  0.00000000000E+00 0. -1.
         23    2    1    2    0    0 -0.38436643026E+02  0.23355068248E+03  0.90606087257E+02  0.27063648543E+03  0.94928116918E+02 0.  0.
         11    1    3    3    0    0 -0.35561739196E+02  0.15229601786E+03  0.10458199813E+03  0.18813853588E+03  0.00000000000E+00 0.  1.
        -11    1    3    3    0    0 -0.28749038301E+01  0.81254664625E+02 -0.13975910870E+02  0.82497949550E+02  0.00000000000E+00 0. -1.
         22    1    1    2    0    0  0.38436643026E+02 -0.23355068248E+03  0.71486987211E+02  0.24725227230E+03  0.00000000000E+00 0.  1.
<mgrwt>
<rscale>  0 0.49186848E+03</rscale>
<asrwt>0</asrwt>
<pdfrwt beam="1">  1        1 0.27368899E-01 0.49186848E+03</pdfrwt>
<pdfrwt beam="2">  1       -1 0.52306295E-01 0.49186848E+03</pdfrwt>
<totfact> 0.64388730E+02</totfact>
</mgrwt>
</event>
<event>
 6    1  0.1014650E-006  0.3214818E+04  0.7818608E-02  0.8184915E-01
         -2   -1    0    0    0  501 -0.00000000000E+00  0.00000000000E+00  0.10962434986E+04  0.10962434986E+04  0.00000000000E+00 0.  1.
          2   -1    0    0  501    0  0.00000000000E+00 -0.00000000000E+00 -0.23569253215E+04  0.23569253215E+04  0.00000000000E+00 0. -1.
         23    2    1    2    0    0  0.77343480503E+03 -0.56974608331E+03  0.75184261643E+03  0.12231314626E+04  0.89281900802E+02 0.  0.
         13    1    3    3    0    0  0.41494757121E+03 -0.34316703784E+03  0.46152916817E+03  0.70919269299E+03  0.00000000000E+00 0. -1.
        -13    1    3    3    0    0  0.35848723382E+03 -0.22657904547E+03  0.29031344826E+03  0.51393876960E+03  0.00000000000E+00 0.  1.
         22    1    1    2    0    0 -0.77343480503E+03  0.56974608331E+03 -0.20125244393E+04  0.22300373575E+04  0.00000000000E+00 0. -1.
<mgrwt>
<rscale>  0 0.32148182E+04</rscale>
<asrwt>0</asrwt>
<pdfrwt beam="1">  1        2 0.36260389E+00 0.32148182E+04</pdfrwt>
<pdfrwt beam="2">  1       -2 0.16865285E+00 0.32148182E+04</pdfrwt>
<totfact> 0.77104757E-01</totfact>
</mgrwt>
</event>
<event>
 6    1  0.1014650E-006  0.2353857E+04  0.7818608E-02  0.8456984E-01
          3   -1    0    0  501    0  0.00000000000E+00  0.00000000000E+00  0.38241671670E+03  0.38241671670E+03  0.00000000000E+00 0. -1.
         -3   -1    0    0    0  501 -0.00000000000E+00 -0.00000000000E+00 -0.36221243490E+04  0.36221243490E+04  0.00000000000E+00 0.  1.
         23    2    1    2    0    0  0.57120224374E+03  0.71572616994E+03 -0.28752602433E+04  0.30189661812E+04  0.92192097863E+02 0.  0.
         13    1    3    3    0    0  0.38551992763E+03  0.41968751118E+03 -0.18503162508E+04  0.19360871493E+04  0.00000000000E+00 0. -1.
        -13    1    3    3    0    0  0.18568231612E+03  0.29603865876E+03 -0.10249439925E+04  0.10828790319E+04  0.00000000000E+00 0.  1.
         22    1    1    2    0    0 -0.57120224374E+03 -0.71572616994E+03 -0.36444738899E+03  0.98557488449E+03  0.00000000000E+00 0. -1.
<mgrwt>
<rscale>  0 0.23538572E+04</rscale>
<asrwt>0</asrwt>
<pdfrwt beam="1">  1        3 0.58833344E-01 0.23538572E+04</pdfrwt>
<pdfrwt beam="2">  1       -3 0.55724987E+00 0.23538572E+04</pdfrwt>
<totfact> 0.10159886E-02</totfact>
</mgrwt>
</event>
<event>
 6    1  0.1014650E-006  0.1872128E+04  0.7818608E-02  0.8668856E-01
          3   -1    0    0  501    0  0.00000000000E+00  0.00000000000E+00  0.79777238674E+03  0.79777238674E+03  0.00000000000E+00 0. -1.
         -3   -1    0    0    0  501 -0.00000000000E+00 -0.00000000000E+00 -0.10983286100E+04  0.10983286100E+04  0.00000000000E+00 0.  1.
         23    2    1    2    0    0 -0.21473324581E+03  0.90881469302E+03 -0.15604356920E+03  0.95114680719E+03  0.90973294143E+02 0.  0.
         13    1    3    3    0    0 -0.11076604340E+03  0.33489531822E+03 -0.90884444839E+02  0.36425811295E+03  0.00000000000E+00 0. -1.
        -13    1    3    3    0    0 -0.10396720241E+03  0.57391937480E+03 -0.65159124364E+02  0.58688869424E+03  0.00000000000E+00 0.  1.
         22    1    1    2    0    0  0.21473324581E+03 -0.90881469302E+03 -0.14451265402E+03  0.94495418951E+03  0.00000000000E+00 0. -1.
<mgrwt>
<rscale>  0 0.18721285E+04</rscale>
<asrwt>0</asrwt>
<pdfrwt beam="1">  1        3 0.12273421E+00 0.18721285E+04</pdfrwt>
<pdfrwt beam="2">  1       -3 0.16897363E+00 0.18721285E+04</pdfrwt>
<totfact> 0.30937069E-01</totfact>
</mgrwt>
</event>
<event>
 6    1  0.1014650E-006  0.1389620E+04  0.7818608E-02  0.8961367E-01
         -1   -1    0    0    0  501 -0.00000000000E+00  0.00000000000E+00  0.24096456407E+03  0.24096456407E+03  0.00000000000E+00 0.  1.
          1   -1    0    0  501    0  0.00000000000E+00 -0.00000000000E+00 -0.20034517293E+04  0.20034517293E+04  0.00000000000E+00 0. -1.
         23    2    1    2    0    0  0.35053934568E+03  0.17391488637E+03  0.37533531130E+02  0.40235257896E+03  0.85759030247E+02 0.  0.
         11    1    3    3    0    0  0.27174033262E+03  0.14651219188E+03 -0.48863756265E+01  0.30875962723E+03  0.00000000000E+00 0.  1.
        -11    1    3    3    0    0  0.78799013066E+02  0.27402694486E+02  0.42419906756E+02  0.93592951735E+02  0.00000000000E+00 0. -1.
         22    1    1    2    0    0 -0.35053934568E+03 -0.17391488637E+03 -0.18000206963E+04  0.18420637144E+04  0.00000000000E+00 0. -1.
<mgrwt>
<rscale>  0 0.13896199E+04</rscale>
<asrwt>0</asrwt>
<pdfrwt beam="1">  1        1 0.30822333E+00 0.13896199E+04</pdfrwt>
<pdfrwt beam="2">  1       -1 0.37071473E-01 0.13896199E+04</pdfrwt>
<totfact> 0.20253677E+01</totfact>
</mgrwt>
</event>
<event>
 6    1  0.1014650E-006  0.2961845E+04  0.7818608E-02  0.8254711E-01
          2   -1    0    0  501    0  0.00000000000E+00  0.00000000000E+00  0.24232858237E+04  0.24232858237E+04  0.00000000000E+00 0. -1.
         -2   -1    0    0    0  501 -0.00000000000E+00 -0.00000000000E+00 -0.90502355115E+03  0.90502355115E+03  0.00000000000E+00 0.  1.
         23    2    1    2    0    0 -0.74176421330E+03  0.10527168916E+04  0.15782933709E+04  0.20391116651E+04  0.92408962532E+02 0.  0.
         11    1    3    3    0    0 -0.27765747746E+03  0.39118934147E+03  0.65947393385E+03  0.81549288477E+03  0.00000000000E+00 0. -1.
        -11    1    3    3    0    0 -0.46410673584E+03  0.66152755011E+03  0.91881943703E+03  0.12236187804E+04  0.00000000000E+00 0.  1.
         22    1    1    2    0    0  0.74176421330E+03 -0.10527168916E+04 -0.60031098337E+02  0.12891977097E+04  0.00000000000E+00 0.  1.
<mgrwt>
<rscale>  0 0.29618445E+04</rscale>
<asrwt>0</asrwt>
<pdfrwt beam="1">  1        2 0.37281320E+00 0.29618445E+04</pdfrwt>
<pdfrwt beam="2">  1       -2 0.13923439E+00 0.29618445E+04</pdfrwt>
<totfact> 0.12057846E+00</totfact>
</mgrwt>
</event>
<event>
 6    1  0.1014650E-006  0.2458650E+04  0.7818608E-02  0.8417866E-01
          1   -1    0    0  501    0  0.00000000000E+00  0.00000000000E+00  0.27874660241E+04  0.27874660241E+04  0.00000000000E+00 0. -1.
         -1   -1    0    0    0  501 -0.00000000000E+00 -0.00000000000E+00 -0.54215555890E+03  0.54215555890E+03  0.00000000000E+00 0.  1.
         23    2    1    2    0    0  0.87430903728E+03 -0.13452709711E+03  0.22769330468E+04  0.24444584228E+04  0.91864295209E+02 0.  0.
         11    1    3    3    0    0  0.37588091196E+03 -0.10394496267E+03  0.10005869603E+04  0.10739018951E+04  0.00000000000E+00 0.  1.
        -11    1    3    3    0    0  0.49842812531E+03 -0.30582134439E+02  0.12763460865E+04  0.13705565277E+04  0.00000000000E+00 0. -1.
         22    1    1    2    0    0 -0.87430903728E+03  0.13452709711E+03 -0.31622581585E+02  0.88516316021E+03  0.00000000000E+00 0.  1.
<mgrwt>
<rscale>  0 0.24586502E+04</rscale>
<asrwt>0</asrwt>
<pdfrwt beam="1">  1        1 0.42884092E+00 0.24586502E+04</pdfrwt>
<pdfrwt beam="2">  1       -1 0.83408549E-01 0.24586502E+04</pdfrwt>
<totfact> 0.10816838E+00</totfact>
</mgrwt>
</event>
<event>
 6    1  0.1014650E-006  0.1606433E+04  0.7818608E-02  0.8816606E-01
          1   -1    0    0  501    0  0.00000000000E+00  0.00000000000E+00  0.60528058035E+03  0.60528058035E+03  0.00000000000E+00 0. -1.
         -1   -1    0    0    0  501 -0.00000000000E+00 -0.00000000000E+00 -0.10658802245E+04  0.10658802245E+04  0.00000000000E+00 0.  1.
         23    2    1    2    0    0  0.50290382620E+03  0.61472777658E+03 -0.12596397340E+03  0.80931190284E+03  0.91193945914E+02 0.  0.
         13    1    3    3    0    0  0.11044150649E+03  0.81006422032E+02 -0.21775523365E+02  0.13868503951E+03  0.00000000000E+00 0.  1.
        -13    1    3    3    0    0  0.39246231971E+03  0.53372135455E+03 -0.10418845003E+03  0.67062686333E+03  0.00000000000E+00 0. -1.
         22    1    1    2    0    0 -0.50290382620E+03 -0.61472777658E+03 -0.33463567071E+03  0.86184890197E+03  0.00000000000E+00 0.  1.
<mgrwt>
<rscale>  0 0.16064328E+04</rscale>
<asrwt>0</asrwt>
<pdfrwt beam="1">  1        1 0.93120090E-01 0.16064328E+04</pdfrwt>
<pdfrwt beam="2">  1       -1 0.16398157E+00 0.16064328E+04</pdfrwt>
<totfact> 0.88443454E+00</totfact>
</mgrwt>
</event>
<event>
 6    1  0.1014650E-006  0.2887772E+04  0.7818608E-02  0.8276525E-01
         -2   -1    0    0    0  501 -0.00000000000E+00  0.00000000000E+00  0.12198057418E+04  0.12198057418E+04  0.00000000000E+00 0.  1.
          2   -1    0    0  501    0  0.00000000000E+00 -0.00000000000E+00 -0.17091306923E+04  0.17091306923E+04  0.00000000000E+00 0. -1.
         23    2    1    2    0    0 -0.83659563070E+03 -0.44424679913E+02 -0.14358926246E+04  0.16648730800E+04  0.90271487791E+02 0.  0.
         13    1    3    3    0    0 -0.43750708404E+03  0.18695979865E+02 -0.71365780443E+03  0.83729890128E+03  0.00000000000E+00 0. -1.
        -13    1    3    3    0    0 -0.39908854666E+03 -0.63120659779E+02 -0.72223482021E+03  0.82757417873E+03  0.00000000000E+00 0.  1.
         22    1    1    2    0    0  0.83659563070E+03  0.44424679913E+02  0.94656767413E+03  0.12640633541E+04  0.00000000000E+00 0.  1.
<mgrwt>
<rscale>  0 0.28877725E+04</rscale>
<asrwt>0</asrwt>
<pdfrwt beam="1">  1        2 0.26294318E+00 0.28877725E+04</pdfrwt>
<pdfrwt beam="2">  1       -2 0.18766242E+00 0.28877725E+04</pdfrwt>
<totfact> 0.13460777E+00</totfact>
</mgrwt>
</event>
<event>
 6    1  0.1014650E-006  0.2057480E+04  0.7818608E-02  0.8580209E-01
         -2   -1    0    0    0  501 -0.00000000000E+00  0.00000000000E+00  0.96443656649E+03  0.96443656649E+03  0.00000000000E+00 0.  1.
          2   -1    0    0  501    0  0.00000000000E+00 -0.00000000000E+00 -0.10973307642E+04  0.10973307642E+04  0.00000000000E+00 0. -1.
         23    2    1    2    0    0  0.68583001776E+03  0.27483798136E+03 -0.78037084989E+03  0.10793597044E+04  0.10069746182E+03 0.  0.
         13    1    3    3    0    0  0.32965535617E+03  0.16240068763E+03 -0.44750762603E+03  0.57905933422E+03  0.00000000000E+00 0. -1.
        -13    1    3    3    0    0  0.35617466159E+03  0.11243729373E+03 -0.33286322386E+03  0.50030037015E+03  0.00000000000E+00 0.  1.
         22    1    1    2    0    0 -0.68583001776E+03 -0.27483798136E+03  0.64747665214E+03  0.98240762636E+03  0.00000000000E+00 0.  1.
<mgrwt>
<rscale>  0 0.20574799E+04</rscale>
<asrwt>0</asrwt>
<pdfrwt beam="1">  1        2 0.16882012E+00 0.20574799E+04</pdfrwt>
<pdfrwt beam="2">  1       -2 0.14837486E+00 0.20574799E+04</pdfrwt>
<totfact> 0.62367298E+00</totfact>
</mgrwt>
</event>
<event>
 6    1  0.1014650E-006  0.3250753E+04  0.7818608E-02  0.8175541E-01
         -1   -1    0    0    0  501 -0.00000000000E+00  0.00000000000E+00  0.86452718629E+03  0.86452718629E+03  0.00000000000E+00 0.  1.
          1   -1    0    0  501    0  0.00000000000E+00 -0.00000000000E+00 -0.30558301705E+04  0.30558301705E+04  0.00000000000E+00 0. -1.
         23    2    1    2    0    0  0.10638772022E+04  0.80143541429E+03  0.24104798487E+02  0.13353689490E+04  0.92172469001E+02 0.  0.
         11    1    3    3    0    0  0.18416589074E+03  0.13884881091E+03  0.39155751521E+02  0.23394281455E+03  0.00000000000E+00 0.  1.
        -11    1    3    3    0    0  0.87971131146E+03  0.66258660338E+03 -0.15050953035E+02  0.11014261345E+04  0.00000000000E+00 0. -1.
         22    1    1    2    0    0 -0.10638772022E+04 -0.80143541429E+03 -0.22154077827E+04  0.25849884077E+04  0.00000000000E+00 0. -1.
<mgrwt>
<rscale>  0 0.32507527E+04</rscale>
<asrwt>0</asrwt>
<pdfrwt beam="1">  1        1 0.47012771E+00 0.32507527E+04</pdfrwt>
<pdfrwt beam="2">  1       -1 0.13300419E+00 0.32507527E+04</pdfrwt>
<totfact> 0.21666810E-01</totfact>
</mgrwt>
</event>
<event>
 6    1  0.1014650E-006  0.2677765E+04  0.7818608E-02  0.8342256E-01
          2   -1    0    0  501    0  0.00000000000E+00  0.00000000000E+00  0.98067237983E+03  0.98067237983E+03  0.00000000000E+00 0. -1.
         -2   -1    0    0    0  501 -0.00000000000E+00 -0.00000000000E+00 -0.18279361841E+04  0.18279361841E+04  0.00000000000E+00 0.  1.
         23    2    1    2    0    0 -0.61417785225E+03 -0.61442481015E+03  0.64250361855E+03  0.10840392682E+04  0.87166241819E+02 0.  0.
         13    1    3    3    0    0 -0.21876331251E+03 -0.24932372370E+03  0.29081347606E+03  0.44112604090E+03  0.00000000000E+00 0.  1.
        -13    1    3    3    0    0 -0.39541453975E+03 -0.36510108645E+03  0.35169014249E+03  0.64291322735E+03  0.00000000000E+00 0. -1.
         22    1    1    2    0    0  0.61417785225E+03  0.61442481015E+03 -0.14897674228E+04  0.17245692957E+04  0.00000000000E+00 0.  1.
<mgrwt>
<rscale>  0 0.26777651E+04</rscale>
<asrwt>0</asrwt>
<pdfrwt beam="1">  1        2 0.15087267E+00 0.26777651E+04</pdfrwt>
<pdfrwt beam="2">  1       -2 0.28122095E+00 0.26777651E+04</pdfrwt>
<totfact> 0.94316998E-01</totfact>
</mgrwt>
</event>
<event>
 6    1  0.1014650E-006  0.1535760E+04  0.7818608E-02  0.8861015E-01
          1   -1    0    0  501    0  0.00000000000E+00  0.00000000000E+00  0.17562894608E+04  0.17562894608E+04  0.00000000000E+00 0. -1.
         -1   -1    0    0    0  501 -0.00000000000E+00 -0.00000000000E+00 -0.33573018828E+03  0.33573018828E+03  0.00000000000E+00 0.  1.
         23    2    1    2    0    0  0.63854005254E+03 -0.13578465919E+03  0.16904071865E+03  0.68047100910E+03  0.91077754135E+02 0.  0.
         13    1    3    3    0    0  0.48345762009E+03 -0.14215309524E+03  0.13022202609E+03  0.52047723196E+03  0.00000000000E+00 0. -1.
        -13    1    3    3    0    0  0.15508243244E+03  0.63684360525E+01  0.38818692560E+02  0.15999377713E+03  0.00000000000E+00 0.  1.
         22    1    1    2    0    0 -0.63854005254E+03  0.13578465919E+03  0.12515185539E+04  0.14115486400E+04  0.00000000000E+00 0. -1.
<mgrwt>
<rscale>  0 0.15357596E+04</rscale>
<asrwt>0</asrwt>
<pdfrwt beam="1">  1        1 0.27019837E+00 0.15357596E+04</pdfrwt>
<pdfrwt beam="2">  1       -1 0.51650799E-01 0.15357596E+04</pdfrwt>
<totfact> 0.15875290E+01</totfact>
</mgrwt>
</event>
<event>
 6    1  0.1014650E-006  0.1775979E+04  0.7818608E-02  0.8719179E-01
         -1   -1    0    0    0  501 -0.00000000000E+00  0.00000000000E+00  0.10148698474E+04  0.10148698474E+04  0.00000000000E+00 0.  1.
          1   -1    0    0  501    0  0.00000000000E+00 -0.00000000000E+00 -0.77697157374E+03  0.77697157374E+03  0.00000000000E+00 0. -1.
         23    2    1    2    0    0 -0.77439900731E+03  0.27602454786E+03 -0.21318616161E+03  0.85409916376E+03  0.90297666013E+02 0.  0.
         13    1    3    3    0    0 -0.47794604600E+03  0.21371540122E+03 -0.15045764633E+03  0.54474232344E+03  0.00000000000E+00 0.  1.
        -13    1    3    3    0    0 -0.29645296131E+03  0.62309146642E+02 -0.62728515285E+02  0.30935684032E+03  0.00000000000E+00 0. -1.
         22    1    1    2    0    0  0.77439900731E+03 -0.27602454786E+03  0.45108443526E+03  0.93774225738E+03  0.00000000000E+00 0.  1.
<mgrwt>
<rscale>  0 0.17759786E+04</rscale>
<asrwt>0</asrwt>
<pdfrwt beam="1">  1        1 0.11953409E+00 0.17759786E+04</pdfrwt>
<pdfrwt beam="2">  1       -1 0.15613382E+00 0.17759786E+04</pdfrwt>
<totfact> 0.68516931E+00</totfact>
</mgrwt>
</event>
<event>
 6    1  0.1014650E-006  0.2021826E+04  0.7818608E-02  0.8596484E-01
          2   -1    0    0  501    0  0.00000000000E+00  0.00000000000E+00  0.18826659251E+04  0.18826659251E+04  0.00000000000E+00 0. -1.
         -2   -1    0    0    0  501 -0.00000000000E+00 -0.00000000000E+00 -0.54281793223E+03  0.54281793223E+03  0.00000000000E+00 0.  1.
         23    2    1    2    0    0  0.34788154153E+03 -0.38934413310E+03 -0.36425878159E+03  0.64318469062E+03  0.91606033484E+02 0.  0.
         11    1    3    3    0    0  0.25440262554E+03 -0.22948273308E+03 -0.26454505814E+03  0.43285922475E+03  0.00000000000E+00 0.  1.
        -11    1    3    3    0    0  0.93478915993E+02 -0.15986140002E+03 -0.99713723444E+02  0.21032546588E+03  0.00000000000E+00 0. -1.
         22    1    1    2    0    0 -0.34788154153E+03  0.38934413310E+03  0.17041067744E+04  0.17822991667E+04  0.00000000000E+00 0. -1.
<mgrwt>
<rscale>  0 0.20218257E+04</rscale>
<asrwt>0</asrwt>
<pdfrwt beam="1">  1        2 0.28964091E+00 0.20218257E+04</pdfrwt>
<pdfrwt beam="2">  1       -2 0.83510453E-01 0.20218257E+04</pdfrwt>
<totfact> 0.90308605E+00</totfact>
</mgrwt>
</event>
<event>
 6    1  0.1014650E-006  0.9481929E+03  0.7818608E-02  0.9367265E-01
          2   -1    0    0  501    0  0.00000000000E+00  0.00000000000E+00  0.12393709879E+04  0.12393709879E+04  0.00000000000E+00 0. -1.
         -2   -1    0    0    0  501 -0.00000000000E+00 -0.00000000000E+00 -0.18135604802E+03  0.18135604802E+03  0.00000000000E+00 0.  1.
         23    2    1    2    0    0 -0.10098750561E+03 -0.27919522978E+03  0.10793133079E+04  0.11230660323E+04  0.90618119568E+02 0.  0.
         11    1    3    3    0    0 -0.76091115331E+02 -0.15099901243E+03  0.45896344813E+03  0.48911962372E+03  0.00000000000E+00 0. -1.
        -11    1    3    3    0    0 -0.24896390275E+02 -0.12819621736E+03  0.62034985976E+03  0.63394640853E+03  0.00000000000E+00 0.  1.
         22    1    1    2    0    0  0.10098750561E+03  0.27919522978E+03 -0.21298368015E+02  0.29766100367E+03  0.00000000000E+00 0.  1.
<mgrwt>
<rscale>  0 0.94819286E+03</rscale>
<asrwt>0</asrwt>
<pdfrwt beam="1">  1        2 0.19067245E+00 0.94819286E+03</pdfrwt>
<pdfrwt beam="2">  1       -2 0.27900931E-01 0.94819286E+03</pdfrwt>
<totfact> 0.21040713E+02</totfact>
</mgrwt>
</event>
<event>
 6    1  0.1014650E-006  0.3071423E+04  0.7818608E-02  0.8223625E-01
         -1   -1    0    0    0  501 -0.00000000000E+00  0.00000000000E+00  0.93526569282E+03  0.93526569282E+03  0.00000000000E+00 0.  1.
          1   -1    0    0  501    0  0.00000000000E+00 -0.00000000000E+00 -0.25216466203E+04  0.25216466203E+04  0.00000000000E+00 0. -1.
         23    2    1    2    0    0  0.11026380386E+04  0.34388252787E+03 -0.19307353699E+04  0.22516547394E+04  0.90244998333E+02 0.  0.
         11    1    3    3    0    0  0.27970570449E+03  0.77744582583E+02 -0.41387676576E+03  0.50554275633E+03  0.00000000000E+00 0. -1.
        -11    1    3    3    0    0  0.82293233411E+03  0.26613794529E+03 -0.15168586041E+04  0.17461119831E+04  0.00000000000E+00 0.  1.
         22    1    1    2    0    0 -0.11026380386E+04 -0.34388252787E+03  0.34435444237E+03  0.12052575738E+04  0.00000000000E+00 0.  1.
<mgrwt>
<rscale>  0 0.30714228E+04</rscale>
<asrwt>0</asrwt>
<pdfrwt beam="1">  1        1 0.38794563E+00 0.30714228E+04</pdfrwt>
<pdfrwt beam="2">  1       -1 0.14388703E+00 0.30714228E+04</pdfrwt>
<totfact> 0.43151275E-01</totfact>
</mgrwt>
</event>
<event>
 6    1  0.1014650E-006  0.9225217E+03  0.7818608E-02  0.9397858E-01
          1   -1    0    0  501    0  0.00000000000E+00  0.00000000000E+00  0.36159274938E+03  0.36159274938E+03  0.00000000000E+00 0. -1.
         -1   -1    0    0    0  501 -0.00000000000E+00 -0.00000000000E+00 -0.58840103745E+03  0.58840103745E+03  0.00000000000E+00 0.  1.
         23    2    1    2    0    0 -0.50519471468E+02 -0.43126239358E+03  0.31940961663E+02  0.44453296407E+03  0.89721023150E+02 0.  0.
         11    1    3    3    0    0  0.22245336693E+02 -0.12774367670E+03  0.26609698709E+02  0.13236834216E+03  0.00000000000E+00 0.  1.
        -11    1    3    3    0    0 -0.72764808161E+02 -0.30351871689E+03  0.53312629543E+01  0.31216462191E+03  0.00000000000E+00 0. -1.
         22    1    1    2    0    0  0.50519471468E+02  0.43126239358E+03 -0.25874924973E+03  0.50546082277E+03  0.00000000000E+00 0.  1.
<mgrwt>
<rscale>  0 0.92252165E+03</rscale>
<asrwt>0</asrwt>
<pdfrwt beam="1">  1        1 0.55629655E-01 0.92252165E+03</pdfrwt>
<pdfrwt beam="2">  1       -1 0.90523235E-01 0.92252165E+03</pdfrwt>
<totfact> 0.82421026E+01</totfact>
</mgrwt>
</event>
<event>
 6    1  0.1014650E-006  0.7344515E+03  0.7818608E-02  0.9660064E-01
         -2   -1    0    0    0  501 -0.00000000000E+00  0.00000000000E+00  0.12053336053E+03  0.12053336053E+03  0.00000000000E+00 0.  1.
          2   -1    0    0  501    0  0.00000000000E+00 -0.00000000000E+00 -0.11188168706E+04  0.11188168706E+04  0.00000000000E+00 0. -1.
         23    2    1    2    0    0 -0.21822589978E+03  0.27769337000E+03 -0.64069798411E+03  0.73675341513E+03  0.87037559625E+02 0.  0.
         13    1    3    3    0    0 -0.17828336876E+03  0.17913047286E+03 -0.50146256989E+03  0.56154910283E+03  0.00000000000E+00 0. -1.
        -13    1    3    3    0    0 -0.39942531021E+02  0.98562897139E+02 -0.13923541422E+03  0.17520431230E+03  0.00000000000E+00 0.  1.
         22    1    1    2    0    0  0.21822589978E+03 -0.27769337000E+03 -0.35758552595E+03  0.50259681600E+03  0.00000000000E+00 0. -1.
<mgrwt>
<rscale>  0 0.73445152E+03</rscale>
<asrwt>0</asrwt>
<pdfrwt beam="1">  1        2 0.17212567E+00 0.73445152E+03</pdfrwt>
<pdfrwt beam="2">  1       -2 0.18543594E-01 0.73445152E+03</pdfrwt>
<totfact> 0.52041115E+02</totfact>
</mgrwt>
</event>
<event>
 6    1  0.1014650E-006  0.3054765E+04  0.7818608E-02  0.8228263E-01
         -2   -1    0    0    0  501 -0.00000000000E+00  0.00000000000E+00  0.10256786478E+04  0.10256786478E+04  0.00000000000E+00 0.  1.
          2   -1    0    0  501    0  0.00000000000E+00 -0.00000000000E+00 -0.22744918370E+04  0.22744918370E+04  0.00000000000E+00 0. -1.
         23    2    1    2    0    0  0.41820916182E+03  0.46357126516E+03 -0.21293343024E+04  0.22207657175E+04  0.89098707689E+02 0.  0.
         11    1    3    3    0    0  0.20411508140E+02  0.81455386114E+01 -0.13486903052E+03  0.13664784981E+03  0.00000000000E+00 0. -1.
        -11    1    3    3    0    0  0.39779765368E+03  0.45542572655E+03 -0.19944652719E+04  0.20841178677E+04  0.00000000000E+00 0.  1.
         22    1    1    2    0    0 -0.41820916182E+03 -0.46357126516E+03  0.88052111316E+03  0.10794047673E+04  0.00000000000E+00 0.  1.
<mgrwt>
<rscale>  0 0.30547653E+04</rscale>
<asrwt>0</asrwt>
<pdfrwt beam="1">  1        2 0.34992182E+00 0.30547653E+04</pdfrwt>
<pdfrwt beam="2">  1       -2 0.15779672E+00 0.30547653E+04</pdfrwt>
<totfact> 0.10447293E+00</totfact>
</mgrwt>
</event>
<event>
 6    1  0.1014650E-006  0.2788721E+04  0.7818608E-02  0.8306779E-01
         -2   -1    0    0    0  501 -0.00000000000E+00  0.00000000000E+00  0.62282044959E+03  0.62282044959E+03  0.00000000000E+00 0.  1.
          2   -1    0    0  501    0  0.00000000000E+00 -0.00000000000E+00 -0.31216717798E+04  0.31216717798E+04  0.00000000000E+00 0. -1.
         23    2    1    2    0    0 -0.21498845978E+03  0.12903598577E+04 -0.61043563296E+03  0.14472411665E+04  0.10308604063E+03 0.  0.
         13    1    3    3    0    0 -0.11117205532E+03  0.49152122771E+03 -0.28043774797E+03  0.57671281732E+03  0.00000000000E+00 0. -1.
        -13    1    3    3    0    0 -0.10381640446E+03  0.79883863001E+03 -0.32999788499E+03  0.87052834918E+03  0.00000000000E+00 0.  1.
         22    1    1    2    0    0  0.21498845978E+03 -0.12903598577E+04 -0.18884156972E+04  0.22972510628E+04  0.00000000000E+00 0.  1.
<mgrwt>
<rscale>  0 0.27887209E+04</rscale>
<asrwt>0</asrwt>
<pdfrwt beam="1">  1        2 0.48025718E+00 0.27887209E+04</pdfrwt>
<pdfrwt beam="2">  1       -2 0.95818533E-01 0.27887209E+04</pdfrwt>
<totfact> 0.11591171E+00</totfact>
</mgrwt>
</event>
<event>
 6    1  0.1014650E-006  0.4358958E+04  0.7818608E-02  0.7935805E-01
          2   -1    0    0  501    0  0.00000000000E+00  0.00000000000E+00  0.37894488458E+04  0.37894488458E+04  0.00000000000E+00 0. -1.
         -2   -1    0    0    0  501 -0.00000000000E+00 -0.00000000000E+00 -0.12535144305E+04  0.12535144305E+04  0.00000000000E+00 0.  1.
         23    2    1    2    0    0 -0.87367132211E+03 -0.19956360879E+04  0.12780901266E+04  0.25274042472E+04  0.91612677136E+02 0.  0.
         13    1    3    3    0    0 -0.25490671645E+03 -0.49707526144E+03  0.30357516132E+03  0.63578229622E+03  0.00000000000E+00 0.  1.
        -13    1    3    3    0    0 -0.61876460566E+03 -0.14985608264E+04  0.97451496531E+03  0.18916219509E+04  0.00000000000E+00 0. -1.
         22    1    1    2    0    0  0.87367132211E+03  0.19956360879E+04  0.12578442887E+04  0.25155590291E+04  0.00000000000E+00 0.  1.
<mgrwt>
<rscale>  0 0.43589580E+04</rscale>
<asrwt>0</asrwt>
<pdfrwt beam="1">  1        2 0.58299212E+00 0.43589580E+04</pdfrwt>
<pdfrwt beam="2">  1       -2 0.19284838E+00 0.43589580E+04</pdfrwt>
<totfact> 0.56701265E-02</totfact>
</mgrwt>
</event>
<event>
 6    1  0.1014650E-006  0.2935281E+04  0.7818608E-02  0.8262457E-01
          2   -1    0    0  501    0  0.00000000000E+00  0.00000000000E+00  0.93539165250E+03  0.93539165250E+03  0.00000000000E+00 0. -1.
         -2   -1    0    0    0  501 -0.00000000000E+00 -0.00000000000E+00 -0.23027456436E+04  0.23027456436E+04  0.00000000000E+00 0.  1.
         23    2    1    2    0    0  0.67669420898E+03  0.23168253242E+03 -0.20962496417E+04  0.22169219819E+04  0.94279718428E+02 0.  0.
         13    1    3    3    0    0  0.50511971821E+03  0.13558813269E+03 -0.15906782978E+04  0.16744514082E+04  0.00000000000E+00 0.  1.
        -13    1    3    3    0    0  0.17157449077E+03  0.96094399735E+02 -0.50557134391E+03  0.54247057369E+03  0.00000000000E+00 0. -1.
         22    1    1    2    0    0 -0.67669420898E+03 -0.23168253242E+03  0.72889565064E+03  0.10212153141E+04  0.00000000000E+00 0. -1.
<mgrwt>
<rscale>  0 0.29352813E+04</rscale>
<asrwt>0</asrwt>
<pdfrwt beam="1">  1        2 0.14390641E+00 0.29352813E+04</pdfrwt>
<pdfrwt beam="2">  1       -2 0.35426855E+00 0.29352813E+04</pdfrwt>
<totfact> 0.34923907E-01</totfact>
</mgrwt>
</event>
<event>
 6    1  0.1014650E-006  0.1102454E+04  0.7818608E-02  0.9202804E-01
          2   -1    0    0  501    0  0.00000000000E+00  0.00000000000E+00  0.29374039200E+04  0.29374039200E+04  0.00000000000E+00 0. -1.
         -2   -1    0    0    0  501 -0.00000000000E+00 -0.00000000000E+00 -0.10344203204E+03  0.10344203204E+03  0.00000000000E+00 0.  1.
         23    2    1    2    0    0  0.31726669724E+03 -0.44726579286E+03  0.14200772845E+04  0.15243452041E+04  0.79397484826E+02 0.  0.
         11    1    3    3    0    0  0.18609986554E+03 -0.23757658109E+03  0.88047142730E+03  0.93075545990E+03  0.00000000000E+00 0.  1.
        -11    1    3    3    0    0  0.13116683170E+03 -0.20968921177E+03  0.53960585721E+03  0.59358974419E+03  0.00000000000E+00 0. -1.
         22    1    1    2    0    0 -0.31726669724E+03  0.44726579286E+03  0.14138846034E+04  0.15165007479E+04  0.00000000000E+00 0.  1.
<mgrwt>
<rscale>  0 0.11024537E+04</rscale>
<asrwt>0</asrwt>
<pdfrwt beam="1">  1        2 0.45190823E+00 0.11024537E+04</pdfrwt>
<pdfrwt beam="2">  1       -2 0.15914161E-01 0.11024537E+04</pdfrwt>
<totfact> 0.61092976E+01</totfact>
</mgrwt>
</event>
<event>
 6    1  0.1014650E-006  0.3163515E+04  0.7818608E-02  0.8198520E-01
         -1   -1    0    0    0  501 -0.00000000000E+00  0.00000000000E+00  0.11840555780E+04  0.11840555780E+04  0.00000000000E+00 0.  1.
          1   -1    0    0  501    0  0.00000000000E+00 -0.00000000000E+00 -0.21130398975E+04  0.21130398975E+04  0.00000000000E+00 0. -1.
         23    2    1    2    0    0 -0.21958719547E+02  0.53345732794E+03  0.10854891952E+04  0.12130699364E+04  0.90515035519E+02 0.  0.
         11    1    3    3    0    0 -0.26669594821E+01  0.35480267236E+03  0.80810659442E+03  0.88256915702E+03  0.00000000000E+00 0.  1.
        -11    1    3    3    0    0 -0.19291760065E+02  0.17865465558E+03  0.27738260080E+03  0.33050077941E+03  0.00000000000E+00 0. -1.
         22    1    1    2    0    0  0.21958719547E+02 -0.53345732794E+03 -0.20144735147E+04  0.20840255391E+04  0.00000000000E+00 0. -1.
<mgrwt>
<rscale>  0 0.31635149E+04</rscale>
<asrwt>0</asrwt>
<pdfrwt beam="1">  1        1 0.32508306E+00 0.31635149E+04</pdfrwt>
<pdfrwt beam="2">  1       -1 0.18216240E+00 0.31635149E+04</pdfrwt>
<totfact> 0.42080326E-01</totfact>
</mgrwt>
</event>
<event>
 6    1  0.1014650E-006  0.4396302E+04  0.7818608E-02  0.7929047E-01
         -2   -1    0    0    0  501 -0.00000000000E+00  0.00000000000E+00  0.15682427257E+04  0.15682427257E+04  0.00000000000E+00 0.  1.
          2   -1    0    0  501    0  0.00000000000E+00 -0.00000000000E+00 -0.30810709731E+04  0.30810709731E+04  0.00000000000E+00 0. -1.
         23    2    1    2    0    0 -0.30297317758E+03  0.12856582116E+04  0.11001256580E+04  0.17214752648E+04  0.92145757803E+02 0.  0.
         13    1    3    3    0    0 -0.23228884415E+03  0.79126263764E+03  0.68800451964E+03  0.10739668933E+04  0.00000000000E+00 0. -1.
        -13    1    3    3    0    0 -0.70684333431E+02  0.49439557392E+03  0.41212113838E+03  0.64750837153E+03  0.00000000000E+00 0.  1.
         22    1    1    2    0    0  0.30297317758E+03 -0.12856582116E+04 -0.26129539054E+04  0.29278384339E+04  0.00000000000E+00 0. -1.
<mgrwt>
<rscale>  0 0.43963017E+04</rscale>
<asrwt>0</asrwt>
<pdfrwt beam="1">  1        2 0.47401092E+00 0.43963017E+04</pdfrwt>
<pdfrwt beam="2">  1       -2 0.24126811E+00 0.43963017E+04</pdfrwt>
<totfact> 0.85946717E-02</totfact>
</mgrwt>
</event>
<event>
 6    1  0.1014650E-006  0.4437911E+04  0.7818608E-02  0.7921598E-01
          2   -1    0    0  501    0  0.00000000000E+00  0.00000000000E+00  0.34376879748E+04  0.34376879748E+04  0.00000000000E+00 0. -1.
         -2   -1    0    0    0  501 -0.00000000000E+00 -0.00000000000E+00 -0.14322890246E+04  0.14322890246E+04  0.00000000000E+00 0.  1.
         23    2    1    2    0    0 -0.19407586974E+04 -0.57307138835E+03  0.19979595394E+04  0.28463637749E+04  0.12243071750E+03 0.  0.
         13    1    3    3    0    0 -0.85279400718E+03 -0.20888660128E+03  0.80384091729E+03  0.11903997023E+04  0.00000000000E+00 0. -1.
        -13    1    3    3    0    0 -0.10879646902E+04 -0.36418478707E+03  0.11941186222E+04  0.16559640727E+04  0.00000000000E+00 0.  1.
         22    1    1    2    0    0  0.19407586974E+04  0.57307138835E+03  0.74394107985E+01  0.20236132245E+04  0.00000000000E+00 0. -1.
<mgrwt>
<rscale>  0 0.44379107E+04</rscale>
<asrwt>0</asrwt>
<pdfrwt beam="1">  1        2 0.52887507E+00 0.44379107E+04</pdfrwt>
<pdfrwt beam="2">  1       -2 0.22035216E+00 0.44379107E+04</pdfrwt>
<totfact> 0.67146667E-02</totfact>
</mgrwt>
</event>
<event>
 6    1  0.1304498E-006  0.5942894E+04  0.7818608E-02  0.7697523E-01
          2   -1    0    0  501    0  0.00000000000E+00  0.00000000000E+00  0.28491782253E+04  0.28491782253E+04  0.00000000000E+00 0. -1.
         -2   -1    0    0    0  501 -0.00000000000E+00 -0.00000000000E+00 -0.30989632336E+04  0.30989632336E+04  0.00000000000E+00 0.  1.
         23    2    1    2    0    0  0.11905143565E+04 -0.19622290425E+04 -0.20127754861E+04  0.30540435557E+04  0.90827499766E+02 0.  0.
         13    1    3    3    0    0  0.82387117967E+03 -0.13418004721E+04 -0.14351699923E+04  0.21304706368E+04  0.00000000000E+00 0. -1.
        -13    1    3    3    0    0  0.36664317681E+03 -0.62042857042E+03 -0.57760549379E+03  0.92357291892E+03  0.00000000000E+00 0.  1.
         22    1    1    2    0    0 -0.11905143565E+04  0.19622290425E+04  0.17629904778E+04  0.28940979032E+04  0.00000000000E+00 0. -1.
<mgrwt>
<rscale>  0 0.59428944E+04</rscale>
<asrwt>0</asrwt>
<pdfrwt beam="1">  1        2 0.43833512E+00 0.59428944E+04</pdfrwt>
<pdfrwt beam="2">  1       -2 0.47676357E+00 0.59428944E+04</pdfrwt>
<totfact> 0.34075047E-03</totfact>
</mgrwt>
</event>
<event>
 6    1  0.1014650E-006  0.1773682E+04  0.7818608E-02  0.8720422E-01
          2   -1    0    0  501    0  0.00000000000E+00  0.00000000000E+00  0.10319162437E+04  0.10319162437E+04  0.00000000000E+00 0. -1.
         -2   -1    0    0    0  501 -0.00000000000E+00 -0.00000000000E+00 -0.76216142841E+03  0.76216142841E+03  0.00000000000E+00 0.  1.
         23    2    1    2    0    0  0.26486212112E+03 -0.26946488837E+03  0.94416785703E+03  0.10210341932E+04  0.91074761477E+02 0.  0.
         13    1    3    3    0    0  0.35838792564E+02 -0.51694692579E+02  0.25845170866E+03  0.26599632705E+03  0.00000000000E+00 0. -1.
        -13    1    3    3    0    0  0.22902332856E+03 -0.21777019579E+03  0.68571614837E+03  0.75503786616E+03  0.00000000000E+00 0.  1.
         22    1    1    2    0    0 -0.26486212112E+03  0.26946488837E+03 -0.67441304179E+03  0.77304347886E+03  0.00000000000E+00 0.  1.
<mgrwt>
<rscale>  0 0.17736818E+04</rscale>
<asrwt>0</asrwt>
<pdfrwt beam="1">  1        2 0.15875634E+00 0.17736818E+04</pdfrwt>
<pdfrwt beam="2">  1       -2 0.11725560E+00 0.17736818E+04</pdfrwt>
<totfact> 0.12784905E+01</totfact>
</mgrwt>
</event>
<event>
 6    1  0.1014650E-006  0.2244602E+04  0.7818608E-02  0.8500090E-01
         -2   -1    0    0    0  501 -0.00000000000E+00  0.00000000000E+00  0.69333479039E+03  0.69333479039E+03  0.00000000000E+00 0.  1.
          2   -1    0    0  501    0  0.00000000000E+00 -0.00000000000E+00 -0.18166689085E+04  0.18166689085E+04  0.00000000000E+00 0. -1.
         23    2    1    2    0    0  0.83204992036E+03  0.71185024531E+03 -0.29639594540E+03  0.11378285704E+04  0.88121833317E+02 0.  0.
         13    1    3    3    0    0  0.60003710946E+03  0.51251940078E+03 -0.17220117949E+03  0.80769667272E+03  0.00000000000E+00 0.  1.
        -13    1    3    3    0    0  0.23201281090E+03  0.19933084454E+03 -0.12419476591E+03  0.33013189771E+03  0.00000000000E+00 0. -1.
         22    1    1    2    0    0 -0.83204992036E+03 -0.71185024531E+03 -0.82693817275E+03  0.13721751285E+04  0.00000000000E+00 0. -1.
<mgrwt>
<rscale>  0 0.22446022E+04</rscale>
<asrwt>0</asrwt>
<pdfrwt beam="1">  1        2 0.27948753E+00 0.22446022E+04</pdfrwt>
<pdfrwt beam="2">  1       -2 0.10666689E+00 0.22446022E+04</pdfrwt>
<totfact> 0.54445783E+00</totfact>
</mgrwt>
</event>
<event>
 6    1  0.1014650E-006  0.3666274E+04  0.7818608E-02  0.8075477E-01
         -1   -1    0    0    0  501 -0.00000000000E+00  0.00000000000E+00  0.22182712868E+04  0.22182712868E+04  0.00000000000E+00 0.  1.
          1   -1    0    0  501    0  0.00000000000E+00 -0.00000000000E+00 -0.15148694612E+04  0.15148694612E+04  0.00000000000E+00 0. -1.
         23    2    1    2    0    0  0.46612264526E+03 -0.13729877440E+04  0.14920542352E+04  0.20825837848E+04  0.92540337658E+02 0.  0.
         11    1    3    3    0    0  0.25668769353E+02 -0.78436431864E+02  0.11853438126E+03  0.14443531114E+03  0.00000000000E+00 0. -1.
        -11    1    3    3    0    0  0.44045387591E+03 -0.12945513122E+04  0.13735198539E+04  0.19381484736E+04  0.00000000000E+00 0.  1.
         22    1    1    2    0    0 -0.46612264526E+03  0.13729877440E+04 -0.78865240958E+03  0.16505569632E+04  0.00000000000E+00 0. -1.
<mgrwt>
<rscale>  0 0.36662741E+04</rscale>
<asrwt>0</asrwt>
<pdfrwt beam="1">  1        1 0.23305684E+00 0.36662741E+04</pdfrwt>
<pdfrwt beam="2">  1       -1 0.34127251E+00 0.36662741E+04</pdfrwt>
<totfact> 0.91184760E-02</totfact>
</mgrwt>
</event>
<event>
 6    1  0.1014650E-006  0.5915386E+03  0.7818608E-02  0.9923118E-01
          2   -1    0    0  501    0  0.00000000000E+00  0.00000000000E+00  0.39951872860E+03  0.39951872860E+03  0.00000000000E+00 0. -1.
         -2   -1    0    0    0  501 -0.00000000000E+00 -0.00000000000E+00 -0.21896212230E+03  0.21896212230E+03  0.00000000000E+00 0.  1.
         23    2    1    2    0    0 -0.17722518521E+03 -0.22757429149E+03  0.78854807411E+02  0.31263435294E+03  0.91232305481E+02 0.  0.
         11    1    3    3    0    0 -0.14871951316E+03 -0.14110164039E+03  0.24171570726E+02  0.20642536508E+03  0.00000000000E+00 0.  1.
        -11    1    3    3    0    0 -0.28505672045E+02 -0.86472651103E+02  0.54683236685E+02  0.10620898786E+03  0.00000000000E+00 0. -1.
         22    1    1    2    0    0  0.17722518521E+03  0.22757429149E+03  0.10170179889E+03  0.30584649797E+03  0.00000000000E+00 0. -1.
<mgrwt>
<rscale>  0 0.59153857E+03</rscale>
<asrwt>0</asrwt>
<pdfrwt beam="1">  1        2 0.61464420E-01 0.59153857E+03</pdfrwt>
<pdfrwt beam="2">  1       -2 0.33686480E-01 0.59153857E+03</pdfrwt>
<totfact> 0.66020835E+02</totfact>
</mgrwt>
</event>
<event>
 6    1  0.1014650E-006  0.3423062E+04  0.7818608E-02  0.8132269E-01
          1   -1    0    0  501    0  0.00000000000E+00  0.00000000000E+00  0.15363429241E+04  0.15363429241E+04  0.00000000000E+00 0. -1.
         -1   -1    0    0    0  501 -0.00000000000E+00 -0.00000000000E+00 -0.19066955658E+04  0.19066955658E+04  0.00000000000E+00 0.  1.
         23    2    1    2    0    0 -0.68512392597E+03  0.15668339085E+04 -0.15671759414E+03  0.17196687604E+04  0.91306903704E+02 0.  0.
         13    1    3    3    0    0 -0.48461976286E+03  0.11688013777E+04 -0.83777388425E+02  0.12680582107E+04  0.00000000000E+00 0.  1.
        -13    1    3    3    0    0 -0.20050416311E+03  0.39803253080E+03 -0.72940205714E+02  0.45161054971E+03  0.00000000000E+00 0. -1.
         22    1    1    2    0    0  0.68512392597E+03 -0.15668339085E+04 -0.21363504760E+03  0.17233697294E+04  0.00000000000E+00 0.  1.
<mgrwt>
<rscale>  0 0.34230619E+04</rscale>
<asrwt>0</asrwt>
<pdfrwt beam="1">  1        1 0.23636045E+00 0.34230619E+04</pdfrwt>
<pdfrwt beam="2">  1       -1 0.29333778E+00 0.34230619E+04</pdfrwt>
<totfact> 0.18488449E-01</totfact>
</mgrwt>
</event>
<event>
 6    1  0.1014650E-006  0.3412366E+04  0.7818608E-02  0.8134878E-01
         -1   -1    0    0    0  501 -0.00000000000E+00  0.00000000000E+00  0.18698011859E+04  0.18698011859E+04  0.00000000000E+00 0.  1.
          1   -1    0    0  501    0  0.00000000000E+00 -0.00000000000E+00 -0.15568823877E+04  0.15568823877E+04  0.00000000000E+00 0. -1.
         23    2    1    2    0    0 -0.11964959504E+04  0.11439901530E+04 -0.25317311983E+03  0.16771761889E+04  0.92235083497E+02 0.  0.
         13    1    3    3    0    0 -0.92927968724E+03  0.89136004380E+03 -0.23547141423E+03  0.13090188126E+04  0.00000000000E+00 0.  1.
        -13    1    3    3    0    0 -0.26721626314E+03  0.25263010918E+03 -0.17701705596E+02  0.36815737631E+03  0.00000000000E+00 0. -1.
         22    1    1    2    0    0  0.11964959504E+04 -0.11439901530E+04  0.56609191805E+03  0.17495073847E+04  0.00000000000E+00 0.  1.
<mgrwt>
<rscale>  0 0.34123661E+04</rscale>
<asrwt>0</asrwt>
<pdfrwt beam="1">  1        1 0.23952037E+00 0.34123661E+04</pdfrwt>
<pdfrwt beam="2">  1       -1 0.28766172E+00 0.34123661E+04</pdfrwt>
<totfact> 0.19493700E-01</totfact>
</mgrwt>
</event>
<event>
 6    1  0.1014650E-006  0.2804105E+04  0.7818608E-02  0.8301995E-01
          1   -1    0    0  501    0  0.00000000000E+00  0.00000000000E+00  0.92529976803E+03  0.92529976803E+03  0.00000000000E+00 0. -1.
         -1   -1    0    0    0  501 -0.00000000000E+00 -0.00000000000E+00 -0.21244474147E+04  0.21244474147E+04  0.00000000000E+00 0.  1.
         23    2    1    2    0    0 -0.36620473704E+03 -0.59731509388E+03 -0.19192035117E+04  0.20450722704E+04  0.89929090869E+02 0.  0.
         11    1    3    3    0    0 -0.22103898993E+03 -0.36837318093E+03 -0.10469011902E+04  0.11316179291E+04  0.00000000000E+00 0.  1.
        -11    1    3    3    0    0 -0.14516574710E+03 -0.22894191296E+03 -0.87230232150E+03  0.91345434135E+03  0.00000000000E+00 0. -1.
         22    1    1    2    0    0  0.36620473704E+03  0.59731509388E+03  0.72005586494E+03  0.10046749123E+04  0.00000000000E+00 0. -1.
<mgrwt>
<rscale>  0 0.28041046E+04</rscale>
<asrwt>0</asrwt>
<pdfrwt beam="1">  1        1 0.14235381E+00 0.28041046E+04</pdfrwt>
<pdfrwt beam="2">  1       -1 0.32683807E+00 0.28041046E+04</pdfrwt>
<totfact> 0.33154652E-01</totfact>
</mgrwt>
</event>
<event>
 6    1  0.1014650E-006  0.1216881E+04  0.7818608E-02  0.9098207E-01
         -2   -1    0    0    0  501 -0.00000000000E+00  0.00000000000E+00  0.11430137717E+03  0.11430137717E+03  0.00000000000E+00 0.  1.
          2   -1    0    0  501    0  0.00000000000E+00 -0.00000000000E+00 -0.32388055802E+04  0.32388055802E+04  0.00000000000E+00 0. -1.
         23    2    1    2    0    0 -0.52533641276E+03  0.29246940606E+03 -0.13727959908E+04  0.15010814822E+04  0.84617277793E+02 0.  0.
         13    1    3    3    0    0 -0.31130885521E+03  0.13286563973E+03 -0.71083537623E+03  0.78730769947E+03  0.00000000000E+00 0.  1.
        -13    1    3    3    0    0 -0.21402755754E+03  0.15960376633E+03 -0.66196061458E+03  0.71377378270E+03  0.00000000000E+00 0. -1.
         22    1    1    2    0    0  0.52533641276E+03 -0.29246940606E+03 -0.17517082123E+04  0.18520254752E+04  0.00000000000E+00 0.  1.
<mgrwt>
<rscale>  0 0.12168812E+04</rscale>
<asrwt>0</asrwt>
<pdfrwt beam="1">  1        2 0.49827779E+00 0.12168812E+04</pdfrwt>
<pdfrwt beam="2">  1       -2 0.17584827E-01 0.12168812E+04</pdfrwt>
<totfact> 0.32857465E+01</totfact>
</mgrwt>
</event>
<event>
 6    1  0.1014650E-006  0.1332051E+04  0.7818608E-02  0.9004528E-01
          1   -1    0    0  501    0  0.00000000000E+00  0.00000000000E+00  0.60338262963E+03  0.60338262963E+03  0.00000000000E+00 0. -1.
         -1   -1    0    0    0  501 -0.00000000000E+00 -0.00000000000E+00 -0.73517143479E+03  0.73517143479E+03  0.00000000000E+00 0.  1.
         23    2    1    2    0    0 -0.66126894776E+03  0.41622798517E+02 -0.44493123475E+02  0.67025052959E+03  0.90813301658E+02 0.  0.
         11    1    3    3    0    0 -0.46275418728E+03 -0.84038127603E+01 -0.12148096005E+02  0.46298988990E+03  0.00000000000E+00 0.  1.
        -11    1    3    3    0    0 -0.19851476048E+03  0.50026611278E+02 -0.32345027469E+02  0.20726063969E+03  0.00000000000E+00 0. -1.
         22    1    1    2    0    0  0.66126894776E+03 -0.41622798517E+02 -0.87295681688E+02  0.66830353483E+03  0.00000000000E+00 0.  1.
<mgrwt>
<rscale>  0 0.13320506E+04</rscale>
<asrwt>0</asrwt>
<pdfrwt beam="1">  1        1 0.92828097E-01 0.13320506E+04</pdfrwt>
<pdfrwt beam="2">  1       -1 0.11310330E+00 0.13320506E+04</pdfrwt>
<totfact> 0.23794537E+01</totfact>
</mgrwt>
</event>
<event>
 6    1  0.1014650E-006  0.1465980E+04  0.7818608E-02  0.8907396E-01
         -3   -1    0    0    0  501 -0.00000000000E+00  0.00000000000E+00  0.87364958456E+03  0.87364958456E+03  0.00000000000E+00 0.  1.
          3   -1    0    0  501    0  0.00000000000E+00 -0.00000000000E+00 -0.61497717922E+03  0.61497717922E+03  0.00000000000E+00 0. -1.
         23    2    1    2    0    0 -0.54166868620E+03 -0.39807573602E+03  0.41913721008E+03  0.79752748670E+03  0.92221656643E+02 0.  0.
         11    1    3    3    0    0 -0.39506345861E+03 -0.23919310232E+03  0.27125878597E+03  0.53560228294E+03  0.00000000000E+00 0. -1.
        -11    1    3    3    0    0 -0.14660522759E+03 -0.15888263369E+03  0.14787842411E+03  0.26192520376E+03  0.00000000000E+00 0.  1.
         22    1    1    2    0    0  0.54166868620E+03  0.39807573602E+03 -0.16046480474E+03  0.69109927708E+03  0.00000000000E+00 0. -1.
<mgrwt>
<rscale>  0 0.14659803E+04</rscale>
<asrwt>0</asrwt>
<pdfrwt beam="1">  1        3 0.94611874E-01 0.14659803E+04</pdfrwt>
<pdfrwt beam="2">  1       -3 0.13440763E+00 0.14659803E+04</pdfrwt>
<totfact> 0.10778445E+00</totfact>
</mgrwt>
</event>
<event>
 6    1  0.1014650E-006  0.3185043E+04  0.7818608E-02  0.8192778E-01
          2   -1    0    0  501    0  0.00000000000E+00  0.00000000000E+00  0.25045573876E+04  0.25045573876E+04  0.00000000000E+00 0. -1.
         -2   -1    0    0    0  501 -0.00000000000E+00 -0.00000000000E+00 -0.10126039373E+04  0.10126039373E+04  0.00000000000E+00 0.  1.
         23    2    1    2    0    0  0.13646924288E+04 -0.70244891851E+03  0.12099976917E+04  0.19566104740E+04  0.91707276789E+02 0.  0.
         11    1    3    3    0    0  0.10163745012E+04 -0.51021178093E+03  0.84643997375E+03  0.14176719709E+04  0.00000000000E+00 0.  1.
        -11    1    3    3    0    0  0.34831792761E+03 -0.19223713758E+03  0.36355771793E+03  0.53893850301E+03  0.00000000000E+00 0. -1.
         22    1    1    2    0    0 -0.13646924288E+04  0.70244891851E+03  0.28195575861E+03  0.15605508509E+04  0.00000000000E+00 0.  1.
<mgrwt>
<rscale>  0 0.31850430E+04</rscale>
<asrwt>0</asrwt>
<pdfrwt beam="1">  1        2 0.38531652E+00 0.31850430E+04</pdfrwt>
<pdfrwt beam="2">  1       -2 0.15578522E+00 0.31850430E+04</pdfrwt>
<totfact> 0.78982873E-01</totfact>
</mgrwt>
</event>
<event>
 6    1  0.1785993E-006  0.3285580E+04  0.7818608E-02  0.8166574E-01
         -2   -1    0    0    0  501 -0.00000000000E+00  0.00000000000E+00  0.13619071723E+04  0.13619071723E+04  0.00000000000E+00 0.  1.
          2   -1    0    0  501    0  0.00000000000E+00 -0.00000000000E+00 -0.19816029908E+04  0.19816029908E+04  0.00000000000E+00 0. -1.
         23    2    1    2    0    0 -0.82841153845E+03  0.10189515820E+04 -0.13131775289E+04  0.18584361293E+04  0.69437891003E+02 0.  0.
         11    1    3    3    0    0 -0.42371144332E+03  0.47682401247E+03 -0.66633045334E+03  0.92243633879E+03  0.00000000000E+00 0. -1.
        -11    1    3    3    0    0 -0.40470009513E+03  0.54212756950E+03 -0.64684707559E+03  0.93599979050E+03  0.00000000000E+00 0.  1.
         22    1    1    2    0    0  0.82841153845E+03 -0.10189515820E+04  0.69348171041E+03  0.14850740339E+04  0.00000000000E+00 0.  1.
<mgrwt>
<rscale>  0 0.32855802E+04</rscale>
<asrwt>0</asrwt>
<pdfrwt beam="1">  1        2 0.30486200E+00 0.32855802E+04</pdfrwt>
<pdfrwt beam="2">  1       -2 0.20952418E+00 0.32855802E+04</pdfrwt>
<totfact> 0.65968202E-01</totfact>
</mgrwt>
</event>
<event>
 6    1  0.1093352E-006  0.2050530E+04  0.7818608E-02  0.8583354E-01
          3   -1    0    0  501    0  0.00000000000E+00  0.00000000000E+00  0.19882403120E+04  0.19882403120E+04  0.00000000000E+00 0. -1.
         -3   -1    0    0    0  501 -0.00000000000E+00 -0.00000000000E+00 -0.52869300463E+03  0.52869300463E+03  0.00000000000E+00 0.  1.
         23    2    1    2    0    0 -0.81929054343E+03  0.58587779350E+03  0.50988302387E+03  0.11326096425E+04  0.91291405672E+02 0.  0.
         11    1    3    3    0    0 -0.27227021422E+03  0.14811704621E+03  0.17702635786E+03  0.35694265689E+03  0.00000000000E+00 0.  1.
        -11    1    3    3    0    0 -0.54702032921E+03  0.43776074729E+03  0.33285666601E+03  0.77566698560E+03  0.00000000000E+00 0. -1.
         22    1    1    2    0    0  0.81929054343E+03 -0.58587779350E+03  0.94966428350E+03  0.13843236742E+04  0.00000000000E+00 0. -1.
<mgrwt>
<rscale>  0 0.20505304E+04</rscale>
<asrwt>0</asrwt>
<pdfrwt beam="1">  1        3 0.30588312E+00 0.20505304E+04</pdfrwt>
<pdfrwt beam="2">  1       -3 0.81337386E-01 0.20505304E+04</pdfrwt>
<totfact> 0.12173625E-01</totfact>
</mgrwt>
</event>
<event>
 6    1  0.1014650E-006  0.1135979E+04  0.7818608E-02  0.9170817E-01
         -1   -1    0    0    0  501 -0.00000000000E+00  0.00000000000E+00  0.56402857152E+03  0.56402857152E+03  0.00000000000E+00 0.  1.
          1   -1    0    0  501    0  0.00000000000E+00 -0.00000000000E+00 -0.57197830244E+03  0.57197830244E+03  0.00000000000E+00 0. -1.
         23    2    1    2    0    0  0.33945231944E+03 -0.29059877774E+03 -0.34631471117E+03  0.57550139972E+03  0.10766826417E+03 0.  0.
         13    1    3    3    0    0  0.51642068295E+02 -0.10120646019E+03 -0.66473043726E+02  0.13163706296E+03  0.00000000000E+00 0. -1.
        -13    1    3    3    0    0  0.28781025115E+03 -0.18939231755E+03 -0.27984166744E+03  0.44386433676E+03  0.00000000000E+00 0.  1.
         22    1    1    2    0    0 -0.33945231944E+03  0.29059877774E+03  0.33836498025E+03  0.56050547425E+03  0.00000000000E+00 0. -1.
<mgrwt>
<rscale>  0 0.11359791E+04</rscale>
<asrwt>0</asrwt>
<pdfrwt beam="1">  1        1 0.87996663E-01 0.11359791E+04</pdfrwt>
<pdfrwt beam="2">  1       -1 0.86773625E-01 0.11359791E+04</pdfrwt>
<totfact> 0.47764787E+01</totfact>
</mgrwt>
</event>
<event>
 6    1  0.1014650E-006  0.8579755E+03  0.7818608E-02  0.9479695E-01
         -1   -1    0    0    0  501 -0.00000000000E+00  0.00000000000E+00  0.45708380448E+03  0.45708380448E+03  0.00000000000E+00 0.  1.
          1   -1    0    0  501    0  0.00000000000E+00 -0.00000000000E+00 -0.40261874874E+03  0.40261874874E+03  0.00000000000E+00 0. -1.
         23    2    1    2    0    0 -0.39375426778E+02  0.41206679071E+03  0.11933152989E+03  0.44070717888E+03  0.92915764256E+02 0.  0.
         13    1    3    3    0    0 -0.10806465168E+02  0.25053582650E+03  0.11683487775E+03  0.27665026425E+03  0.00000000000E+00 0.  1.
        -13    1    3    3    0    0 -0.28568961609E+02  0.16153096421E+03  0.24966521434E+01  0.16405691463E+03  0.00000000000E+00 0. -1.
         22    1    1    2    0    0  0.39375426778E+02 -0.41206679071E+03 -0.64866474149E+02  0.41899537433E+03  0.00000000000E+00 0. -1.
<mgrwt>
<rscale>  0 0.85797555E+03</rscale>
<asrwt>0</asrwt>
<pdfrwt beam="1">  1        1 0.61941346E-01 0.85797555E+03</pdfrwt>
<pdfrwt beam="2">  1       -1 0.70320585E-01 0.85797555E+03</pdfrwt>
<totfact> 0.12281170E+02</totfact>
</mgrwt>
</event>
<event>
 6    1  0.1014650E-006  0.1139151E+04  0.7818608E-02  0.9167851E-01
          1   -1    0    0  501    0  0.00000000000E+00  0.00000000000E+00  0.35569275402E+04  0.35569275402E+04  0.00000000000E+00 0. -1.
         -1   -1    0    0    0  501 -0.00000000000E+00 -0.00000000000E+00 -0.91206817419E+02  0.91206817419E+02  0.00000000000E+00 0.  1.
         23    2    1    2    0    0  0.35407533918E+03  0.84713351180E+02  0.31316962960E+04  0.31540513531E+04  0.89289136965E+02 0.  0.
         11    1    3    3    0    0  0.57708901496E+02  0.49853218019E+02  0.59817820579E+03  0.60301975635E+03  0.00000000000E+00 0.  1.
        -11    1    3    3    0    0  0.29636643768E+03  0.34860133161E+02  0.25335180902E+04  0.25510315967E+04  0.00000000000E+00 0. -1.
         22    1    1    2    0    0 -0.35407533918E+03 -0.84713351180E+02  0.33402442685E+03  0.49408300458E+03  0.00000000000E+00 0.  1.
<mgrwt>
<rscale>  0 0.11391506E+04</rscale>
<asrwt>0</asrwt>
<pdfrwt beam="1">  1        1 0.54721952E+00 0.11391506E+04</pdfrwt>
<pdfrwt beam="2">  1       -1 0.14031821E-01 0.11391506E+04</pdfrwt>
<totfact> 0.84356741E+00</totfact>
</mgrwt>
</event>
<event>
 6    1  0.1014650E-006  0.2556074E+04  0.7818608E-02  0.8383277E-01
         -2   -1    0    0    0  501 -0.00000000000E+00  0.00000000000E+00  0.13570649098E+04  0.13570649098E+04  0.00000000000E+00 0.  1.
          2   -1    0    0  501    0  0.00000000000E+00 -0.00000000000E+00 -0.12036110622E+04  0.12036110622E+04  0.00000000000E+00 0. -1.
         23    2    1    2    0    0 -0.15793159849E+03 -0.12454342480E+04 -0.15479161640E+03  0.12679795181E+04  0.88106515022E+02 0.  0.
         13    1    3    3    0    0 -0.12479633924E+03 -0.69152544834E+03 -0.11029641571E+03  0.71129942451E+03  0.00000000000E+00 0.  1.
        -13    1    3    3    0    0 -0.33135259253E+02 -0.55390879963E+03 -0.44495200695E+02  0.55668009359E+03  0.00000000000E+00 0. -1.
         22    1    1    2    0    0  0.15793159849E+03  0.12454342480E+04  0.30824546399E+03  0.12926964539E+04  0.00000000000E+00 0. -1.
<mgrwt>
<rscale>  0 0.25560738E+04</rscale>
<asrwt>0</asrwt>
<pdfrwt beam="1">  1        2 0.18517093E+00 0.25560738E+04</pdfrwt>
<pdfrwt beam="2">  1       -2 0.20877922E+00 0.25560738E+04</pdfrwt>
<totfact> 0.19508899E+00</totfact>
</mgrwt>
</event>
<event>
 6    1  0.2416236E-006  0.3323476E+04  0.7818608E-02  0.8156947E-01
          2   -1    0    0  501    0  0.00000000000E+00  0.00000000000E+00  0.21099557765E+04  0.21099557765E+04  0.00000000000E+00 0. -1.
         -2   -1    0    0    0  501 -0.00000000000E+00 -0.00000000000E+00 -0.13087354824E+04  0.13087354824E+04  0.00000000000E+00 0.  1.
         23    2    1    2    0    0  0.43794574973E+03  0.67783640059E+02  0.20470299690E+04  0.20964080640E+04  0.90575799728E+02 0.  0.
         13    1    3    3    0    0  0.18817666979E+03  0.45253400534E+02  0.10909357941E+04  0.11079707741E+04  0.00000000000E+00 0.  1.
        -13    1    3    3    0    0  0.24976907994E+03  0.22530239525E+02  0.95609417483E+03  0.98843728993E+03  0.00000000000E+00 0. -1.
         22    1    1    2    0    0 -0.43794574973E+03 -0.67783640059E+02 -0.12458096749E+04  0.13222831949E+04  0.00000000000E+00 0.  1.
<mgrwt>
<rscale>  0 0.33234765E+04</rscale>
<asrwt>0</asrwt>
<pdfrwt beam="1">  1        2 0.32460858E+00 0.33234765E+04</pdfrwt>
<pdfrwt beam="2">  1       -2 0.20134392E+00 0.33234765E+04</pdfrwt>
<totfact> 0.63026108E-01</totfact>
</mgrwt>
</event>
<event>
 6    1  0.1014650E-006  0.2800650E+04  0.7818608E-02  0.8303067E-01
         -2   -1    0    0    0  501 -0.00000000000E+00  0.00000000000E+00  0.65213542143E+03  0.65213542143E+03  0.00000000000E+00 0.  1.
          2   -1    0    0  501    0  0.00000000000E+00 -0.00000000000E+00 -0.30069055233E+04  0.30069055233E+04  0.00000000000E+00 0. -1.
         23    2    1    2    0    0  0.49252905863E+03 -0.13083363723E+04 -0.12430352965E+04  0.18729045518E+04  0.91136024073E+02 0.  0.
         13    1    3    3    0    0  0.27092765736E+03 -0.81626492578E+03 -0.72548880080E+03  0.11251774192E+04  0.00000000000E+00 0. -1.
        -13    1    3    3    0    0  0.22160140127E+03 -0.49207144657E+03 -0.51754649572E+03  0.74772713259E+03  0.00000000000E+00 0.  1.
         22    1    1    2    0    0 -0.49252905863E+03  0.13083363723E+04 -0.11117348054E+04  0.17861363930E+04  0.00000000000E+00 0.  1.
<mgrwt>
<rscale>  0 0.28006496E+04</rscale>
<asrwt>0</asrwt>
<pdfrwt beam="1">  1        2 0.46260084E+00 0.28006496E+04</pdfrwt>
<pdfrwt beam="2">  1       -2 0.10032853E+00 0.28006496E+04</pdfrwt>
<totfact> 0.12288512E+00</totfact>
</mgrwt>
</event>
<event>
 6    1  0.1014650E-006  0.1260792E+04  0.7818608E-02  0.9061249E-01
         -1   -1    0    0    0  501 -0.00000000000E+00  0.00000000000E+00  0.34757213807E+03  0.34757213807E+03  0.00000000000E+00 0.  1.
          1   -1    0    0  501    0  0.00000000000E+00 -0.00000000000E+00 -0.11433570210E+04  0.11433570210E+04  0.00000000000E+00 0. -1.
         23    2    1    2    0    0 -0.17358478769E+03 -0.31476180743E+02 -0.11115110553E+04  0.11292588059E+04  0.92984924380E+02 0.  0.
         11    1    3    3    0    0 -0.43701305910E+02  0.21307842021E+02 -0.15273989513E+03  0.16029130929E+03  0.00000000000E+00 0. -1.
        -11    1    3    3    0    0 -0.12988348178E+03 -0.52784022765E+02 -0.95877116016E+03  0.96896749660E+03  0.00000000000E+00 0.  1.
         22    1    1    2    0    0  0.17358478769E+03  0.31476180743E+02  0.31572617235E+03  0.36167035319E+03  0.00000000000E+00 0.  1.
<mgrwt>
<rscale>  0 0.12607919E+04</rscale>
<asrwt>0</asrwt>
<pdfrwt beam="1">  1        1 0.17590108E+00 0.12607919E+04</pdfrwt>
<pdfrwt beam="2">  1       -1 0.53472637E-01 0.12607919E+04</pdfrwt>
<totfact> 0.40899627E+01</totfact>
</mgrwt>
</event>
<event>
 6    1  0.1014650E-006  0.3622720E+04  0.7818608E-02  0.8085307E-01
         -1   -1    0    0    0  501 -0.00000000000E+00  0.00000000000E+00  0.10561830374E+04  0.10561830374E+04  0.00000000000E+00 0.  1.
          1   -1    0    0  501    0  0.00000000000E+00 -0.00000000000E+00 -0.31064926278E+04  0.31064926278E+04  0.00000000000E+00 0. -1.
         23    2    1    2    0    0 -0.15395930440E+04 -0.93391639750E+03 -0.12387517243E+04  0.21875369995E+04  0.90915956893E+02 0.  0.
         11    1    3    3    0    0 -0.11776665040E+04 -0.68498503208E+03 -0.97250817088E+03  0.16738802321E+04  0.00000000000E+00 0. -1.
        -11    1    3    3    0    0 -0.36192653996E+03 -0.24893136542E+03 -0.26624355346E+03  0.51365676748E+03  0.00000000000E+00 0.  1.
         22    1    1    2    0    0  0.15395930440E+04  0.93391639750E+03 -0.81155786607E+03  0.19751386657E+04  0.00000000000E+00 0.  1.
<mgrwt>
<rscale>  0 0.36227199E+04</rscale>
<asrwt>0</asrwt>
<pdfrwt beam="1">  1        1 0.47792194E+00 0.36227199E+04</pdfrwt>
<pdfrwt beam="2">  1       -1 0.16248970E+00 0.36227199E+04</pdfrwt>
<totfact> 0.11269282E-01</totfact>
</mgrwt>
</event>
<event>
 6    1  0.1014650E-006  0.2257072E+04  0.7818608E-02  0.8495042E-01
          2   -1    0    0  501    0  0.00000000000E+00  0.00000000000E+00  0.15239887161E+04  0.15239887161E+04  0.00000000000E+00 0. -1.
         -2   -1    0    0    0  501 -0.00000000000E+00 -0.00000000000E+00 -0.83569773816E+03  0.83569773816E+03  0.00000000000E+00 0.  1.
         23    2    1    2    0    0 -0.46638306710E+02  0.71535490841E+03 -0.56404501118E+03  0.91668499678E+03  0.90867112011E+02 0.  0.
         11    1    3    3    0    0 -0.35618914933E+02  0.64396204330E+03 -0.46967901828E+03  0.79784346869E+03  0.00000000000E+00 0.  1.
        -11    1    3    3    0    0 -0.11019391776E+02  0.71392865111E+02 -0.94365992901E+02  0.11884152810E+03  0.00000000000E+00 0. -1.
         22    1    1    2    0    0  0.46638306710E+02 -0.71535490841E+03  0.12523359891E+04  0.14430014575E+04  0.00000000000E+00 0. -1.
<mgrwt>
<rscale>  0 0.22570724E+04</rscale>
<asrwt>0</asrwt>
<pdfrwt beam="1">  1        2 0.23445980E+00 0.22570724E+04</pdfrwt>
<pdfrwt beam="2">  1       -2 0.12856888E+00 0.22570724E+04</pdfrwt>
<totfact> 0.50006627E+00</totfact>
</mgrwt>
</event>
<event>
 6    1  0.1014650E-006  0.1258778E+04  0.7818608E-02  0.9062909E-01
          1   -1    0    0  501    0  0.00000000000E+00  0.00000000000E+00  0.98365942042E+03  0.98365942042E+03  0.00000000000E+00 0. -1.
         -1   -1    0    0    0  501 -0.00000000000E+00 -0.00000000000E+00 -0.40271081362E+03  0.40271081362E+03  0.00000000000E+00 0.  1.
         23    2    1    2    0    0  0.14241299836E+03  0.60862018647E+03  0.33312005787E+03  0.71397229893E+03  0.89930402024E+02 0.  0.
         13    1    3    3    0    0  0.72708465887E+02  0.47318746657E+03  0.24122438438E+03  0.53608031408E+03  0.00000000000E+00 0.  1.
        -13    1    3    3    0    0  0.69704532478E+02  0.13543271990E+03  0.91895673486E+02  0.17789198485E+03  0.00000000000E+00 0. -1.
         22    1    1    2    0    0 -0.14241299836E+03 -0.60862018647E+03  0.24782854893E+03  0.67239793511E+03  0.00000000000E+00 0.  1.
<mgrwt>
<rscale>  0 0.12587776E+04</rscale>
<asrwt>0</asrwt>
<pdfrwt beam="1">  1        1 0.15133222E+00 0.12587776E+04</pdfrwt>
<pdfrwt beam="2">  1       -1 0.61955510E-01 0.12587776E+04</pdfrwt>
<totfact> 0.40587563E+01</totfact>
</mgrwt>
</event>
<event>
 6    1  0.1014650E-006  0.3278020E+04  0.7818608E-02  0.8168511E-01
         -1   -1    0    0    0  501 -0.00000000000E+00  0.00000000000E+00  0.17735438001E+04  0.17735438001E+04  0.00000000000E+00 0.  1.
          1   -1    0    0  501    0  0.00000000000E+00 -0.00000000000E+00 -0.15146813574E+04  0.15146813574E+04  0.00000000000E+00 0. -1.
         23    2    1    2    0    0  0.82059940845E+03 -0.13576316415E+04  0.54024565607E+03  0.16771002163E+04  0.65212755943E+02 0.  0.
         11    1    3    3    0    0  0.34325673386E+03 -0.62160196702E+03  0.22402196715E+03  0.74458044059E+03  0.00000000000E+00 0.  1.
        -11    1    3    3    0    0  0.47734267459E+03 -0.73602967450E+03  0.31622368892E+03  0.93251977575E+03  0.00000000000E+00 0. -1.
         22    1    1    2    0    0 -0.82059940845E+03  0.13576316415E+04 -0.28138321343E+03  0.16111249412E+04  0.00000000000E+00 0.  1.
<mgrwt>
<rscale>  0 0.32780200E+04</rscale>
<asrwt>0</asrwt>
<pdfrwt beam="1">  1        1 0.23302790E+00 0.32780200E+04</pdfrwt>
<pdfrwt beam="2">  1       -1 0.27285289E+00 0.32780200E+04</pdfrwt>
<totfact> 0.26296274E-01</totfact>
</mgrwt>
</event>
<event>
 6    1  0.1014650E-006  0.4254702E+04  0.7818608E-02  0.7955048E-01
          2   -1    0    0  501    0  0.00000000000E+00  0.00000000000E+00  0.32660450774E+04  0.32660450774E+04  0.00000000000E+00 0. -1.
         -2   -1    0    0    0  501 -0.00000000000E+00 -0.00000000000E+00 -0.13856581905E+04  0.13856581905E+04  0.00000000000E+00 0.  1.
         23    2    1    2    0    0 -0.64386467095E+03  0.12397037206E+04  0.26933363533E+04  0.30354378614E+04  0.91625699200E+02 0.  0.
         11    1    3    3    0    0 -0.21876884554E+03  0.50013592604E+03  0.11077361516E+04  0.12349393239E+04  0.00000000000E+00 0. -1.
        -11    1    3    3    0    0 -0.42509582540E+03  0.73956779457E+03  0.15856002018E+04  0.18004985374E+04  0.00000000000E+00 0.  1.
         22    1    1    2    0    0  0.64386467095E+03 -0.12397037206E+04 -0.81294946641E+03  0.16162654065E+04  0.00000000000E+00 0.  1.
<mgrwt>
<rscale>  0 0.42547019E+04</rscale>
<asrwt>0</asrwt>
<pdfrwt beam="1">  1        2 0.50246847E+00 0.42547019E+04</pdfrwt>
<pdfrwt beam="2">  1       -2 0.21317818E+00 0.42547019E+04</pdfrwt>
<totfact> 0.98948917E-02</totfact>
</mgrwt>
</event>
<event>
 6    1  0.1014650E-006  0.8846713E+03  0.7818608E-02  0.9444949E-01
         -3   -1    0    0    0  501 -0.00000000000E+00  0.00000000000E+00  0.13824997622E+04  0.13824997622E+04  0.00000000000E+00 0.  1.
          3   -1    0    0  501    0  0.00000000000E+00 -0.00000000000E+00 -0.14152683436E+03  0.14152683436E+03  0.00000000000E+00 0. -1.
         23    2    1    2    0    0  0.17724853273E+03 -0.30719120723E+03  0.10686497603E+04  0.11297186532E+04  0.92024154460E+02 0.  0.
         13    1    3    3    0    0  0.11308238927E+03 -0.15870196645E+03  0.45224672036E+03  0.49244394300E+03  0.00000000000E+00 0. -1.
        -13    1    3    3    0    0  0.64166143458E+02 -0.14848924078E+03  0.61640303993E+03  0.63727471017E+03  0.00000000000E+00 0.  1.
         22    1    1    2    0    0 -0.17724853273E+03  0.30719120723E+03  0.17232316756E+03  0.39430794340E+03  0.00000000000E+00 0. -1.
<mgrwt>
<rscale>  0 0.88467127E+03</rscale>
<asrwt>0</asrwt>
<pdfrwt beam="1">  1        3 0.21773360E-01 0.88467127E+03</pdfrwt>
<pdfrwt beam="2">  1       -3 0.21269226E+00 0.88467127E+03</pdfrwt>
<totfact> 0.63510913E+00</totfact>
</mgrwt>
</event>
<event>
 6    1  0.1014650E-006  0.1672672E+04  0.7818608E-02  0.8777106E-01
          1   -1    0    0  501    0  0.00000000000E+00  0.00000000000E+00  0.88166790820E+03  0.88166790820E+03  0.00000000000E+00 0. -1.
         -1   -1    0    0    0  501 -0.00000000000E+00 -0.00000000000E+00 -0.79333448926E+03  0.79333448926E+03  0.00000000000E+00 0.  1.
         23    2    1    2    0    0 -0.49221000995E+03  0.67245141522E+03  0.16108507746E+02  0.83853480244E+03  0.91758003284E+02 0.  0.
         11    1    3    3    0    0 -0.19774172839E+03  0.30189990271E+03  0.48404050968E+02  0.36412675616E+03  0.00000000000E+00 0. -1.
        -11    1    3    3    0    0 -0.29446828155E+03  0.37055151251E+03 -0.32295543223E+02  0.47440804628E+03  0.00000000000E+00 0.  1.
         22    1    1    2    0    0  0.49221000995E+03 -0.67245141522E+03  0.72224911191E+02  0.83646759502E+03  0.00000000000E+00 0.  1.
<mgrwt>
<rscale>  0 0.16726716E+04</rscale>
<asrwt>0</asrwt>
<pdfrwt beam="1">  1        1 0.13564122E+00 0.16726716E+04</pdfrwt>
<pdfrwt beam="2">  1       -1 0.12205146E+00 0.16726716E+04</pdfrwt>
<totfact> 0.10673151E+01</totfact>
</mgrwt>
</event>
<event>
 6    1  0.1014650E-006  0.1241487E+04  0.7818608E-02  0.9077298E-01
         -1   -1    0    0    0  501 -0.00000000000E+00  0.00000000000E+00  0.48117758513E+03  0.48117758513E+03  0.00000000000E+00 0.  1.
          1   -1    0    0  501    0  0.00000000000E+00 -0.00000000000E+00 -0.80079069126E+03  0.80079069126E+03  0.00000000000E+00 0. -1.
         23    2    1    2    0    0  0.11196784332E+03  0.58721870211E+03 -0.32038541936E+03  0.68416964932E+03  0.89881533504E+02 0.  0.
         13    1    3    3    0    0  0.84323293073E+02  0.49866459033E+03 -0.23341722305E+03  0.55701022560E+03  0.00000000000E+00 0. -1.
        -13    1    3    3    0    0  0.27644550251E+02  0.88554111780E+02 -0.86968196313E+02  0.12715942372E+03  0.00000000000E+00 0.  1.
         22    1    1    2    0    0 -0.11196784332E+03 -0.58721870211E+03  0.77231323398E+00  0.59779862706E+03  0.00000000000E+00 0.  1.
<mgrwt>
<rscale>  0 0.12414871E+04</rscale>
<asrwt>0</asrwt>
<pdfrwt beam="1">  1        1 0.12319857E+00 0.12414871E+04</pdfrwt>
<pdfrwt beam="2">  1       -1 0.74027322E-01 0.12414871E+04</pdfrwt>
<totfact> 0.40036998E+01</totfact>
</mgrwt>
</event>
<event>
 6    1  0.1014650E-006  0.3199610E+04  0.7818608E-02  0.8188920E-01
          2   -1    0    0  501    0  0.00000000000E+00  0.00000000000E+00  0.29798541882E+04  0.29798541882E+04  0.00000000000E+00 0. -1.
         -2   -1    0    0    0  501 -0.00000000000E+00 -0.00000000000E+00 -0.85889325836E+03  0.85889325836E+03  0.00000000000E+00 0.  1.
         23    2    1    2    0    0 -0.10223312851E+04 -0.10139325915E+04  0.22840102436E+03  0.14607223095E+04  0.91225440016E+02 0.  0.
         13    1    3    3    0    0 -0.65809425345E+02 -0.37750821329E+02  0.17309963205E+02  0.77817991502E+02  0.00000000000E+00 0. -1.
        -13    1    3    3    0    0 -0.95652185976E+03 -0.97618177018E+03  0.21109106116E+03  0.13829043180E+04  0.00000000000E+00 0.  1.
         22    1    1    2    0    0  0.10223312851E+04  0.10139325915E+04  0.18925599054E+04  0.23780251370E+04  0.00000000000E+00 0. -1.
<mgrwt>
<rscale>  0 0.31996104E+04</rscale>
<asrwt>0</asrwt>
<pdfrwt beam="1">  1        2 0.45843910E+00 0.31996104E+04</pdfrwt>
<pdfrwt beam="2">  1       -2 0.13213743E+00 0.31996104E+04</pdfrwt>
<totfact> 0.62851393E-01</totfact>
</mgrwt>
</event>
<event>
 6    1  0.1538695E-006  0.2338708E+04  0.7818608E-02  0.8462813E-01
         -2   -1    0    0    0  501 -0.00000000000E+00  0.00000000000E+00  0.12299027636E+04  0.12299027636E+04  0.00000000000E+00 0.  1.
          2   -1    0    0  501    0  0.00000000000E+00 -0.00000000000E+00 -0.11117864717E+04  0.11117864717E+04  0.00000000000E+00 0. -1.
         23    2    1    2    0    0  0.73809977556E+03 -0.30588711154E+03  0.91161265804E+03  0.12156365338E+04  0.91522348460E+02 0.  0.
         11    1    3    3    0    0  0.56014999063E+03 -0.22301275729E+03  0.74313468840E+03  0.95694924997E+03  0.00000000000E+00 0. -1.
        -11    1    3    3    0    0  0.17794978494E+03 -0.82874354250E+02  0.16847796964E+03  0.25868728381E+03  0.00000000000E+00 0.  1.
         22    1    1    2    0    0 -0.73809977556E+03  0.30588711154E+03 -0.79349636605E+03  0.11260527015E+04  0.00000000000E+00 0. -1.
<mgrwt>
<rscale>  0 0.23387084E+04</rscale>
<asrwt>0</asrwt>
<pdfrwt beam="1">  1        2 0.17104407E+00 0.23387084E+04</pdfrwt>
<pdfrwt beam="2">  1       -2 0.18921581E+00 0.23387084E+04</pdfrwt>
<totfact> 0.30375702E+00</totfact>
</mgrwt>
</event>
<event>
 6    1  0.1014650E-006  0.1223966E+04  0.7818608E-02  0.9092134E-01
          2   -1    0    0  501    0  0.00000000000E+00  0.00000000000E+00  0.13781535879E+04  0.13781535879E+04  0.00000000000E+00 0. -1.
         -2   -1    0    0    0  501 -0.00000000000E+00 -0.00000000000E+00 -0.27175725930E+03  0.27175725930E+03  0.00000000000E+00 0.  1.
         23    2    1    2    0    0  0.10386987346E+02 -0.52991398754E+03  0.15405756426E+03  0.56001826268E+03  0.94710071964E+02 0.  0.
         13    1    3    3    0    0  0.50959569335E+02 -0.29874990164E+03  0.10042799180E+03  0.31927129995E+03  0.00000000000E+00 0. -1.
        -13    1    3    3    0    0 -0.40572581989E+02 -0.23116408590E+03  0.53629572456E+02  0.24074696273E+03  0.00000000000E+00 0.  1.
         22    1    1    2    0    0 -0.10386987346E+02  0.52991398754E+03  0.95233876433E+03  0.10898925845E+04  0.00000000000E+00 0. -1.
<mgrwt>
<rscale>  0 0.12239661E+04</rscale>
<asrwt>0</asrwt>
<pdfrwt beam="1">  1        2 0.21202363E+00 0.12239661E+04</pdfrwt>
<pdfrwt beam="2">  1       -2 0.41808810E-01 0.12239661E+04</pdfrwt>
<totfact> 0.79508746E+01</totfact>
</mgrwt>
</event>
<event>
 6    1  0.1014650E-006  0.1308671E+04  0.7818608E-02  0.9022717E-01
          1   -1    0    0  501    0  0.00000000000E+00  0.00000000000E+00  0.30837795131E+03  0.30837795131E+03  0.00000000000E+00 0. -1.
         -1   -1    0    0    0  501 -0.00000000000E+00 -0.00000000000E+00 -0.13884090482E+04  0.13884090482E+04  0.00000000000E+00 0.  1.
         23    2    1    2    0    0 -0.24021336964E+03 -0.55444883756E+02 -0.13245169782E+04  0.13495839693E+04  0.79088978597E+02 0.  0.
         13    1    3    3    0    0 -0.18203294458E+03 -0.73470598828E+02 -0.10720258318E+04  0.10898501300E+04  0.00000000000E+00 0. -1.
        -13    1    3    3    0    0 -0.58180425059E+02  0.18025715072E+02 -0.25249114636E+03  0.25973383926E+03  0.00000000000E+00 0.  1.
         22    1    1    2    0    0  0.24021336964E+03  0.55444883756E+02  0.24448588126E+03  0.34720303026E+03  0.00000000000E+00 0. -1.
<mgrwt>
<rscale>  0 0.13086707E+04</rscale>
<asrwt>0</asrwt>
<pdfrwt beam="1">  1        1 0.47442761E-01 0.13086707E+04</pdfrwt>
<pdfrwt beam="2">  1       -1 0.21360139E+00 0.13086707E+04</pdfrwt>
<totfact> 0.10094696E+01</totfact>
</mgrwt>
</event>
<event>
 6    1  0.1014650E-006  0.2571067E+04  0.7818608E-02  0.8378096E-01
         -2   -1    0    0    0  501 -0.00000000000E+00  0.00000000000E+00  0.60722687332E+03  0.60722687332E+03  0.00000000000E+00 0.  1.
          2   -1    0    0  501    0  0.00000000000E+00 -0.00000000000E+00 -0.27215468747E+04  0.27215468747E+04  0.00000000000E+00 0. -1.
         23    2    1    2    0    0  0.34734322747E+03  0.87812659526E+03 -0.21847636482E+04  0.23818228822E+04  0.90190956280E+02 0.  0.
         11    1    3    3    0    0  0.20802061363E+03  0.59009656019E+03 -0.13540651129E+04  0.14916363015E+04  0.00000000000E+00 0.  1.
        -11    1    3    3    0    0  0.13932261384E+03  0.28803003506E+03 -0.83069853531E+03  0.89018658066E+03  0.00000000000E+00 0. -1.
         22    1    1    2    0    0 -0.34734322747E+03 -0.87812659526E+03  0.70443646805E+02  0.94695086585E+03  0.00000000000E+00 0.  1.
<mgrwt>
<rscale>  0 0.25710670E+04</rscale>
<asrwt>0</asrwt>
<pdfrwt beam="1">  1        2 0.41869952E+00 0.25710670E+04</pdfrwt>
<pdfrwt beam="2">  1       -2 0.93419518E-01 0.25710670E+04</pdfrwt>
<totfact> 0.22150946E+00</totfact>
</mgrwt>
</event>
<event>
 6    1  0.1014650E-006  0.2120995E+04  0.7818608E-02  0.8552051E-01
         -1   -1    0    0    0  501 -0.00000000000E+00  0.00000000000E+00  0.24915180588E+04  0.24915180588E+04  0.00000000000E+00 0.  1.
          1   -1    0    0  501    0  0.00000000000E+00 -0.00000000000E+00 -0.45139352719E+03  0.45139352719E+03  0.00000000000E+00 0. -1.
         23    2    1    2    0    0 -0.69665139894E+03  0.61388909597E+03  0.17270534871E+04  0.19630154320E+04  0.92373400849E+02 0.  0.
         11    1    3    3    0    0 -0.99302607891E+02  0.13335286736E+03  0.32415569003E+03  0.36430880657E+03  0.00000000000E+00 0. -1.
        -11    1    3    3    0    0 -0.59734879104E+03  0.48053622861E+03  0.14028977970E+04  0.15987066254E+04  0.00000000000E+00 0.  1.
         22    1    1    2    0    0  0.69665139894E+03 -0.61388909597E+03  0.31307104460E+03  0.97989615407E+03  0.00000000000E+00 0. -1.
<mgrwt>
<rscale>  0 0.21209952E+04</rscale>
<asrwt>0</asrwt>
<pdfrwt beam="1">  1        1 0.69445160E-01 0.21209952E+04</pdfrwt>
<pdfrwt beam="2">  1       -1 0.38331046E+00 0.21209952E+04</pdfrwt>
<totfact> 0.43552668E-01</totfact>
</mgrwt>
</event>
<event>
 6    1  0.1014650E-006  0.2417807E+04  0.7818608E-02  0.8432867E-01
          2   -1    0    0  501    0  0.00000000000E+00  0.00000000000E+00  0.23190597022E+04  0.23190597022E+04  0.00000000000E+00 0. -1.
         -2   -1    0    0    0  501 -0.00000000000E+00 -0.00000000000E+00 -0.63018978037E+03  0.63018978037E+03  0.00000000000E+00 0.  1.
         23    2    1    2    0    0 -0.67966161315E+03 -0.96756228208E+01  0.20624686852E+04  0.21736145413E+04  0.93752708842E+02 0.  0.
         13    1    3    3    0    0 -0.26284069624E+03 -0.48628257426E+02  0.83114657513E+03  0.87307191478E+03  0.00000000000E+00 0. -1.
        -13    1    3    3    0    0 -0.41682091691E+03  0.38952634605E+02  0.12313221101E+04  0.13005426265E+04  0.00000000000E+00 0.  1.
         22    1    1    2    0    0  0.67966161315E+03  0.96756228208E+01 -0.37359876344E+03  0.77563494126E+03  0.00000000000E+00 0.  1.
<mgrwt>
<rscale>  0 0.24178070E+04</rscale>
<asrwt>0</asrwt>
<pdfrwt beam="1">  1        2 0.35677841E+00 0.24178070E+04</pdfrwt>
<pdfrwt beam="2">  1       -2 0.96952275E-01 0.24178070E+04</pdfrwt>
<totfact> 0.35276834E+00</totfact>
</mgrwt>
</event>
<event>
 6    1  0.1014650E-006  0.1675388E+04  0.7818608E-02  0.8775527E-01
          1   -1    0    0  501    0  0.00000000000E+00  0.00000000000E+00  0.22179492685E+04  0.22179492685E+04  0.00000000000E+00 0. -1.
         -1   -1    0    0    0  501 -0.00000000000E+00 -0.00000000000E+00 -0.31638738490E+03  0.31638738490E+03  0.00000000000E+00 0.  1.
         23    2    1    2    0    0  0.69618228458E+03  0.39282389495E+03  0.13219538492E+04  0.15469533138E+04  0.80760075722E+02 0.  0.
         11    1    3    3    0    0  0.92646007346E+02  0.37191777893E+02  0.12376942467E+03  0.15901377772E+03  0.00000000000E+00 0.  1.
        -11    1    3    3    0    0  0.60353627723E+03  0.35563211706E+03  0.11981844245E+04  0.13879395361E+04  0.00000000000E+00 0. -1.
         22    1    1    2    0    0 -0.69618228458E+03 -0.39282389495E+03  0.57960803443E+03  0.98738333963E+03  0.00000000000E+00 0.  1.
<mgrwt>
<rscale>  0 0.16753879E+04</rscale>
<asrwt>0</asrwt>
<pdfrwt beam="1">  1        1 0.34122295E+00 0.16753879E+04</pdfrwt>
<pdfrwt beam="2">  1       -1 0.48674984E-01 0.16753879E+04</pdfrwt>
<totfact> 0.85377827E+00</totfact>
</mgrwt>
</event>
<event>
 6    1  0.1014650E-006  0.9014900E+03  0.7818608E-02  0.9423721E-01
          1   -1    0    0  501    0  0.00000000000E+00  0.00000000000E+00  0.17128172785E+04  0.17128172785E+04  0.00000000000E+00 0. -1.
         -1   -1    0    0    0  501 -0.00000000000E+00 -0.00000000000E+00 -0.11861804456E+03  0.11861804456E+03  0.00000000000E+00 0.  1.
         23    2    1    2    0    0  0.38224608012E+03 -0.14462988292E+03  0.11689689066E+04  0.12416466320E+04  0.90378013922E+02 0.  0.
         13    1    3    3    0    0  0.18097052380E+03 -0.78082270461E+02  0.43287114691E+03  0.47563074046E+03  0.00000000000E+00 0.  1.
        -13    1    3    3    0    0  0.20127555632E+03 -0.66547612461E+02  0.73609775967E+03  0.76601589153E+03  0.00000000000E+00 0. -1.
         22    1    1    2    0    0 -0.38224608012E+03  0.14462988292E+03  0.42523032739E+03  0.58978869109E+03  0.00000000000E+00 0.  1.
<mgrwt>
<rscale>  0 0.90148996E+03</rscale>
<asrwt>0</asrwt>
<pdfrwt beam="1">  1        1 0.26351033E+00 0.90148996E+03</pdfrwt>
<pdfrwt beam="2">  1       -1 0.18248931E-01 0.90148996E+03</pdfrwt>
<totfact> 0.11257347E+02</totfact>
</mgrwt>
</event>
<event>
 6    1  0.1014650E-006  0.2028982E+04  0.7818608E-02  0.8593189E-01
         -1   -1    0    0    0  501 -0.00000000000E+00  0.00000000000E+00  0.10607061236E+04  0.10607061236E+04  0.00000000000E+00 0.  1.
          1   -1    0    0  501    0  0.00000000000E+00 -0.00000000000E+00 -0.97028985665E+03  0.97028985665E+03  0.00000000000E+00 0. -1.
         23    2    1    2    0    0  0.49731275796E+03  0.55557332582E+03 -0.64022558158E+03  0.98705191547E+03  0.91656908836E+02 0.  0.
         11    1    3    3    0    0  0.25979252589E+03  0.28758953264E+03 -0.27245126094E+03  0.47373999766E+03  0.00000000000E+00 0. -1.
        -11    1    3    3    0    0  0.23752023207E+03  0.26798379318E+03 -0.36777432064E+03  0.51331191781E+03  0.00000000000E+00 0.  1.
         22    1    1    2    0    0 -0.49731275796E+03 -0.55557332582E+03  0.73064184855E+03  0.10439440648E+04  0.00000000000E+00 0.  1.
<mgrwt>
<rscale>  0 0.20289824E+04</rscale>
<asrwt>0</asrwt>
<pdfrwt beam="1">  1        1 0.14927536E+00 0.20289824E+04</pdfrwt>
<pdfrwt beam="2">  1       -1 0.16318556E+00 0.20289824E+04</pdfrwt>
<totfact> 0.40859798E+00</totfact>
</mgrwt>
</event>
<event>
 6    1  0.1014650E-006  0.3663784E+04  0.7818608E-02  0.8076035E-01
         -2   -1    0    0    0  501 -0.00000000000E+00  0.00000000000E+00  0.15179553737E+04  0.15179553737E+04  0.00000000000E+00 0.  1.
          2   -1    0    0  501    0  0.00000000000E+00 -0.00000000000E+00 -0.22107560891E+04  0.22107560891E+04  0.00000000000E+00 0. -1.
         23    2    1    2    0    0 -0.52269238091E+03  0.14140544640E+04 -0.14036802473E+04  0.20619460141E+04  0.92443367782E+02 0.  0.
         13    1    3    3    0    0 -0.42769042985E+03  0.10838526752E+04 -0.11232198063E+04  0.16184185054E+04  0.00000000000E+00 0. -1.
        -13    1    3    3    0    0 -0.95001951063E+02  0.33020178880E+03 -0.28046044104E+03  0.44352750875E+03  0.00000000000E+00 0.  1.
         22    1    1    2    0    0  0.52269238091E+03 -0.14140544640E+04  0.71087953196E+03  0.16667654487E+04  0.00000000000E+00 0.  1.
<mgrwt>
<rscale>  0 0.36637844E+04</rscale>
<asrwt>0</asrwt>
<pdfrwt beam="1">  1        2 0.34011632E+00 0.36637844E+04</pdfrwt>
<pdfrwt beam="2">  1       -2 0.23353160E+00 0.36637844E+04</pdfrwt>
<totfact> 0.33553016E-01</totfact>
</mgrwt>
</event>
<event>
 6    1  0.1014650E-006  0.1726986E+04  0.7818608E-02  0.8746121E-01
          2   -1    0    0  501    0  0.00000000000E+00  0.00000000000E+00  0.46362607605E+03  0.46362607605E+03  0.00000000000E+00 0. -1.
         -2   -1    0    0    0  501 -0.00000000000E+00 -0.00000000000E+00 -0.16082365934E+04  0.16082365934E+04  0.00000000000E+00 0.  1.
         23    2    1    2    0    0  0.22659860235E+03  0.12685097320E+03  0.41112060078E+03  0.49460637832E+03  0.90428010575E+02 0.  0.
         11    1    3    3    0    0  0.20071337047E+03  0.72666800142E+02  0.34082274874E+03  0.40215229327E+03  0.00000000000E+00 0. -1.
        -11    1    3    3    0    0  0.25885231885E+02  0.54184173056E+02  0.70297852038E+02  0.92454085041E+02  0.00000000000E+00 0.  1.
         22    1    1    2    0    0 -0.22659860235E+03 -0.12685097320E+03 -0.15557311182E+04  0.15772562912E+04  0.00000000000E+00 0.  1.
<mgrwt>
<rscale>  0 0.17269863E+04</rscale>
<asrwt>0</asrwt>
<pdfrwt beam="1">  1        2 0.71327088E-01 0.17269863E+04</pdfrwt>
<pdfrwt beam="2">  1       -2 0.24742102E+00 0.17269863E+04</pdfrwt>
<totfact> 0.42534524E+00</totfact>
</mgrwt>
</event>
<event>
 6    1  0.1014650E-006  0.3280485E+04  0.7818608E-02  0.8167879E-01
         -2   -1    0    0    0  501 -0.00000000000E+00  0.00000000000E+00  0.14152086517E+04  0.14152086517E+04  0.00000000000E+00 0.  1.
          2   -1    0    0  501    0  0.00000000000E+00 -0.00000000000E+00 -0.19010586514E+04  0.19010586514E+04  0.00000000000E+00 0. -1.
         23    2    1    2    0    0 -0.10434754002E+03  0.97687332488E+03  0.10831544220E+04  0.14650664018E+04  0.89588825970E+02 0.  0.
         11    1    3    3    0    0 -0.89383570113E+02  0.89977378653E+03  0.10281204761E+04  0.13691654403E+04  0.00000000000E+00 0. -1.
        -11    1    3    3    0    0 -0.14963969909E+02  0.77099538346E+02  0.55033945857E+02  0.95900961441E+02  0.00000000000E+00 0.  1.
         22    1    1    2    0    0  0.10434754002E+03 -0.97687332488E+03 -0.15690044216E+04  0.18512009013E+04  0.00000000000E+00 0. -1.
<mgrwt>
<rscale>  0 0.32804845E+04</rscale>
<asrwt>0</asrwt>
<pdfrwt beam="1">  1        2 0.29247056E+00 0.32804845E+04</pdfrwt>
<pdfrwt beam="2">  1       -2 0.21772441E+00 0.32804845E+04</pdfrwt>
<totfact> 0.64824000E-01</totfact>
</mgrwt>
</event>
<event>
 6    1  0.1014650E-006  0.5851502E+04  0.7818608E-02  0.7709091E-01
          1   -1    0    0  501    0  0.00000000000E+00  0.00000000000E+00  0.43874100371E+04  0.43874100371E+04  0.00000000000E+00 0. -1.
         -1   -1    0    0    0  501 -0.00000000000E+00 -0.00000000000E+00 -0.19510415137E+04  0.19510415137E+04  0.00000000000E+00 0.  1.
         23    2    1    2    0    0  0.10787059242E+04 -0.19551112235E+04  0.32651079746E+04  0.39566716606E+04  0.90852503576E+02 0.  0.
         11    1    3    3    0    0  0.95179789178E+03 -0.17723091781E+04  0.29654664673E+04  0.35834327702E+04  0.00000000000E+00 0.  1.
        -11    1    3    3    0    0  0.12690803238E+03 -0.18280204539E+03  0.29964150728E+03  0.37323889048E+03  0.00000000000E+00 0. -1.
         22    1    1    2    0    0 -0.10787059242E+04  0.19551112235E+04 -0.82873945117E+03  0.23817798901E+04  0.00000000000E+00 0.  1.
<mgrwt>
<rscale>  0 0.58515021E+04</rscale>
<asrwt>0</asrwt>
<pdfrwt beam="1">  1        1 0.67498616E+00 0.58515021E+04</pdfrwt>
<pdfrwt beam="2">  1       -1 0.30016023E+00 0.58515021E+04</pdfrwt>
<totfact> 0.92424117E-04</totfact>
</mgrwt>
</event>
<event>
 6    1  0.1014650E-006  0.3819597E+03  0.7818608E-02  0.1050212E+00
         -2   -1    0    0    0  501 -0.00000000000E+00  0.00000000000E+00  0.50331041786E+02  0.50331041786E+02  0.00000000000E+00 0.  1.
          2   -1    0    0  501    0  0.00000000000E+00 -0.00000000000E+00 -0.72466812812E+03  0.72466812812E+03  0.00000000000E+00 0. -1.
         23    2    1    2    0    0 -0.99819654599E+02 -0.43975486593E+01 -0.66057218808E+03  0.67413899787E+03  0.90135846929E+02 0.  0.
         11    1    3    3    0    0 -0.10290798624E+03 -0.24474440342E+02 -0.43591812563E+03  0.44856846090E+03  0.00000000000E+00 0.  1.
        -11    1    3    3    0    0  0.30883316399E+01  0.20076891682E+02 -0.22465406246E+03  0.22557053697E+03  0.00000000000E+00 0. -1.
         22    1    1    2    0    0  0.99819654599E+02  0.43975486593E+01 -0.13764898246E+02  0.10086017203E+03  0.00000000000E+00 0.  1.
<mgrwt>
<rscale>  0 0.38195969E+03</rscale>
<asrwt>0</asrwt>
<pdfrwt beam="1">  1        2 0.11148740E+00 0.38195969E+03</pdfrwt>
<pdfrwt beam="2">  1       -2 0.77432375E-02 0.38195969E+03</pdfrwt>
<totfact> 0.40205242E+03</totfact>
</mgrwt>
</event>
<event>
 6    1  0.1014650E-006  0.3729698E+04  0.7818608E-02  0.8061412E-01
         -2   -1    0    0    0  501 -0.00000000000E+00  0.00000000000E+00  0.25411144211E+04  0.25411144211E+04  0.00000000000E+00 0.  1.
          2   -1    0    0  501    0  0.00000000000E+00 -0.00000000000E+00 -0.13685574499E+04  0.13685574499E+04  0.00000000000E+00 0. -1.
         23    2    1    2    0    0  0.79680337952E+03 -0.23423157581E+03 -0.11623300554E+04  0.14314754535E+04  0.91382490032E+02 0.  0.
         13    1    3    3    0    0  0.40262873027E+03 -0.77166197235E+02 -0.53192856436E+03  0.67157465260E+03  0.00000000000E+00 0. -1.
        -13    1    3    3    0    0  0.39417464925E+03 -0.15706537857E+03 -0.63040149103E+03  0.75990080086E+03  0.00000000000E+00 0.  1.
         22    1    1    2    0    0 -0.79680337952E+03  0.23423157581E+03  0.23348870267E+04  0.24781964176E+04  0.00000000000E+00 0.  1.
<mgrwt>
<rscale>  0 0.37296976E+04</rscale>
<asrwt>0</asrwt>
<pdfrwt beam="1">  1        2 0.21054730E+00 0.37296976E+04</pdfrwt>
<pdfrwt beam="2">  1       -2 0.39094068E+00 0.37296976E+04</pdfrwt>
<totfact> 0.10338856E-01</totfact>
</mgrwt>
</event>
<event>
 6    1  0.1014650E-006  0.4876673E+04  0.7818608E-02  0.7847818E-01
         -2   -1    0    0    0  501 -0.00000000000E+00  0.00000000000E+00  0.19575150977E+04  0.19575150977E+04  0.00000000000E+00 0.  1.
          2   -1    0    0  501    0  0.00000000000E+00 -0.00000000000E+00 -0.30372611550E+04  0.30372611550E+04  0.00000000000E+00 0. -1.
         23    2    1    2    0    0  0.19440834070E+04 -0.11709435013E+03 -0.20412716042E+04  0.28227489146E+04  0.89164411475E+02 0.  0.
         13    1    3    3    0    0  0.38603387631E+03 -0.58491169834E+02 -0.40032576506E+03  0.55919950713E+03  0.00000000000E+00 0.  1.
        -13    1    3    3    0    0  0.15580495307E+04 -0.58603180297E+02 -0.16409458391E+04  0.22635494074E+04  0.00000000000E+00 0. -1.
         22    1    1    2    0    0 -0.19440834070E+04  0.11709435013E+03  0.96152554679E+03  0.21720273381E+04  0.00000000000E+00 0.  1.
<mgrwt>
<rscale>  0 0.48766729E+04</rscale>
<asrwt>0</asrwt>
<pdfrwt beam="1">  1        2 0.46727095E+00 0.48766729E+04</pdfrwt>
<pdfrwt beam="2">  1       -2 0.30115617E+00 0.48766729E+04</pdfrwt>
<totfact> 0.37900486E-02</totfact>
</mgrwt>
</event>
<event>
 6    1  0.1014650E-006  0.2711949E+04  0.7818608E-02  0.8331138E-01
          1   -1    0    0  501    0  0.00000000000E+00  0.00000000000E+00  0.19542720278E+04  0.19542720278E+04  0.00000000000E+00 0. -1.
         -1   -1    0    0    0  501 -0.00000000000E+00 -0.00000000000E+00 -0.94084498896E+03  0.94084498896E+03  0.00000000000E+00 0.  1.
         23    2    1    2    0    0 -0.28139059530E+03 -0.10677644296E+03  0.19170769040E+04  0.19426649420E+04  0.90450788473E+02 0.  0.
         13    1    3    3    0    0 -0.79674583709E+02 -0.45970513215E+02  0.36777520768E+03  0.37910411598E+03  0.00000000000E+00 0. -1.
        -13    1    3    3    0    0 -0.20171601159E+03 -0.60805929742E+02  0.15493016963E+04  0.15635608260E+04  0.00000000000E+00 0.  1.
         22    1    1    2    0    0  0.28139059530E+03  0.10677644296E+03 -0.90364986516E+03  0.95245207475E+03  0.00000000000E+00 0.  1.
<mgrwt>
<rscale>  0 0.27119491E+04</rscale>
<asrwt>0</asrwt>
<pdfrwt beam="1">  1        1 0.30065723E+00 0.27119491E+04</pdfrwt>
<pdfrwt beam="2">  1       -1 0.14474538E+00 0.27119491E+04</pdfrwt>
<totfact> 0.10716256E+00</totfact>
</mgrwt>
</event>
<event>
 6    1  0.1014650E-006  0.7126819E+03  0.7818608E-02  0.9695787E-01
         -1   -1    0    0    0  501 -0.00000000000E+00  0.00000000000E+00  0.58163548759E+02  0.58163548759E+02  0.00000000000E+00 0.  1.
          1   -1    0    0  501    0  0.00000000000E+00 -0.00000000000E+00 -0.21831347807E+04  0.21831347807E+04  0.00000000000E+00 0. -1.
         23    2    1    2    0    0  0.27880482195E+03  0.57352036557E+02 -0.44140967786E+03  0.53384382312E+03  0.95526639941E+02 0.  0.
         13    1    3    3    0    0  0.77359382128E+02  0.67376425899E+01 -0.55031863358E+02  0.95175500080E+02  0.00000000000E+00 0.  1.
        -13    1    3    3    0    0  0.20144543982E+03  0.50614393967E+02 -0.38637781450E+03  0.43866832304E+03  0.00000000000E+00 0. -1.
         22    1    1    2    0    0 -0.27880482195E+03 -0.57352036557E+02 -0.16835615541E+04  0.17074545064E+04  0.00000000000E+00 0. -1.
<mgrwt>
<rscale>  0 0.71268188E+03</rscale>
<asrwt>0</asrwt>
<pdfrwt beam="1">  1        1 0.33586686E+00 0.71268188E+03</pdfrwt>
<pdfrwt beam="2">  1       -1 0.89482391E-02 0.71268188E+03</pdfrwt>
<totfact> 0.17454496E+02</totfact>
</mgrwt>
</event>
<event>
 6    1  0.1014650E-006  0.3929862E+04  0.7818608E-02  0.8018847E-01
         -2   -1    0    0    0  501 -0.00000000000E+00  0.00000000000E+00  0.15042038107E+04  0.15042038107E+04  0.00000000000E+00 0.  1.
          2   -1    0    0  501    0  0.00000000000E+00 -0.00000000000E+00 -0.25667757258E+04  0.25667757258E+04  0.00000000000E+00 0. -1.
         23    2    1    2    0    0  0.70232359704E+03 -0.45330163264E+03 -0.23725024703E+04  0.25170622722E+04  0.89965025199E+02 0.  0.
         11    1    3    3    0    0  0.28444385625E+03 -0.19392659560E+03 -0.84917696061E+03  0.91630635831E+03  0.00000000000E+00 0. -1.
        -11    1    3    3    0    0  0.41787974080E+03 -0.25937503704E+03 -0.15233255097E+04  0.16007559139E+04  0.00000000000E+00 0.  1.
         22    1    1    2    0    0 -0.70232359704E+03  0.45330163264E+03  0.13099305551E+04  0.15539172643E+04  0.00000000000E+00 0.  1.
<mgrwt>
<rscale>  0 0.39298620E+04</rscale>
<asrwt>0</asrwt>
<pdfrwt beam="1">  1        2 0.39488857E+00 0.39298620E+04</pdfrwt>
<pdfrwt beam="2">  1       -2 0.23141597E+00 0.39298620E+04</pdfrwt>
<totfact> 0.21152444E-01</totfact>
</mgrwt>
</event>
<event>
 6    1  0.1014650E-006  0.5379080E+04  0.7818608E-02  0.7772551E-01
          1   -1    0    0  501    0  0.00000000000E+00  0.00000000000E+00  0.36716524949E+04  0.36716524949E+04  0.00000000000E+00 0. -1.
         -1   -1    0    0    0  501 -0.00000000000E+00 -0.00000000000E+00 -0.19701276762E+04  0.19701276762E+04  0.00000000000E+00 0.  1.
         23    2    1    2    0    0  0.62507334912E+03 -0.32675195287E+03 -0.18702816831E+04  0.20009993184E+04  0.92526576344E+02 0.  0.
         13    1    3    3    0    0  0.19561347529E+03 -0.14858115661E+03 -0.69148408533E+03  0.73381961822E+03  0.00000000000E+00 0. -1.
        -13    1    3    3    0    0  0.42945987383E+03 -0.17817079626E+03 -0.11787975978E+04  0.12671797002E+04  0.00000000000E+00 0.  1.
         22    1    1    2    0    0 -0.62507334912E+03  0.32675195287E+03  0.35718065019E+04  0.36407808527E+04  0.00000000000E+00 0. -1.
<mgrwt>
<rscale>  0 0.53790795E+04</rscale>
<asrwt>0</asrwt>
<pdfrwt beam="1">  1        1 0.56486962E+00 0.53790795E+04</pdfrwt>
<pdfrwt beam="2">  1       -1 0.30309656E+00 0.53790795E+04</pdfrwt>
<totfact> 0.40144439E-03</totfact>
</mgrwt>
</event>
<event>
 6    1  0.1014650E-006  0.2349912E+04  0.7818608E-02  0.8458498E-01
          2   -1    0    0  501    0  0.00000000000E+00  0.00000000000E+00  0.89453880614E+03  0.89453880614E+03  0.00000000000E+00 0. -1.
         -2   -1    0    0    0  501 -0.00000000000E+00 -0.00000000000E+00 -0.15432770664E+04  0.15432770664E+04  0.00000000000E+00 0.  1.
         23    2    1    2    0    0 -0.47666108299E+03  0.94963632522E+03  0.19090644525E+03  0.10835566028E+04  0.92923099471E+02 0.  0.
         11    1    3    3    0    0 -0.21390416677E+03  0.52883998999E+03  0.96915083760E+02  0.57863568939E+03  0.00000000000E+00 0.  1.
        -11    1    3    3    0    0 -0.26275691622E+03  0.42079633523E+03  0.93991361487E+02  0.50492091341E+03  0.00000000000E+00 0. -1.
         22    1    1    2    0    0  0.47666108299E+03 -0.94963632522E+03 -0.83964470553E+03  0.13542592698E+04  0.00000000000E+00 0. -1.
<mgrwt>
<rscale>  0 0.23499117E+04</rscale>
<asrwt>0</asrwt>
<pdfrwt beam="1">  1        2 0.13762136E+00 0.23499117E+04</pdfrwt>
<pdfrwt beam="2">  1       -2 0.23742724E+00 0.23499117E+04</pdfrwt>
<totfact> 0.20515628E+00</totfact>
</mgrwt>
</event>
<event>
 6    1  0.1014650E-006  0.4187917E+04  0.7818608E-02  0.7967675E-01
         -2   -1    0    0    0  501 -0.00000000000E+00  0.00000000000E+00  0.19923682194E+04  0.19923682194E+04  0.00000000000E+00 0.  1.
          2   -1    0    0  501    0  0.00000000000E+00 -0.00000000000E+00 -0.22007289238E+04  0.22007289238E+04  0.00000000000E+00 0. -1.
         23    2    1    2    0    0 -0.17738798102E+04  0.90008016605E+03 -0.75607393996E+03  0.21298997037E+04  0.89616174124E+02 0.  0.
         13    1    3    3    0    0 -0.24707195957E+03  0.11190610077E+03 -0.73238389990E+02  0.28094730887E+03  0.00000000000E+00 0.  1.
        -13    1    3    3    0    0 -0.15268078506E+04  0.78817406529E+03 -0.68283554997E+03  0.18489523948E+04  0.00000000000E+00 0. -1.
         22    1    1    2    0    0  0.17738798102E+04 -0.90008016605E+03  0.54771323555E+03  0.20631974396E+04  0.00000000000E+00 0. -1.
<mgrwt>
<rscale>  0 0.41879171E+04</rscale>
<asrwt>0</asrwt>
<pdfrwt beam="1">  1        2 0.33857368E+00 0.41879171E+04</pdfrwt>
<pdfrwt beam="2">  1       -2 0.30651819E+00 0.41879171E+04</pdfrwt>
<totfact> 0.11620744E-01</totfact>
</mgrwt>
</event>
<event>
 6    1  0.1014650E-006  0.3567505E+04  0.7818608E-02  0.8097976E-01
         -2   -1    0    0    0  501 -0.00000000000E+00  0.00000000000E+00  0.78892102384E+03  0.78892102384E+03  0.00000000000E+00 0.  1.
          2   -1    0    0  501    0  0.00000000000E+00 -0.00000000000E+00 -0.40330693226E+04  0.40330693226E+04  0.00000000000E+00 0. -1.
         23    2    1    2    0    0  0.15450858161E+03 -0.12942876090E+04 -0.32666485531E+04  0.35183187704E+04  0.92308634369E+02 0.  0.
         11    1    3    3    0    0  0.87906595200E+02 -0.59375359969E+03 -0.13890664516E+04  0.15132007513E+04  0.00000000000E+00 0.  1.
        -11    1    3    3    0    0  0.66601986413E+02 -0.70053400933E+03 -0.18775821015E+04  0.20051180191E+04  0.00000000000E+00 0. -1.
         22    1    1    2    0    0 -0.15450858161E+03  0.12942876090E+04  0.22500254388E+02  0.13036715760E+04  0.00000000000E+00 0.  1.
<mgrwt>
<rscale>  0 0.35675051E+04</rscale>
<asrwt>0</asrwt>
<pdfrwt beam="1">  1        2 0.62047221E+00 0.35675051E+04</pdfrwt>
<pdfrwt beam="2">  1       -2 0.12137246E+00 0.35675051E+04</pdfrwt>
<totfact> 0.13522962E-01</totfact>
</mgrwt>
</event>
<event>
 6    1  0.1014650E-006  0.1186324E+04  0.7818608E-02  0.9124912E-01
          2   -1    0    0  501    0  0.00000000000E+00  0.00000000000E+00  0.17629687614E+04  0.17629687614E+04  0.00000000000E+00 0. -1.
         -2   -1    0    0    0  501 -0.00000000000E+00 -0.00000000000E+00 -0.19957320557E+03  0.19957320557E+03  0.00000000000E+00 0.  1.
         23    2    1    2    0    0  0.45705468900E+03  0.24643978127E+03  0.12527308414E+04  0.13574435293E+04  0.60719186375E+02 0.  0.
         11    1    3    3    0    0  0.22219306966E+03  0.11112041184E+03  0.67564188982E+03  0.71986767493E+03  0.00000000000E+00 0. -1.
        -11    1    3    3    0    0  0.23486161935E+03  0.13531936942E+03  0.57708895163E+03  0.63757585437E+03  0.00000000000E+00 0.  1.
         22    1    1    2    0    0 -0.45705468900E+03 -0.24643978127E+03  0.31066471442E+03  0.60509843771E+03  0.00000000000E+00 0.  1.
<mgrwt>
<rscale>  0 0.11863243E+04</rscale>
<asrwt>0</asrwt>
<pdfrwt beam="1">  1        2 0.27122595E+00 0.11863243E+04</pdfrwt>
<pdfrwt beam="2">  1       -2 0.30703571E-01 0.11863243E+04</pdfrwt>
<totfact> 0.87743484E+01</totfact>
</mgrwt>
</event>
<event>
 6    1  0.1014650E-006  0.1726204E+04  0.7818608E-02  0.8746559E-01
         -2   -1    0    0    0  501 -0.00000000000E+00  0.00000000000E+00  0.66903061866E+03  0.66903061866E+03  0.00000000000E+00 0.  1.
          2   -1    0    0  501    0  0.00000000000E+00 -0.00000000000E+00 -0.11134697945E+04  0.11134697945E+04  0.00000000000E+00 0. -1.
         23    2    1    2    0    0  0.47023032653E+03  0.28897241880E+03  0.45912542578E+03  0.72370363940E+03  0.91264353765E+02 0.  0.
         11    1    3    3    0    0  0.29446452721E+03  0.17827717280E+03  0.34200341533E+03  0.48524060447E+03  0.00000000000E+00 0. -1.
        -11    1    3    3    0    0  0.17576579932E+03  0.11069524600E+03  0.11712201045E+03  0.23846303493E+03  0.00000000000E+00 0.  1.
         22    1    1    2    0    0 -0.47023032653E+03 -0.28897241880E+03 -0.90356460160E+03  0.10587967737E+04  0.00000000000E+00 0. -1.
<mgrwt>
<rscale>  0 0.17262044E+04</rscale>
<asrwt>0</asrwt>
<pdfrwt beam="1">  1        2 0.17130304E+00 0.17262044E+04</pdfrwt>
<pdfrwt beam="2">  1       -2 0.10292779E+00 0.17262044E+04</pdfrwt>
<totfact> 0.15652625E+01</totfact>
</mgrwt>
</event>
<event>
 6    1  0.1014650E-006  0.4852827E+04  0.7818608E-02  0.7851620E-01
         -2   -1    0    0    0  501 -0.00000000000E+00  0.00000000000E+00  0.15436996451E+04  0.15436996451E+04  0.00000000000E+00 0.  1.
          2   -1    0    0  501    0  0.00000000000E+00 -0.00000000000E+00 -0.38138788422E+04  0.38138788422E+04  0.00000000000E+00 0. -1.
         23    2    1    2    0    0  0.16497244335E+02  0.23682269162E+04 -0.17140504821E+04  0.29248742239E+04  0.90273390204E+02 0.  0.
         11    1    3    3    0    0 -0.74803274644E+01  0.22020241949E+04 -0.15971450904E+04  0.27202645000E+04  0.00000000000E+00 0. -1.
        -11    1    3    3    0    0  0.23977571799E+02  0.16620272128E+03 -0.11690539167E+03  0.20460972390E+03  0.00000000000E+00 0.  1.
         22    1    1    2    0    0 -0.16497244335E+02 -0.23682269162E+04 -0.55612871500E+03  0.24327042634E+04  0.00000000000E+00 0.  1.
<mgrwt>
<rscale>  0 0.48528274E+04</rscale>
<asrwt>0</asrwt>
<pdfrwt beam="1">  1        2 0.58675058E+00 0.48528274E+04</pdfrwt>
<pdfrwt beam="2">  1       -2 0.23749226E+00 0.48528274E+04</pdfrwt>
<totfact> 0.27012498E-02</totfact>
</mgrwt>
</event>
<event>
 6    1  0.1014650E-006  0.8995779E+03  0.7818608E-02  0.9426109E-01
          2   -1    0    0  501    0  0.00000000000E+00  0.00000000000E+00  0.34132050082E+03  0.34132050082E+03  0.00000000000E+00 0. -1.
         -2   -1    0    0    0  501 -0.00000000000E+00 -0.00000000000E+00 -0.59272765881E+03  0.59272765881E+03  0.00000000000E+00 0.  1.
         23    2    1    2    0    0 -0.34955447267E+03  0.89425097148E+02  0.14345723307E+03  0.39916213000E+03  0.92548640924E+02 0.  0.
         11    1    3    3    0    0 -0.16292118720E+03  0.88965078914E+02  0.78538638970E+02  0.20155995712E+03  0.00000000000E+00 0.  1.
        -11    1    3    3    0    0 -0.18663328548E+03  0.46001823403E+00  0.64918594103E+02  0.19760217287E+03  0.00000000000E+00 0. -1.
         22    1    1    2    0    0  0.34955447267E+03 -0.89425097148E+02 -0.39486439107E+03  0.53488602963E+03  0.00000000000E+00 0.  1.
<mgrwt>
<rscale>  0 0.89957790E+03</rscale>
<asrwt>0</asrwt>
<pdfrwt beam="1">  1        2 0.52510847E-01 0.89957790E+03</pdfrwt>
<pdfrwt beam="2">  1       -2 0.91188870E-01 0.89957790E+03</pdfrwt>
<totfact> 0.97801418E+01</totfact>
</mgrwt>
</event>
<event>
 6    1  0.1014650E-006  0.2082510E+04  0.7818608E-02  0.8568987E-01
         -4   -1    0    0    0  501 -0.00000000000E+00  0.00000000000E+00  0.74721304577E+03  0.74721304577E+03  0.00000000000E+00 0.  1.
          4   -1    0    0  501    0  0.00000000000E+00 -0.00000000000E+00 -0.14510078525E+04  0.14510078525E+04  0.00000000000E+00 0. -1.
         23    2    1    2    0    0  0.97701271069E+03  0.30035200070E+03 -0.15828902160E+03  0.10396261793E+04  0.10489050059E+03 0.  0.
         13    1    3    3    0    0  0.55667168897E+03  0.13118619839E+03 -0.12412794333E+03  0.58523579374E+03  0.00000000000E+00 0.  1.
        -13    1    3    3    0    0  0.42034102172E+03  0.16916580231E+03 -0.34161078269E+02  0.45439038555E+03  0.00000000000E+00 0. -1.
         22    1    1    2    0    0 -0.97701271069E+03 -0.30035200070E+03 -0.54550578509E+03  0.11585947189E+04  0.00000000000E+00 0. -1.
<mgrwt>
<rscale>  0 0.20825100E+04</rscale>
<asrwt>0</asrwt>
<pdfrwt beam="1">  1        4 0.22323198E+00 0.20825100E+04</pdfrwt>
<pdfrwt beam="2">  1       -4 0.11495585E+00 0.20825100E+04</pdfrwt>
<totfact> 0.10107806E-01</totfact>
</mgrwt>
</event>
<event>
 6    1  0.1014650E-006  0.5425241E+04  0.7818608E-02  0.7766061E-01
         -2   -1    0    0    0  501 -0.00000000000E+00  0.00000000000E+00  0.39282574014E+04  0.39282574014E+04  0.00000000000E+00 0.  1.
          2   -1    0    0  501    0  0.00000000000E+00 -0.00000000000E+00 -0.18731742878E+04  0.18731742878E+04  0.00000000000E+00 0. -1.
         23    2    1    2    0    0  0.19664367694E+03  0.78844468081E+03  0.37944886364E+04  0.38815761418E+04  0.90418929163E+02 0.  0.
         13    1    3    3    0    0  0.49345596319E+02  0.30254448777E+03  0.16019852071E+04  0.16310502012E+04  0.00000000000E+00 0.  1.
        -13    1    3    3    0    0  0.14729808062E+03  0.48590019304E+03  0.21925034292E+04  0.22505259406E+04  0.00000000000E+00 0. -1.
         22    1    1    2    0    0 -0.19664367694E+03 -0.78844468081E+03 -0.17394055228E+04  0.19198555475E+04  0.00000000000E+00 0. -1.
<mgrwt>
<rscale>  0 0.54252413E+04</rscale>
<asrwt>0</asrwt>
<pdfrwt beam="1">  1        2 0.28818066E+00 0.54252413E+04</pdfrwt>
<pdfrwt beam="2">  1       -2 0.60434729E+00 0.54252413E+04</pdfrwt>
<totfact> 0.27420407E-03</totfact>
</mgrwt>
</event>
<event>
 6    1  0.1014650E-006  0.1018748E+04  0.7818608E-02  0.9288218E-01
         -1   -1    0    0    0  501 -0.00000000000E+00  0.00000000000E+00  0.20195772454E+04  0.20195772454E+04  0.00000000000E+00 0.  1.
          1   -1    0    0  501    0  0.00000000000E+00 -0.00000000000E+00 -0.12847331205E+03  0.12847331205E+03  0.00000000000E+00 0. -1.
         23    2    1    2    0    0  0.41359747528E+03 -0.13418949553E+03  0.14961046660E+04  0.15606034419E+04  0.89912397655E+02 0.  0.
         13    1    3    3    0    0  0.11478208674E+03 -0.69747653837E+02  0.36526754403E+03  0.38917867538E+03  0.00000000000E+00 0. -1.
        -13    1    3    3    0    0  0.29881538853E+03 -0.64441841689E+02  0.11308371219E+04  0.11714247666E+04  0.00000000000E+00 0.  1.
         22    1    1    2    0    0 -0.41359747528E+03  0.13418949553E+03  0.39499926737E+03  0.58744711548E+03  0.00000000000E+00 0. -1.
<mgrwt>
<rscale>  0 0.10187478E+04</rscale>
<asrwt>0</asrwt>
<pdfrwt beam="1">  1        1 0.19765126E-01 0.10187478E+04</pdfrwt>
<pdfrwt beam="2">  1       -1 0.31070417E+00 0.10187478E+04</pdfrwt>
<totfact> 0.76124203E+00</totfact>
</mgrwt>
</event>
<event>
 6    1  0.1014650E-006  0.1479704E+04  0.7818608E-02  0.8898063E-01
          2   -1    0    0  501    0  0.00000000000E+00  0.00000000000E+00  0.28303204873E+04  0.28303204873E+04  0.00000000000E+00 0. -1.
         -2   -1    0    0    0  501 -0.00000000000E+00 -0.00000000000E+00 -0.19339902380E+03  0.19339902380E+03  0.00000000000E+00 0.  1.
         23    2    1    2    0    0 -0.49150437794E+03 -0.54570051043E+03  0.11968556987E+04  0.14071939136E+04  0.91463359649E+02 0.  0.
         11    1    3    3    0    0 -0.22611286423E+03 -0.23019841060E+03  0.60861178891E+03  0.68885894435E+03  0.00000000000E+00 0. -1.
        -11    1    3    3    0    0 -0.26539151372E+03 -0.31550209983E+03  0.58824390983E+03  0.71833496922E+03  0.00000000000E+00 0.  1.
         22    1    1    2    0    0  0.49150437794E+03  0.54570051043E+03  0.14400657647E+04  0.16165255975E+04  0.00000000000E+00 0.  1.
<mgrwt>
<rscale>  0 0.14797043E+04</rscale>
<asrwt>0</asrwt>
<pdfrwt beam="1">  1        2 0.43543389E+00 0.14797043E+04</pdfrwt>
<pdfrwt beam="2">  1       -2 0.29753698E-01 0.14797043E+04</pdfrwt>
<totfact> 0.22465027E+01</totfact>
</mgrwt>
</event>
<event>
 6    1  0.1014650E-006  0.3443020E+04  0.7818608E-02  0.8127428E-01
          2   -1    0    0  501    0  0.00000000000E+00  0.00000000000E+00  0.29878923309E+04  0.29878923309E+04  0.00000000000E+00 0. -1.
         -2   -1    0    0    0  501 -0.00000000000E+00 -0.00000000000E+00 -0.99186856069E+03  0.99186856069E+03  0.00000000000E+00 0.  1.
         23    2    1    2    0    0 -0.74985623037E+03  0.82303477082E+02  0.27858328899E+04  0.28875811106E+04  0.90562416632E+02 0.  0.
         11    1    3    3    0    0 -0.33838590117E+03  0.33907399853E+02  0.10869660936E+04  0.11389249398E+04  0.00000000000E+00 0.  1.
        -11    1    3    3    0    0 -0.41147032921E+03  0.48396077229E+02  0.16988667963E+04  0.17486561708E+04  0.00000000000E+00 0. -1.
         22    1    1    2    0    0  0.74985623037E+03 -0.82303477082E+02 -0.78980911966E+03  0.10921797810E+04  0.00000000000E+00 0.  1.
<mgrwt>
<rscale>  0 0.34430199E+04</rscale>
<asrwt>0</asrwt>
<pdfrwt beam="1">  1        2 0.45967574E+00 0.34430199E+04</pdfrwt>
<pdfrwt beam="2">  1       -2 0.15259516E+00 0.34430199E+04</pdfrwt>
<totfact> 0.41840992E-01</totfact>
</mgrwt>
</event>
<event>
 6    1  0.1014650E-006  0.1015090E+04  0.7818608E-02  0.9292147E-01
         -1   -1    0    0    0  501 -0.00000000000E+00  0.00000000000E+00  0.68597022960E+03  0.68597022960E+03  0.00000000000E+00 0.  1.
          1   -1    0    0  501    0  0.00000000000E+00 -0.00000000000E+00 -0.37552958120E+03  0.37552958120E+03  0.00000000000E+00 0. -1.
         23    2    1    2    0    0 -0.19550078136E+03 -0.18183063721E+03 -0.28999427284E+03  0.40438107664E+03  0.90246555163E+02 0.  0.
         11    1    3    3    0    0 -0.61253962584E+02 -0.73804502959E+01 -0.64625490766E+02  0.89347484775E+02  0.00000000000E+00 0. -1.
        -11    1    3    3    0    0 -0.13424681878E+03 -0.17445018692E+03 -0.22536878208E+03  0.31503359186E+03  0.00000000000E+00 0.  1.
         22    1    1    2    0    0  0.19550078136E+03  0.18183063721E+03  0.60043492124E+03  0.65711873416E+03  0.00000000000E+00 0.  1.
<mgrwt>
<rscale>  0 0.10150904E+04</rscale>
<asrwt>0</asrwt>
<pdfrwt beam="1">  1        1 0.57773782E-01 0.10150904E+04</pdfrwt>
<pdfrwt beam="2">  1       -1 0.10553388E+00 0.10150904E+04</pdfrwt>
<totfact> 0.55025118E+01</totfact>
</mgrwt>
</event>
<event>
 6    1  0.1014650E-006  0.3243636E+04  0.7818608E-02  0.8177387E-01
          3   -1    0    0  501    0  0.00000000000E+00  0.00000000000E+00  0.22718833710E+04  0.22718833710E+04  0.00000000000E+00 0. -1.
         -3   -1    0    0    0  501 -0.00000000000E+00 -0.00000000000E+00 -0.11577588168E+04  0.11577588168E+04  0.00000000000E+00 0.  1.
         23    2    1    2    0    0  0.20909612996E+03 -0.34735037602E+02  0.22562310951E+04  0.22680333617E+04  0.92026413077E+02 0.  0.
         13    1    3    3    0    0  0.12974994406E+03 -0.66245926908E+02  0.14082326370E+04  0.14157481170E+04  0.00000000000E+00 0. -1.
        -13    1    3    3    0    0  0.79346185893E+02  0.31510889306E+02  0.84799845808E+03  0.85228524466E+03  0.00000000000E+00 0.  1.
         22    1    1    2    0    0 -0.20909612996E+03  0.34735037602E+02 -0.11421065409E+04  0.11616088262E+04  0.00000000000E+00 0.  1.
<mgrwt>
<rscale>  0 0.32436356E+04</rscale>
<asrwt>0</asrwt>
<pdfrwt beam="1">  1        3 0.34952052E+00 0.32436356E+04</pdfrwt>
<pdfrwt beam="2">  1       -3 0.17811674E+00 0.32436356E+04</pdfrwt>
<totfact> 0.91766110E-03</totfact>
</mgrwt>
</event>
<event>
 6    1  0.1014650E-006  0.1147812E+04  0.7818608E-02  0.9159804E-01
         -2   -1    0    0    0  501 -0.00000000000E+00  0.00000000000E+00  0.27356728186E+03  0.27356728186E+03  0.00000000000E+00 0.  1.
          2   -1    0    0  501    0  0.00000000000E+00 -0.00000000000E+00 -0.12039746860E+04  0.12039746860E+04  0.00000000000E+00 0. -1.
         23    2    1    2    0    0 -0.54995873340E+02 -0.18601643141E+03 -0.11584825344E+04  0.11781343463E+04  0.91060950201E+02 0.  0.
         13    1    3    3    0    0 -0.18910442165E+02 -0.14553154203E+03 -0.62955262845E+03  0.64643139352E+03  0.00000000000E+00 0.  1.
        -13    1    3    3    0    0 -0.36085431175E+02 -0.40484889384E+02 -0.52892990595E+03  0.53170295280E+03  0.00000000000E+00 0. -1.
         22    1    1    2    0    0  0.54995873340E+02  0.18601643141E+03  0.22807513021E+03  0.29940762158E+03  0.00000000000E+00 0.  1.
<mgrwt>
<rscale>  0 0.11478120E+04</rscale>
<asrwt>0</asrwt>
<pdfrwt beam="1">  1        2 0.18522688E+00 0.11478120E+04</pdfrwt>
<pdfrwt beam="2">  1       -2 0.42087274E-01 0.11478120E+04</pdfrwt>
<totfact> 0.99718480E+01</totfact>
</mgrwt>
</event>
<event>
 6    1  0.1014650E-006  0.2927871E+04  0.7818608E-02  0.8264633E-01
          1   -1    0    0  501    0  0.00000000000E+00  0.00000000000E+00  0.30977036505E+04  0.30977036505E+04  0.00000000000E+00 0. -1.
         -1   -1    0    0    0  501 -0.00000000000E+00 -0.00000000000E+00 -0.69183757003E+03  0.69183757003E+03  0.00000000000E+00 0.  1.
         23    2    1    2    0    0  0.42308226114E+03 -0.10178279434E+04 -0.39932412471E+02  0.11068368779E+04  0.92309016767E+02 0.  0.
         11    1    3    3    0    0  0.32131037724E+03 -0.74360564988E+03 -0.68500743274E+02  0.81294653753E+03  0.00000000000E+00 0. -1.
        -11    1    3    3    0    0  0.10177188391E+03 -0.27422229352E+03  0.28568330803E+02  0.29389034033E+03  0.00000000000E+00 0.  1.
         22    1    1    2    0    0 -0.42308226114E+03  0.10178279434E+04  0.24457984930E+04  0.26827043427E+04  0.00000000000E+00 0. -1.
<mgrwt>
<rscale>  0 0.29278714E+04</rscale>
<asrwt>0</asrwt>
<pdfrwt beam="1">  1        1 0.47656978E+00 0.29278714E+04</pdfrwt>
<pdfrwt beam="2">  1       -1 0.10643655E+00 0.29278714E+04</pdfrwt>
<totfact> 0.35754331E-01</totfact>
</mgrwt>
</event>
<event>
 6    1  0.1014650E-006  0.2875752E+04  0.7818608E-02  0.8280129E-01
          2   -1    0    0  501    0  0.00000000000E+00  0.00000000000E+00  0.23670202961E+04  0.23670202961E+04  0.00000000000E+00 0. -1.
         -2   -1    0    0    0  501 -0.00000000000E+00 -0.00000000000E+00 -0.87345568129E+03  0.87345568129E+03  0.00000000000E+00 0.  1.
         23    2    1    2    0    0  0.12956731657E+04 -0.38560191037E+03  0.20008378232E+03  0.13695001759E+04  0.89662848241E+02 0.  0.
         13    1    3    3    0    0  0.11418021082E+04 -0.31518188540E+03  0.15684677434E+03  0.11948441680E+04  0.00000000000E+00 0. -1.
        -13    1    3    3    0    0  0.15387105755E+03 -0.70420024967E+02  0.43237007979E+02  0.17465600799E+03  0.00000000000E+00 0.  1.
         22    1    1    2    0    0 -0.12956731657E+04  0.38560191037E+03  0.12934808325E+04  0.18709758014E+04  0.00000000000E+00 0. -1.
<mgrwt>
<rscale>  0 0.28757520E+04</rscale>
<asrwt>0</asrwt>
<pdfrwt beam="1">  1        2 0.36415697E+00 0.28757520E+04</pdfrwt>
<pdfrwt beam="2">  1       -2 0.13437780E+00 0.28757520E+04</pdfrwt>
<totfact> 0.14332004E+00</totfact>
</mgrwt>
</event>
<event>
 6    1  0.1014650E-006  0.1457431E+04  0.7818608E-02  0.8913265E-01
         -2   -1    0    0    0  501 -0.00000000000E+00  0.00000000000E+00  0.46891897587E+03  0.46891897587E+03  0.00000000000E+00 0.  1.
          2   -1    0    0  501    0  0.00000000000E+00 -0.00000000000E+00 -0.11324475295E+04  0.11324475295E+04  0.00000000000E+00 0. -1.
         23    2    1    2    0    0  0.66645699185E+03 -0.28752125328E+03 -0.33241157781E+03  0.80357464983E+03  0.91658975176E+02 0.  0.
         11    1    3    3    0    0  0.23319350267E+03 -0.79801461917E+02 -0.70557328125E+02  0.25637047327E+03  0.00000000000E+00 0. -1.
        -11    1    3    3    0    0  0.43326348918E+03 -0.20771979136E+03 -0.26185424968E+03  0.54720417657E+03  0.00000000000E+00 0.  1.
         22    1    1    2    0    0 -0.66645699185E+03  0.28752125328E+03 -0.33111697582E+03  0.79779185552E+03  0.00000000000E+00 0. -1.
<mgrwt>
<rscale>  0 0.14574308E+04</rscale>
<asrwt>0</asrwt>
<pdfrwt beam="1">  1        2 0.17422270E+00 0.14574308E+04</pdfrwt>
<pdfrwt beam="2">  1       -2 0.72141381E-01 0.14574308E+04</pdfrwt>
<totfact> 0.35098879E+01</totfact>
</mgrwt>
</event>
<event>
 6    1  0.1014650E-006  0.2647926E+04  0.7818608E-02  0.8352102E-01
          2   -1    0    0  501    0  0.00000000000E+00  0.00000000000E+00  0.43060461366E+04  0.43060461366E+04  0.00000000000E+00 0. -1.
         -2   -1    0    0    0  501 -0.00000000000E+00 -0.00000000000E+00 -0.40707359076E+03  0.40707359076E+03  0.00000000000E+00 0.  1.
         23    2    1    2    0    0  0.59548350328E+03 -0.51883316834E+03  0.38396500273E+04  0.39210921897E+04  0.90901970385E+02 0.  0.
         11    1    3    3    0    0  0.34652478915E+01 -0.21306632806E+02  0.93995925491E+02  0.96442804571E+02  0.00000000000E+00 0. -1.
        -11    1    3    3    0    0  0.59201825539E+03 -0.49752653553E+03  0.37456541018E+04  0.38246493851E+04  0.00000000000E+00 0.  1.
         22    1    1    2    0    0 -0.59548350328E+03  0.51883316834E+03  0.59322518502E+02  0.79202753768E+03  0.00000000000E+00 0.  1.
<mgrwt>
<rscale>  0 0.26479257E+04</rscale>
<asrwt>0</asrwt>
<pdfrwt beam="1">  1        2 0.66246861E+00 0.26479257E+04</pdfrwt>
<pdfrwt beam="2">  1       -2 0.62626709E-01 0.26479257E+04</pdfrwt>
<totfact> 0.39132726E-01</totfact>
</mgrwt>
</event>
<event>
 6    1  0.1014650E-006  0.1159372E+04  0.7818608E-02  0.9149181E-01
         -2   -1    0    0    0  501 -0.00000000000E+00  0.00000000000E+00  0.22108901973E+03  0.22108901973E+03  0.00000000000E+00 0.  1.
          2   -1    0    0  501    0  0.00000000000E+00 -0.00000000000E+00 -0.15199120161E+04  0.15199120161E+04  0.00000000000E+00 0. -1.
         23    2    1    2    0    0 -0.51794898650E+03  0.17914390453E+03 -0.38770157252E+03  0.67774850696E+03  0.93095854957E+02 0.  0.
         13    1    3    3    0    0 -0.11229195055E+03  0.81223190595E+02 -0.98308111046E+02  0.16991519516E+03  0.00000000000E+00 0. -1.
        -13    1    3    3    0    0 -0.40565703596E+03  0.97920713935E+02 -0.28939346147E+03  0.50783331181E+03  0.00000000000E+00 0.  1.
         22    1    1    2    0    0  0.51794898650E+03 -0.17914390453E+03 -0.91112142389E+03  0.10632525289E+04  0.00000000000E+00 0.  1.
<mgrwt>
<rscale>  0 0.11593720E+04</rscale>
<asrwt>0</asrwt>
<pdfrwt beam="1">  1        2 0.23383262E+00 0.11593720E+04</pdfrwt>
<pdfrwt beam="2">  1       -2 0.34013695E-01 0.11593720E+04</pdfrwt>
<totfact> 0.98947605E+01</totfact>
</mgrwt>
</event>
<event>
 6    1  0.1014650E-006  0.4159042E+04  0.7818608E-02  0.7973209E-01
          2   -1    0    0  501    0  0.00000000000E+00  0.00000000000E+00  0.28926067965E+04  0.28926067965E+04  0.00000000000E+00 0. -1.
         -2   -1    0    0    0  501 -0.00000000000E+00 -0.00000000000E+00 -0.14949861099E+04  0.14949861099E+04  0.00000000000E+00 0.  1.
         23    2    1    2    0    0  0.65111191479E+03  0.14927567768E+04 -0.66333252855E+03  0.17608463112E+04  0.91105257655E+02 0.  0.
         13    1    3    3    0    0  0.10055311509E+03  0.24701234295E+03 -0.73552838673E+02  0.27665148942E+03  0.00000000000E+00 0.  1.
        -13    1    3    3    0    0  0.55055879970E+03  0.12457444338E+04 -0.58977968988E+03  0.14841948218E+04  0.00000000000E+00 0. -1.
         22    1    1    2    0    0 -0.65111191479E+03 -0.14927567768E+04  0.20609532152E+04  0.26267465952E+04  0.00000000000E+00 0.  1.
<mgrwt>
<rscale>  0 0.41590417E+04</rscale>
<asrwt>0</asrwt>
<pdfrwt beam="1">  1        2 0.44501643E+00 0.41590417E+04</pdfrwt>
<pdfrwt beam="2">  1       -2 0.22999786E+00 0.41590417E+04</pdfrwt>
<totfact> 0.13514319E-01</totfact>
</mgrwt>
</event>
<event>
 6    1  0.1014650E-006  0.2343534E+04  0.7818608E-02  0.8460952E-01
         -1   -1    0    0    0  501 -0.00000000000E+00  0.00000000000E+00  0.70850000360E+03  0.70850000360E+03  0.00000000000E+00 0.  1.
          1   -1    0    0  501    0  0.00000000000E+00 -0.00000000000E+00 -0.19379497869E+04  0.19379497869E+04  0.00000000000E+00 0. -1.
         23    2    1    2    0    0 -0.35044173777E+03  0.70848905566E+03 -0.15897284102E+04  0.17777917205E+04  0.92416610112E+02 0.  0.
         13    1    3    3    0    0 -0.88840353709E+02  0.15658893499E+03 -0.45109076293E+03  0.48569082698E+03  0.00000000000E+00 0. -1.
        -13    1    3    3    0    0 -0.26160138406E+03  0.55190012067E+03 -0.11386376472E+04  0.12921008935E+04  0.00000000000E+00 0.  1.
         22    1    1    2    0    0  0.35044173777E+03 -0.70848905566E+03  0.36027862688E+03  0.86865806999E+03  0.00000000000E+00 0.  1.
<mgrwt>
<rscale>  0 0.23435336E+04</rscale>
<asrwt>0</asrwt>
<pdfrwt beam="1">  1        1 0.29814611E+00 0.23435336E+04</pdfrwt>
<pdfrwt beam="2">  1       -1 0.10900000E+00 0.23435336E+04</pdfrwt>
<totfact> 0.23054049E+00</totfact>
</mgrwt>
</event>
<event>
 6    1  0.1014650E-006  0.3074636E+04  0.7818608E-02  0.8222733E-01
         -2   -1    0    0    0  501 -0.00000000000E+00  0.00000000000E+00  0.71135662446E+03  0.71135662446E+03  0.00000000000E+00 0.  1.
          2   -1    0    0  501    0  0.00000000000E+00 -0.00000000000E+00 -0.33223098936E+04  0.33223098936E+04  0.00000000000E+00 0. -1.
         23    2    1    2    0    0 -0.89851973228E+03 -0.38023490562E+03 -0.28625101796E+04  0.30260965840E+04  0.10667574424E+03 0.  0.
         11    1    3    3    0    0 -0.10565175077E+03 -0.18352800004E+02 -0.39000661392E+03  0.40448025491E+03  0.00000000000E+00 0.  1.
        -11    1    3    3    0    0 -0.79286798150E+03 -0.36188210562E+03 -0.24725035657E+04  0.26216163291E+04  0.00000000000E+00 0. -1.
         22    1    1    2    0    0  0.89851973228E+03  0.38023490562E+03  0.25155691052E+03  0.10075699340E+04  0.00000000000E+00 0.  1.
<mgrwt>
<rscale>  0 0.30746363E+04</rscale>
<asrwt>0</asrwt>
<pdfrwt beam="1">  1        2 0.51112459E+00 0.30746363E+04</pdfrwt>
<pdfrwt beam="2">  1       -2 0.10943948E+00 0.30746363E+04</pdfrwt>
<totfact> 0.60851923E-01</totfact>
</mgrwt>
</event>
<event>
 6    1  0.1014650E-006  0.1792811E+04  0.7818608E-02  0.8710132E-01
         -2   -1    0    0    0  501 -0.00000000000E+00  0.00000000000E+00  0.37908258532E+03  0.37908258532E+03  0.00000000000E+00 0.  1.
          2   -1    0    0  501    0  0.00000000000E+00 -0.00000000000E+00 -0.21197039357E+04  0.21197039357E+04  0.00000000000E+00 0. -1.
         23    2    1    2    0    0 -0.46797043318E+03  0.49397647812E+03 -0.64057587227E+02  0.68940122785E+03  0.90341525385E+02 0.  0.
         13    1    3    3    0    0 -0.28529275854E+03  0.27505965058E+03 -0.78157989817E+02  0.40392875711E+03  0.00000000000E+00 0. -1.
        -13    1    3    3    0    0 -0.18267767464E+03  0.21891682755E+03  0.14100402590E+02  0.28547247073E+03  0.00000000000E+00 0.  1.
         22    1    1    2    0    0  0.46797043318E+03 -0.49397647812E+03 -0.16765637632E+04  0.18093852932E+04  0.00000000000E+00 0. -1.
<mgrwt>
<rscale>  0 0.17928110E+04</rscale>
<asrwt>0</asrwt>
<pdfrwt beam="1">  1        2 0.32610830E+00 0.17928110E+04</pdfrwt>
<pdfrwt beam="2">  1       -2 0.58320397E-01 0.17928110E+04</pdfrwt>
<totfact> 0.14882978E+01</totfact>
</mgrwt>
</event>
<event>
 6    1  0.1014650E-006  0.1107356E+04  0.7818608E-02  0.9198052E-01
         -1   -1    0    0    0  501 -0.00000000000E+00  0.00000000000E+00  0.12709640977E+03  0.12709640977E+03  0.00000000000E+00 0.  1.
          1   -1    0    0  501    0  0.00000000000E+00 -0.00000000000E+00 -0.24120204739E+04  0.24120204739E+04  0.00000000000E+00 0. -1.
         23    2    1    2    0    0 -0.23299753224E+03  0.29628710606E+03 -0.20685128281E+04  0.21044817237E+04  0.89577374020E+02 0.  0.
         13    1    3    3    0    0 -0.11567006744E+03  0.20707277240E+03 -0.11484609594E+04  0.11726982873E+04  0.00000000000E+00 0. -1.
        -13    1    3    3    0    0 -0.11732746480E+03  0.89214333664E+02 -0.92005186867E+03  0.93178343642E+03  0.00000000000E+00 0.  1.
         22    1    1    2    0    0  0.23299753224E+03 -0.29628710606E+03 -0.21641123606E+03  0.43463516004E+03  0.00000000000E+00 0.  1.
<mgrwt>
<rscale>  0 0.11073557E+04</rscale>
<asrwt>0</asrwt>
<pdfrwt beam="1">  1        1 0.37108007E+00 0.11073557E+04</pdfrwt>
<pdfrwt beam="2">  1       -1 0.19553294E-01 0.11073557E+04</pdfrwt>
<totfact> 0.33225099E+01</totfact>
</mgrwt>
</event>
<event>
 6    1  0.1014650E-006  0.3387591E+04  0.7818608E-02  0.8140959E-01
         -2   -1    0    0    0  501 -0.00000000000E+00  0.00000000000E+00  0.11744652811E+04  0.11744652811E+04  0.00000000000E+00 0.  1.
          2   -1    0    0  501    0  0.00000000000E+00 -0.00000000000E+00 -0.24427653295E+04  0.24427653295E+04  0.00000000000E+00 0. -1.
         23    2    1    2    0    0 -0.45017253365E+03  0.11717056711E+04  0.57798990510E+03  0.13846679391E+04  0.87655470010E+02 0.  0.
         13    1    3    3    0    0 -0.66983091471E+02  0.10874561378E+03  0.72135711512E+02  0.14668300493E+03  0.00000000000E+00 0. -1.
        -13    1    3    3    0    0 -0.38318944217E+03  0.10629600573E+04  0.50585419359E+03  0.12379849342E+04  0.00000000000E+00 0.  1.
         22    1    1    2    0    0  0.45017253365E+03 -0.11717056711E+04 -0.18462899535E+04  0.22325626715E+04  0.00000000000E+00 0. -1.
<mgrwt>
<rscale>  0 0.33875909E+04</rscale>
<asrwt>0</asrwt>
<pdfrwt beam="1">  1        2 0.37581005E+00 0.33875909E+04</pdfrwt>
<pdfrwt beam="2">  1       -2 0.18068697E+00 0.33875909E+04</pdfrwt>
<totfact> 0.55870132E-01</totfact>
</mgrwt>
</event>
<event>
 6    1  0.1014650E-006  0.3311384E+04  0.7818608E-02  0.8160005E-01
          2   -1    0    0  501    0  0.00000000000E+00  0.00000000000E+00  0.32821303460E+04  0.32821303460E+04  0.00000000000E+00 0. -1.
         -2   -1    0    0    0  501 -0.00000000000E+00 -0.00000000000E+00 -0.83522464509E+03  0.83522464509E+03  0.00000000000E+00 0.  1.
         23    2    1    2    0    0 -0.44002448302E+03 -0.54872284033E+03 -0.63780055429E+03  0.95347588753E+03  0.87226256875E+02 0.  0.
         13    1    3    3    0    0 -0.27770307739E+03 -0.30659540674E+03 -0.42073642355E+03  0.59003294885E+03  0.00000000000E+00 0.  1.
        -13    1    3    3    0    0 -0.16232140563E+03 -0.24212743359E+03 -0.21706413074E+03  0.36344293868E+03  0.00000000000E+00 0. -1.
         22    1    1    2    0    0  0.44002448302E+03  0.54872284033E+03  0.30847062552E+04  0.31638791035E+04  0.00000000000E+00 0. -1.
<mgrwt>
<rscale>  0 0.33113841E+04</rscale>
<asrwt>0</asrwt>
<pdfrwt beam="1">  1        2 0.50494312E+00 0.33113841E+04</pdfrwt>
<pdfrwt beam="2">  1       -2 0.12849610E+00 0.33113841E+04</pdfrwt>
<totfact> 0.42679836E-01</totfact>
</mgrwt>
</event>
<event>
 6    1  0.1014650E-006  0.1361063E+04  0.7818608E-02  0.8982496E-01
         -2   -1    0    0    0  501 -0.00000000000E+00  0.00000000000E+00  0.30794200999E+03  0.30794200999E+03  0.00000000000E+00 0.  1.
          2   -1    0    0  501    0  0.00000000000E+00 -0.00000000000E+00 -0.15039297943E+04  0.15039297943E+04  0.00000000000E+00 0. -1.
         23    2    1    2    0    0  0.15182025109E+02  0.16024119470E+03 -0.14768567098E+04  0.14881511104E+04  0.87064640716E+02 0.  0.
         11    1    3    3    0    0  0.32819554907E+02  0.98649396799E+02 -0.11738653325E+04  0.11784602859E+04  0.00000000000E+00 0.  1.
        -11    1    3    3    0    0 -0.17637529798E+02  0.61591797902E+02 -0.30299137731E+03  0.30969082446E+03  0.00000000000E+00 0. -1.
         22    1    1    2    0    0 -0.15182025109E+02 -0.16024119470E+03  0.28086892549E+03  0.32372069392E+03  0.00000000000E+00 0.  1.
<mgrwt>
<rscale>  0 0.13610631E+04</rscale>
<asrwt>0</asrwt>
<pdfrwt beam="1">  1        2 0.23137381E+00 0.13610631E+04</pdfrwt>
<pdfrwt beam="2">  1       -2 0.47375694E-01 0.13610631E+04</pdfrwt>
<totfact> 0.52033423E+01</totfact>
</mgrwt>
</event>
<event>
 6    1  0.1014650E-006  0.5539548E+04  0.7818608E-02  0.7750271E-01
         -3   -1    0    0    0  501 -0.00000000000E+00  0.00000000000E+00  0.36388801257E+04  0.36388801257E+04  0.00000000000E+00 0.  1.
          3   -1    0    0  501    0  0.00000000000E+00 -0.00000000000E+00 -0.21082440157E+04  0.21082440157E+04  0.00000000000E+00 0. -1.
         23    2    1    2    0    0 -0.19214161124E+04 -0.13731157689E+04 -0.73438620928E+03  0.24748752360E+04  0.91638078654E+02 0.  0.
         11    1    3    3    0    0 -0.56807792438E+03 -0.43682245849E+03 -0.18749181726E+03  0.74072907999E+03  0.00000000000E+00 0.  1.
        -11    1    3    3    0    0 -0.13533381881E+04 -0.93629331040E+03 -0.54689439203E+03  0.17341461560E+04  0.00000000000E+00 0. -1.
         22    1    1    2    0    0  0.19214161124E+04  0.13731157689E+04  0.22650223192E+04  0.32722489054E+04  0.00000000000E+00 0.  1.
<mgrwt>
<rscale>  0 0.55395477E+04</rscale>
<asrwt>0</asrwt>
<pdfrwt beam="1">  1        3 0.32434523E+00 0.55395477E+04</pdfrwt>
<pdfrwt beam="2">  1       -3 0.55982771E+00 0.55395477E+04</pdfrwt>
<totfact> 0.74923957E-05</totfact>
</mgrwt>
</event>
<event>
 6    1  0.1014650E-006  0.1914056E+04  0.7818608E-02  0.8647891E-01
         -2   -1    0    0    0  501 -0.00000000000E+00  0.00000000000E+00  0.52234997039E+03  0.52234997039E+03  0.00000000000E+00 0.  1.
          2   -1    0    0  501    0  0.00000000000E+00 -0.00000000000E+00 -0.17534264721E+04  0.17534264721E+04  0.00000000000E+00 0. -1.
         23    2    1    2    0    0  0.67938142689E+03 -0.96021623866E+02 -0.14066342403E+04  0.15675393389E+04  0.88206674482E+02 0.  0.
         13    1    3    3    0    0  0.33196930237E+03 -0.91085176058E+02 -0.68710634490E+03  0.76851496812E+03  0.00000000000E+00 0.  1.
        -13    1    3    3    0    0  0.34741212452E+03 -0.49364478082E+01 -0.71952789541E+03  0.79902437075E+03  0.00000000000E+00 0. -1.
         22    1    1    2    0    0 -0.67938142689E+03  0.96021623866E+02  0.17555773856E+03  0.70823710368E+03  0.00000000000E+00 0.  1.
<mgrwt>
<rscale>  0 0.19140557E+04</rscale>
<asrwt>0</asrwt>
<pdfrwt beam="1">  1        2 0.26975792E+00 0.19140557E+04</pdfrwt>
<pdfrwt beam="2">  1       -2 0.80361534E-01 0.19140557E+04</pdfrwt>
<totfact> 0.11722679E+01</totfact>
</mgrwt>
</event>
<event>
 6    1  0.1014650E-006  0.8077358E+03  0.7818608E-02  0.9548887E-01
         -1   -1    0    0    0  501 -0.00000000000E+00  0.00000000000E+00  0.11103126704E+03  0.11103126704E+03  0.00000000000E+00 0.  1.
          1   -1    0    0  501    0  0.00000000000E+00 -0.00000000000E+00 -0.14690393442E+04  0.14690393442E+04  0.00000000000E+00 0. -1.
         23    2    1    2    0    0  0.92919880998E+02  0.17347232622E+03 -0.13659322120E+04  0.13831199978E+04  0.92322088742E+02 0.  0.
         11    1    3    3    0    0  0.74067441072E+02  0.18187731324E+03 -0.12111828984E+04  0.12270001452E+04  0.00000000000E+00 0.  1.
        -11    1    3    3    0    0  0.18852439926E+02 -0.84049870122E+01 -0.15474931366E+03  0.15611985260E+03  0.00000000000E+00 0. -1.
         22    1    1    2    0    0 -0.92919880998E+02 -0.17347232622E+03  0.79241348528E+01  0.19695061351E+03  0.00000000000E+00 0.  1.
<mgrwt>
<rscale>  0 0.80773585E+03</rscale>
<asrwt>0</asrwt>
<pdfrwt beam="1">  1        1 0.22600606E+00 0.80773585E+03</pdfrwt>
<pdfrwt beam="2">  1       -1 0.17081733E-01 0.80773585E+03</pdfrwt>
<totfact> 0.18532890E+02</totfact>
</mgrwt>
</event>
<event>
 6    1  0.1014650E-006  0.3972394E+04  0.7818608E-02  0.8010139E-01
          1   -1    0    0  501    0  0.00000000000E+00  0.00000000000E+00  0.38574252858E+04  0.38574252858E+04  0.00000000000E+00 0. -1.
         -1   -1    0    0    0  501 -0.00000000000E+00 -0.00000000000E+00 -0.10226971014E+04  0.10226971014E+04  0.00000000000E+00 0.  1.
         23    2    1    2    0    0 -0.17368591755E+04  0.34586307916E+03  0.25200165262E+04  0.30814160484E+04  0.91326372602E+02 0.  0.
         11    1    3    3    0    0 -0.12044157028E+04  0.26090663979E+03  0.16884461153E+04  0.20903444080E+04  0.00000000000E+00 0.  1.
        -11    1    3    3    0    0 -0.53244347270E+03  0.84956439369E+02  0.83157041089E+03  0.99107164044E+03  0.00000000000E+00 0. -1.
         22    1    1    2    0    0  0.17368591755E+04 -0.34586307916E+03  0.31471165833E+03  0.17987063388E+04  0.00000000000E+00 0.  1.
<mgrwt>
<rscale>  0 0.39723936E+04</rscale>
<asrwt>0</asrwt>
<pdfrwt beam="1">  1        1 0.59345004E+00 0.39723936E+04</pdfrwt>
<pdfrwt beam="2">  1       -1 0.15733802E+00 0.39723936E+04</pdfrwt>
<totfact> 0.30533421E-02</totfact>
</mgrwt>
</event>
<event>
 6    1  0.1014650E-006  0.9188411E+03  0.7818608E-02  0.9402331E-01
         -2   -1    0    0    0  501 -0.00000000000E+00  0.00000000000E+00  0.44896842262E+03  0.44896842262E+03  0.00000000000E+00 0.  1.
          2   -1    0    0  501    0  0.00000000000E+00 -0.00000000000E+00 -0.47011595723E+03  0.47011595723E+03  0.00000000000E+00 0. -1.
         23    2    1    2    0    0  0.29603425537E+03 -0.36661079468E+02  0.33296152144E+03  0.45607947850E+03  0.90359287609E+02 0.  0.
         13    1    3    3    0    0  0.12708467231E+03 -0.97669992324E+00  0.81281769680E+02  0.15085819156E+03  0.00000000000E+00 0. -1.
        -13    1    3    3    0    0  0.16894958306E+03 -0.35684379545E+02  0.25167975176E+03  0.30522128694E+03  0.00000000000E+00 0.  1.
         22    1    1    2    0    0 -0.29603425537E+03  0.36661079468E+02 -0.35410905604E+03  0.46300490134E+03  0.00000000000E+00 0. -1.
<mgrwt>
<rscale>  0 0.91884105E+03</rscale>
<asrwt>0</asrwt>
<pdfrwt beam="1">  1        2 0.72325532E-01 0.91884105E+03</pdfrwt>
<pdfrwt beam="2">  1       -2 0.69072065E-01 0.91884105E+03</pdfrwt>
<totfact> 0.12698674E+02</totfact>
</mgrwt>
</event>
<event>
 6    1  0.1014650E-006  0.2058641E+04  0.7818608E-02  0.8579684E-01
         -1   -1    0    0    0  501 -0.00000000000E+00  0.00000000000E+00  0.55122609055E+03  0.55122609055E+03  0.00000000000E+00 0.  1.
          1   -1    0    0  501    0  0.00000000000E+00 -0.00000000000E+00 -0.19220801083E+04  0.19220801083E+04  0.00000000000E+00 0. -1.
         23    2    1    2    0    0 -0.69913794431E+02  0.43710191132E+03 -0.18005182937E+04  0.18564128454E+04  0.91959269029E+02 0.  0.
         13    1    3    3    0    0 -0.18121218755E+02  0.35210927053E+03 -0.14072490696E+04  0.14507443817E+04  0.00000000000E+00 0.  1.
        -13    1    3    3    0    0 -0.51792575676E+02  0.84992640795E+02 -0.39326922403E+03  0.40566846372E+03  0.00000000000E+00 0. -1.
         22    1    1    2    0    0  0.69913794431E+02 -0.43710191132E+03  0.42966427592E+03  0.61689335345E+03  0.00000000000E+00 0.  1.
<mgrwt>
<rscale>  0 0.20586410E+04</rscale>
<asrwt>0</asrwt>
<pdfrwt beam="1">  1        1 0.29570463E+00 0.20586410E+04</pdfrwt>
<pdfrwt beam="2">  1       -1 0.84804013E-01 0.20586410E+04</pdfrwt>
<totfact> 0.42741465E+00</totfact>
</mgrwt>
</event>
<event>
 6    1  0.1014650E-006  0.1499717E+04  0.7818608E-02  0.8884641E-01
         -2   -1    0    0    0  501 -0.00000000000E+00  0.00000000000E+00  0.72003274639E+03  0.72003274639E+03  0.00000000000E+00 0.  1.
          2   -1    0    0  501    0  0.00000000000E+00 -0.00000000000E+00 -0.78091923182E+03  0.78091923182E+03  0.00000000000E+00 0. -1.
         23    2    1    2    0    0  0.93373984063E+02 -0.67792493737E+03  0.26945956030E+03  0.74106420260E+03  0.90921813274E+02 0.  0.
         13    1    3    3    0    0 -0.18165979274E+02 -0.10798166475E+03  0.38528002521E+02  0.11607949734E+03  0.00000000000E+00 0.  1.
        -13    1    3    3    0    0  0.11153996334E+03 -0.56994327262E+03  0.23093155778E+03  0.62498470525E+03  0.00000000000E+00 0. -1.
         22    1    1    2    0    0 -0.93373984063E+02  0.67792493737E+03 -0.33034604573E+03  0.75988777562E+03  0.00000000000E+00 0. -1.
<mgrwt>
<rscale>  0 0.14997165E+04</rscale>
<asrwt>0</asrwt>
<pdfrwt beam="1">  1        2 0.12014142E+00 0.14997165E+04</pdfrwt>
<pdfrwt beam="2">  1       -2 0.11077427E+00 0.14997165E+04</pdfrwt>
<totfact> 0.22199615E+01</totfact>
</mgrwt>
</event>
<event>
 6    1  0.1014650E-006  0.1891115E+04  0.7818608E-02  0.8659292E-01
          1   -1    0    0  501    0  0.00000000000E+00  0.00000000000E+00  0.19683860532E+04  0.19683860532E+04  0.00000000000E+00 0. -1.
         -1   -1    0    0    0  501 -0.00000000000E+00 -0.00000000000E+00 -0.45421911193E+03  0.45421911193E+03  0.00000000000E+00 0.  1.
         23    2    1    2    0    0 -0.53417014203E+02 -0.91056805954E+03  0.10670648276E+04  0.14067863483E+04  0.91830904965E+02 0.  0.
         11    1    3    3    0    0 -0.81050058866E+01 -0.11695344710E+03  0.18852992503E+03  0.22200750560E+03  0.00000000000E+00 0.  1.
        -11    1    3    3    0    0 -0.45312008316E+02 -0.79361461244E+03  0.87853490258E+03  0.11847788427E+04  0.00000000000E+00 0. -1.
         22    1    1    2    0    0  0.53417014203E+02  0.91056805954E+03  0.44710211365E+03  0.10158188168E+04  0.00000000000E+00 0.  1.
<mgrwt>
<rscale>  0 0.18911146E+04</rscale>
<asrwt>0</asrwt>
<pdfrwt beam="1">  1        1 0.30282862E+00 0.18911146E+04</pdfrwt>
<pdfrwt beam="2">  1       -1 0.69879864E-01 0.18911146E+04</pdfrwt>
<totfact> 0.60698690E+00</totfact>
</mgrwt>
</event>
<event>
 6    1  0.1014650E-006  0.2933691E+04  0.7818608E-02  0.8262924E-01
          2   -1    0    0  501    0  0.00000000000E+00  0.00000000000E+00  0.22562677345E+04  0.22562677345E+04  0.00000000000E+00 0. -1.
         -2   -1    0    0    0  501 -0.00000000000E+00 -0.00000000000E+00 -0.95362578247E+03  0.95362578247E+03  0.00000000000E+00 0.  1.
         23    2    1    2    0    0 -0.41856492332E+03  0.12010717397E+04  0.14483512269E+04  0.19296587293E+04  0.89953411222E+02 0.  0.
         11    1    3    3    0    0 -0.39145208451E+02  0.11503855405E+03  0.18146579489E+03  0.21839425582E+03  0.00000000000E+00 0. -1.
        -11    1    3    3    0    0 -0.37941971487E+03  0.10860331856E+04  0.12668854320E+04  0.17112644735E+04  0.00000000000E+00 0.  1.
         22    1    1    2    0    0  0.41856492332E+03 -0.12010717397E+04 -0.14570927485E+03  0.12802347877E+04  0.00000000000E+00 0.  1.
<mgrwt>
<rscale>  0 0.29336906E+04</rscale>
<asrwt>0</asrwt>
<pdfrwt beam="1">  1        2 0.34711811E+00 0.29336906E+04</pdfrwt>
<pdfrwt beam="2">  1       -2 0.14671166E+00 0.29336906E+04</pdfrwt>
<totfact> 0.13124183E+00</totfact>
</mgrwt>
</event>
<event>
 6    1  0.1014650E-006  0.1623030E+04  0.7818608E-02  0.8806523E-01
         -2   -1    0    0    0  501 -0.00000000000E+00  0.00000000000E+00  0.61503119501E+03  0.61503119501E+03  0.00000000000E+00 0.  1.
          2   -1    0    0  501    0  0.00000000000E+00 -0.00000000000E+00 -0.10707697391E+04  0.10707697391E+04  0.00000000000E+00 0. -1.
         23    2    1    2    0    0  0.73234039598E+03 -0.17301545076E+03 -0.53678417793E+03  0.92894877119E+03  0.92475748256E+02 0.  0.
         11    1    3    3    0    0  0.48684290324E+03 -0.10543023963E+03 -0.30155868414E+03  0.58229647762E+03  0.00000000000E+00 0. -1.
        -11    1    3    3    0    0  0.24549749274E+03 -0.67585211135E+02 -0.23522549379E+03  0.34665229357E+03  0.00000000000E+00 0.  1.
         22    1    1    2    0    0 -0.73234039598E+03  0.17301545076E+03  0.81045633822E+02  0.75685216294E+03  0.00000000000E+00 0.  1.
<mgrwt>
<rscale>  0 0.16230302E+04</rscale>
<asrwt>0</asrwt>
<pdfrwt beam="1">  1        2 0.16473381E+00 0.16230302E+04</pdfrwt>
<pdfrwt beam="2">  1       -2 0.94620184E-01 0.16230302E+04</pdfrwt>
<totfact> 0.20461514E+01</totfact>
</mgrwt>
</event>
<event>
 6    1  0.1014650E-006  0.2269286E+04  0.7818608E-02  0.8490131E-01
          2   -1    0    0  501    0  0.00000000000E+00  0.00000000000E+00  0.27059150681E+04  0.27059150681E+04  0.00000000000E+00 0. -1.
         -2   -1    0    0    0  501 -0.00000000000E+00 -0.00000000000E+00 -0.47577775802E+03  0.47577775802E+03  0.00000000000E+00 0.  1.
         23    2    1    2    0    0  0.10726074520E+04 -0.98096791812E+02  0.16090282226E+04  0.19383560957E+04  0.90237496168E+02 0.  0.
         13    1    3    3    0    0  0.85512908623E+03 -0.11067000894E+03  0.12547611439E+04  0.15224713899E+04  0.00000000000E+00 0. -1.
        -13    1    3    3    0    0  0.21747836580E+03  0.12573217127E+02  0.35426707874E+03  0.41588470573E+03  0.00000000000E+00 0.  1.
         22    1    1    2    0    0 -0.10726074520E+04  0.98096791812E+02  0.62110908742E+03  0.12433367304E+04  0.00000000000E+00 0.  1.
<mgrwt>
<rscale>  0 0.22692855E+04</rscale>
<asrwt>0</asrwt>
<pdfrwt beam="1">  1        2 0.41629462E+00 0.22692855E+04</pdfrwt>
<pdfrwt beam="2">  1       -2 0.73196580E-01 0.22692855E+04</pdfrwt>
<totfact> 0.40355141E+00</totfact>
</mgrwt>
</event>
<event>
 6    1  0.1014650E-006  0.1287569E+04  0.7818608E-02  0.9039482E-01
         -1   -1    0    0    0  501 -0.00000000000E+00  0.00000000000E+00  0.12294386484E+04  0.12294386484E+04  0.00000000000E+00 0.  1.
          1   -1    0    0  501    0  0.00000000000E+00 -0.00000000000E+00 -0.33711186032E+03  0.33711186032E+03  0.00000000000E+00 0. -1.
         23    2    1    2    0    0  0.39096561762E+03  0.46648988344E+03  0.69489945823E+03  0.92667202333E+03  0.73272479563E+02 0.  0.
         13    1    3    3    0    0  0.14109229212E+03  0.17688462589E+03  0.20661727574E+03  0.30640806844E+03  0.00000000000E+00 0.  1.
        -13    1    3    3    0    0  0.24987332550E+03  0.28960525756E+03  0.48828218249E+03  0.62026395489E+03  0.00000000000E+00 0. -1.
         22    1    1    2    0    0 -0.39096561762E+03 -0.46648988344E+03  0.19742732989E+03  0.63987848542E+03  0.00000000000E+00 0. -1.
<mgrwt>
<rscale>  0 0.12875688E+04</rscale>
<asrwt>0</asrwt>
<pdfrwt beam="1">  1        1 0.51863364E-01 0.12875688E+04</pdfrwt>
<pdfrwt beam="2">  1       -1 0.18914440E+00 0.12875688E+04</pdfrwt>
<totfact> 0.13257676E+01</totfact>
</mgrwt>
</event>
<event>
 6    1  0.1014650E-006  0.1094046E+04  0.7818608E-02  0.9211014E-01
         -1   -1    0    0    0  501 -0.00000000000E+00  0.00000000000E+00  0.20829832114E+03  0.20829832114E+03  0.00000000000E+00 0.  1.
          1   -1    0    0  501    0  0.00000000000E+00 -0.00000000000E+00 -0.14365657048E+04  0.14365657048E+04  0.00000000000E+00 0. -1.
         23    2    1    2    0    0 -0.58798571370E+02  0.45899622501E+03 -0.19044263934E+03  0.50854760588E+03  0.90650217862E+02 0.  0.
         11    1    3    3    0    0 -0.55469058156E+02  0.21925133599E+03 -0.13161376909E+03  0.26166801287E+03  0.00000000000E+00 0. -1.
        -11    1    3    3    0    0 -0.33295132149E+01  0.23974488902E+03 -0.58828870253E+02  0.24687959301E+03  0.00000000000E+00 0.  1.
         22    1    1    2    0    0  0.58798571370E+02 -0.45899622501E+03 -0.10378247443E+04  0.11363164201E+04  0.00000000000E+00 0. -1.
<mgrwt>
<rscale>  0 0.10940461E+04</rscale>
<asrwt>0</asrwt>
<pdfrwt beam="1">  1        1 0.22101010E+00 0.10940461E+04</pdfrwt>
<pdfrwt beam="2">  1       -1 0.32045897E-01 0.10940461E+04</pdfrwt>
<totfact> 0.65539413E+01</totfact>
</mgrwt>
</event>
<event>
 6    1  0.1014650E-006  0.1197856E+04  0.7818608E-02  0.9114736E-01
          2   -1    0    0  501    0  0.00000000000E+00  0.00000000000E+00  0.10871137644E+04  0.10871137644E+04  0.00000000000E+00 0. -1.
         -2   -1    0    0    0  501 -0.00000000000E+00 -0.00000000000E+00 -0.32996961347E+03  0.32996961347E+03  0.00000000000E+00 0.  1.
         23    2    1    2    0    0 -0.42957966689E+03  0.40939053578E+03  0.43472638611E+03  0.74173715847E+03  0.95119296086E+02 0.  0.
         13    1    3    3    0    0 -0.17844546204E+03  0.12162081699E+03  0.12150238352E+03  0.24778465499E+03  0.00000000000E+00 0.  1.
        -13    1    3    3    0    0 -0.25113420485E+03  0.28776971879E+03  0.31322400258E+03  0.49395250348E+03  0.00000000000E+00 0. -1.
         22    1    1    2    0    0  0.42957966689E+03 -0.40939053578E+03  0.32241776482E+03  0.67534621940E+03  0.00000000000E+00 0.  1.
<mgrwt>
<rscale>  0 0.11978556E+04</rscale>
<asrwt>0</asrwt>
<pdfrwt beam="1">  1        2 0.16724827E+00 0.11978556E+04</pdfrwt>
<pdfrwt beam="2">  1       -2 0.50764557E-01 0.11978556E+04</pdfrwt>
<totfact> 0.80321765E+01</totfact>
</mgrwt>
</event>
<event>
 6    1  0.1014650E-006  0.2437749E+04  0.7818608E-02  0.8425505E-01
          1   -1    0    0  501    0  0.00000000000E+00  0.00000000000E+00  0.42660294857E+04  0.42660294857E+04  0.00000000000E+00 0. -1.
         -1   -1    0    0    0  501 -0.00000000000E+00 -0.00000000000E+00 -0.34825244559E+03  0.34825244559E+03  0.00000000000E+00 0.  1.
         23    2    1    2    0    0  0.57323535339E+03 -0.36535605604E+03  0.38727426857E+04  0.39330243360E+04  0.91982060982E+02 0.  0.
         13    1    3    3    0    0  0.33691501262E+03 -0.20565423430E+03  0.19861792827E+04  0.20250218599E+04  0.00000000000E+00 0. -1.
        -13    1    3    3    0    0  0.23632034077E+03 -0.15970182175E+03  0.18865634030E+04  0.19080024761E+04  0.00000000000E+00 0.  1.
         22    1    1    2    0    0 -0.57323535339E+03  0.36535605604E+03  0.45034354360E+02  0.68125759529E+03  0.00000000000E+00 0.  1.
<mgrwt>
<rscale>  0 0.24377491E+04</rscale>
<asrwt>0</asrwt>
<pdfrwt beam="1">  1        1 0.65631219E+00 0.24377491E+04</pdfrwt>
<pdfrwt beam="2">  1       -1 0.53577302E-01 0.24377491E+04</pdfrwt>
<totfact> 0.17291346E-01</totfact>
</mgrwt>
</event>
<event>
 6    1  0.1014650E-006  0.2756556E+04  0.7818608E-02  0.8316884E-01
         -2   -1    0    0    0  501 -0.00000000000E+00  0.00000000000E+00  0.18001158933E+04  0.18001158933E+04  0.00000000000E+00 0.  1.
          2   -1    0    0  501    0  0.00000000000E+00 -0.00000000000E+00 -0.10552930667E+04  0.10552930667E+04  0.00000000000E+00 0. -1.
         23    2    1    2    0    0  0.10070448018E+04  0.61602505769E+03  0.11066416951E+04  0.16206867247E+04  0.91342836356E+02 0.  0.
         13    1    3    3    0    0  0.37909113843E+03  0.26579657431E+03  0.38742808181E+03  0.60370392472E+03  0.00000000000E+00 0.  1.
        -13    1    3    3    0    0  0.62795366341E+03  0.35022848338E+03  0.71921361328E+03  0.10169828000E+04  0.00000000000E+00 0. -1.
         22    1    1    2    0    0 -0.10070448018E+04 -0.61602505769E+03 -0.36181886853E+03  0.12347222353E+04  0.00000000000E+00 0. -1.
<mgrwt>
<rscale>  0 0.27565557E+04</rscale>
<asrwt>0</asrwt>
<pdfrwt beam="1">  1        2 0.16235278E+00 0.27565557E+04</pdfrwt>
<pdfrwt beam="2">  1       -2 0.27694091E+00 0.27565557E+04</pdfrwt>
<totfact> 0.89174643E-01</totfact>
</mgrwt>
</event>
<event>
 6    1  0.1014650E-006  0.3010324E+04  0.7818608E-02  0.8240789E-01
          1   -1    0    0  501    0  0.00000000000E+00  0.00000000000E+00  0.24163734674E+04  0.24163734674E+04  0.00000000000E+00 0. -1.
         -1   -1    0    0    0  501 -0.00000000000E+00 -0.00000000000E+00 -0.93756700600E+03  0.93756700600E+03  0.00000000000E+00 0.  1.
         23    2    1    2    0    0 -0.13443496508E+04  0.62036278539E+03  0.10328300528E+04  0.18076478342E+04  0.93417373177E+02 0.  0.
         13    1    3    3    0    0 -0.10335859798E+04  0.51641909150E+03  0.78654049134E+03  0.13977247942E+04  0.00000000000E+00 0.  1.
        -13    1    3    3    0    0 -0.31076367092E+03  0.10394369389E+03  0.24628956144E+03  0.40992304002E+03  0.00000000000E+00 0. -1.
         22    1    1    2    0    0  0.13443496508E+04 -0.62036278539E+03  0.44597640863E+03  0.15462926392E+04  0.00000000000E+00 0.  1.
<mgrwt>
<rscale>  0 0.30103236E+04</rscale>
<asrwt>0</asrwt>
<pdfrwt beam="1">  1        1 0.37174976E+00 0.30103236E+04</pdfrwt>
<pdfrwt beam="2">  1       -1 0.14424108E+00 0.30103236E+04</pdfrwt>
<totfact> 0.50979016E-01</totfact>
</mgrwt>
</event>
<event>
 6    1  0.1014650E-006  0.3186973E+04  0.7818608E-02  0.8192266E-01
         -1   -1    0    0    0  501 -0.00000000000E+00  0.00000000000E+00  0.11779398083E+04  0.11779398083E+04  0.00000000000E+00 0.  1.
          1   -1    0    0  501    0  0.00000000000E+00 -0.00000000000E+00 -0.21556271946E+04  0.21556271946E+04  0.00000000000E+00 0. -1.
         23    2    1    2    0    0  0.13937804620E+04 -0.64920963526E+03 -0.92163387892E+03  0.17949835237E+04  0.91976718247E+02 0.  0.
         11    1    3    3    0    0  0.32467977236E+03 -0.14054320445E+03 -0.25658085240E+03  0.43703899221E+03  0.00000000000E+00 0.  1.
        -11    1    3    3    0    0  0.10691006896E+04 -0.50866643081E+03 -0.66505302652E+03  0.13579445315E+04  0.00000000000E+00 0. -1.
         22    1    1    2    0    0 -0.13937804620E+04  0.64920963526E+03 -0.56053507441E+02  0.15385834792E+04  0.00000000000E+00 0.  1.
<mgrwt>
<rscale>  0 0.31869729E+04</rscale>
<asrwt>0</asrwt>
<pdfrwt beam="1">  1        1 0.33163495E+00 0.31869729E+04</pdfrwt>
<pdfrwt beam="2">  1       -1 0.18122151E+00 0.31869729E+04</pdfrwt>
<totfact> 0.39897781E-01</totfact>
</mgrwt>
</event>
<event>
 6    1  0.1014650E-006  0.4035948E+04  0.7818608E-02  0.7997334E-01
         -1   -1    0    0    0  501 -0.00000000000E+00  0.00000000000E+00  0.23220210633E+04  0.23220210633E+04  0.00000000000E+00 0.  1.
          1   -1    0    0  501    0  0.00000000000E+00 -0.00000000000E+00 -0.17537392923E+04  0.17537392923E+04  0.00000000000E+00 0. -1.
         23    2    1    2    0    0 -0.19650401725E+04 -0.25425642321E+03 -0.96034169043E+02  0.19859410150E+04  0.93327086579E+02 0.  0.
         13    1    3    3    0    0 -0.12852202542E+04 -0.21050150190E+03 -0.69497995823E+02  0.13041978207E+04  0.00000000000E+00 0.  1.
        -13    1    3    3    0    0 -0.67981991832E+03 -0.43754921308E+02 -0.26536173219E+02  0.68174319430E+03  0.00000000000E+00 0. -1.
         22    1    1    2    0    0  0.19650401725E+04  0.25425642321E+03  0.66431594004E+03  0.20898193406E+04  0.00000000000E+00 0.  1.
<mgrwt>
<rscale>  0 0.40359483E+04</rscale>
<asrwt>0</asrwt>
<pdfrwt beam="1">  1        1 0.26980604E+00 0.40359483E+04</pdfrwt>
<pdfrwt beam="2">  1       -1 0.35723401E+00 0.40359483E+04</pdfrwt>
<totfact> 0.47526420E-02</totfact>
</mgrwt>
</event>
<event>
 6    1  0.1014650E-006  0.2771830E+04  0.7818608E-02  0.8312068E-01
          1   -1    0    0  501    0  0.00000000000E+00  0.00000000000E+00  0.44701396929E+04  0.44701396929E+04  0.00000000000E+00 0. -1.
         -1   -1    0    0    0  501 -0.00000000000E+00 -0.00000000000E+00 -0.42968685556E+03  0.42968685556E+03  0.00000000000E+00 0.  1.
         23    2    1    2    0    0  0.95222705260E+02  0.79056155313E+03  0.20657032713E+02  0.80192303034E+03  0.92730257785E+02 0.  0.
         13    1    3    3    0    0  0.41037696607E+02  0.35640716683E+03  0.55438456120E+02  0.36302008695E+03  0.00000000000E+00 0.  1.
        -13    1    3    3    0    0  0.54185008654E+02  0.43415438630E+03 -0.34781423408E+02  0.43890294340E+03  0.00000000000E+00 0. -1.
         22    1    1    2    0    0 -0.95222705260E+02 -0.79056155313E+03  0.40197958046E+04  0.40979035181E+04  0.00000000000E+00 0. -1.
<mgrwt>
<rscale>  0 0.27718299E+04</rscale>
<asrwt>0</asrwt>
<pdfrwt beam="1">  1        1 0.68771377E+00 0.27718299E+04</pdfrwt>
<pdfrwt beam="2">  1       -1 0.66105673E-01 0.27718299E+04</pdfrwt>
<totfact> 0.69668367E-02</totfact>
</mgrwt>
</event>
<event>
 6    1  0.1014650E-006  0.2694198E+04  0.7818608E-02  0.8336890E-01
         -2   -1    0    0    0  501 -0.00000000000E+00  0.00000000000E+00  0.60920898257E+03  0.60920898257E+03  0.00000000000E+00 0.  1.
          2   -1    0    0  501    0  0.00000000000E+00 -0.00000000000E+00 -0.29787410803E+04  0.29787410803E+04  0.00000000000E+00 0. -1.
         23    2    1    2    0    0  0.19625092068E+03 -0.92520938954E+03 -0.24607472086E+04  0.26377674305E+04  0.89517340800E+02 0.  0.
         11    1    3    3    0    0  0.12071176551E+03 -0.52157892301E+03 -0.12711055158E+04  0.13792480327E+04  0.00000000000E+00 0. -1.
        -11    1    3    3    0    0  0.75539155167E+02 -0.40363046653E+03 -0.11896416928E+04  0.12585193978E+04  0.00000000000E+00 0.  1.
         22    1    1    2    0    0 -0.19625092068E+03  0.92520938954E+03  0.91215110907E+02  0.95018263235E+03  0.00000000000E+00 0.  1.
<mgrwt>
<rscale>  0 0.26941981E+04</rscale>
<asrwt>0</asrwt>
<pdfrwt beam="1">  1        2 0.45826787E+00 0.26941981E+04</pdfrwt>
<pdfrwt beam="2">  1       -2 0.93724457E-01 0.26941981E+04</pdfrwt>
<totfact> 0.15153241E+00</totfact>
</mgrwt>
</event>
<event>
 6    1  0.1014650E-006  0.9464909E+03  0.7818608E-02  0.9369262E-01
         -2   -1    0    0    0  501 -0.00000000000E+00  0.00000000000E+00  0.24462804230E+03  0.24462804230E+03  0.00000000000E+00 0.  1.
          2   -1    0    0  501    0  0.00000000000E+00 -0.00000000000E+00 -0.91551752267E+03  0.91551752267E+03  0.00000000000E+00 0. -1.
         23    2    1    2    0    0 -0.27256486108E+03 -0.25200697545E+03 -0.68984486853E+03  0.78844887960E+03  0.89255666144E+02 0.  0.
         13    1    3    3    0    0 -0.67959800162E+02 -0.12039280247E+03 -0.26414792326E+03  0.29813937460E+03  0.00000000000E+00 0.  1.
        -13    1    3    3    0    0 -0.20460506092E+03 -0.13161417297E+03 -0.42569694527E+03  0.49030950500E+03  0.00000000000E+00 0. -1.
         22    1    1    2    0    0  0.27256486108E+03  0.25200697545E+03  0.18955388151E+02  0.37169668537E+03  0.00000000000E+00 0.  1.
<mgrwt>
<rscale>  0 0.94649091E+03</rscale>
<asrwt>0</asrwt>
<pdfrwt beam="1">  1        2 0.14084885E+00 0.94649091E+03</pdfrwt>
<pdfrwt beam="2">  1       -2 0.37635083E-01 0.94649091E+03</pdfrwt>
<totfact> 0.19062785E+02</totfact>
</mgrwt>
</event>
<event>
 6    1  0.1014650E-006  0.3306453E+04  0.7818608E-02  0.8161255E-01
          2   -1    0    0  501    0  0.00000000000E+00  0.00000000000E+00  0.37324075322E+04  0.37324075322E+04  0.00000000000E+00 0. -1.
         -2   -1    0    0    0  501 -0.00000000000E+00 -0.00000000000E+00 -0.73227757906E+03  0.73227757906E+03  0.00000000000E+00 0.  1.
         23    2    1    2    0    0 -0.17949725255E+03 -0.16109532623E+04  0.19316726480E+04  0.25232962554E+04  0.90967557008E+02 0.  0.
         11    1    3    3    0    0 -0.14462242208E+02 -0.92751802733E+02  0.14702116238E+03  0.17443415820E+03  0.00000000000E+00 0. -1.
        -11    1    3    3    0    0 -0.16503501034E+03 -0.15182014595E+04  0.17846514857E+04  0.23488620972E+04  0.00000000000E+00 0.  1.
         22    1    1    2    0    0  0.17949725255E+03  0.16109532623E+04  0.10684573051E+04  0.19413888558E+04  0.00000000000E+00 0.  1.
<mgrwt>
<rscale>  0 0.33064533E+04</rscale>
<asrwt>0</asrwt>
<pdfrwt beam="1">  1        2 0.57421653E+00 0.33064533E+04</pdfrwt>
<pdfrwt beam="2">  1       -2 0.11265809E+00 0.33064533E+04</pdfrwt>
<totfact> 0.28531003E-01</totfact>
</mgrwt>
</event>
<event>
 6    1  0.1014650E-006  0.1656979E+04  0.7818608E-02  0.8786289E-01
          2   -1    0    0  501    0  0.00000000000E+00  0.00000000000E+00  0.30980829769E+04  0.30980829769E+04  0.00000000000E+00 0. -1.
         -2   -1    0    0    0  501 -0.00000000000E+00 -0.00000000000E+00 -0.22155463597E+03  0.22155463597E+03  0.00000000000E+00 0.  1.
         23    2    1    2    0    0  0.41267535385E+03  0.42682145964E+03  0.25937507032E+04  0.26620353786E+04  0.80075843077E+02 0.  0.
         11    1    3    3    0    0  0.10925145026E+03  0.96903683057E+02  0.50262860013E+03  0.52341351993E+03  0.00000000000E+00 0. -1.
        -11    1    3    3    0    0  0.30342390359E+03  0.32991777658E+03  0.20911221031E+04  0.21386218587E+04  0.00000000000E+00 0.  1.
         22    1    1    2    0    0 -0.41267535385E+03 -0.42682145964E+03  0.28277763773E+03  0.65760223424E+03  0.00000000000E+00 0.  1.
<mgrwt>
<rscale>  0 0.16569788E+04</rscale>
<asrwt>0</asrwt>
<pdfrwt beam="1">  1        2 0.47662812E+00 0.16569788E+04</pdfrwt>
<pdfrwt beam="2">  1       -2 0.34085331E-01 0.16569788E+04</pdfrwt>
<totfact> 0.11683212E+01</totfact>
</mgrwt>
</event>
<event>
 6    1  0.1014650E-006  0.2795831E+04  0.7818608E-02  0.8304564E-01
         -1   -1    0    0    0  501 -0.00000000000E+00  0.00000000000E+00  0.99489059444E+03  0.99489059444E+03  0.00000000000E+00 0.  1.
          1   -1    0    0  501    0  0.00000000000E+00 -0.00000000000E+00 -0.19642039983E+04  0.19642039983E+04  0.00000000000E+00 0. -1.
         23    2    1    2    0    0 -0.69325125858E+03 -0.99355764177E+03  0.24987046521E+03  0.12403266033E+04  0.90668287368E+02 0.  0.
         11    1    3    3    0    0 -0.31679108158E+03 -0.48398970167E+03  0.16207494171E+03  0.60072531779E+03  0.00000000000E+00 0. -1.
        -11    1    3    3    0    0 -0.37646017700E+03 -0.50956794010E+03  0.87795523498E+02  0.63960128548E+03  0.00000000000E+00 0.  1.
         22    1    1    2    0    0  0.69325125858E+03  0.99355764177E+03 -0.12191838691E+04  0.17187679895E+04  0.00000000000E+00 0. -1.
<mgrwt>
<rscale>  0 0.27958312E+04</rscale>
<asrwt>0</asrwt>
<pdfrwt beam="1">  1        1 0.30218523E+00 0.27958312E+04</pdfrwt>
<pdfrwt beam="2">  1       -1 0.15306009E+00 0.27958312E+04</pdfrwt>
<totfact> 0.90142246E-01</totfact>
</mgrwt>
</event>
<event>
 6    1  0.1014650E-006  0.2761924E+04  0.7818608E-02  0.8315188E-01
         -1   -1    0    0    0  501 -0.00000000000E+00  0.00000000000E+00  0.95773493197E+03  0.95773493197E+03  0.00000000000E+00 0.  1.
          1   -1    0    0  501    0  0.00000000000E+00 -0.00000000000E+00 -0.19912141672E+04  0.19912141672E+04  0.00000000000E+00 0. -1.
         23    2    1    2    0    0 -0.26817685491E+03  0.12640469176E+04 -0.16929973836E+01  0.12953722863E+04  0.90846345490E+02 0.  0.
         11    1    3    3    0    0 -0.24507658219E+03  0.10522400745E+04 -0.27491921370E+02  0.10807532148E+04  0.00000000000E+00 0.  1.
        -11    1    3    3    0    0 -0.23100272724E+02  0.21180684306E+03  0.25798923987E+02  0.21461907148E+03  0.00000000000E+00 0. -1.
         22    1    1    2    0    0  0.26817685491E+03 -0.12640469176E+04 -0.10317862378E+04  0.16535768128E+04  0.00000000000E+00 0. -1.
<mgrwt>
<rscale>  0 0.27619235E+04</rscale>
<asrwt>0</asrwt>
<pdfrwt beam="1">  1        1 0.30634064E+00 0.27619235E+04</pdfrwt>
<pdfrwt beam="2">  1       -1 0.14734384E+00 0.27619235E+04</pdfrwt>
<totfact> 0.96049618E-01</totfact>
</mgrwt>
</event>
<event>
 6    1  0.1014650E-006  0.1267032E+04  0.7818608E-02  0.9056126E-01
          2   -1    0    0  501    0  0.00000000000E+00  0.00000000000E+00  0.82527691889E+03  0.82527691889E+03  0.00000000000E+00 0. -1.
         -2   -1    0    0    0  501 -0.00000000000E+00 -0.00000000000E+00 -0.48631233698E+03  0.48631233698E+03  0.00000000000E+00 0.  1.
         23    2    1    2    0    0 -0.11184462063E+03  0.64716048831E+02  0.80768703756E+03  0.82538135119E+03  0.11044744503E+03 0.  0.
         11    1    3    3    0    0 -0.37493040995E+02  0.35414827369E+01  0.53262059411E+03  0.53395034179E+03  0.00000000000E+00 0.  1.
        -11    1    3    3    0    0 -0.74351579638E+02  0.61174566094E+02  0.27506644345E+03  0.29143100940E+03  0.00000000000E+00 0. -1.
         22    1    1    2    0    0  0.11184462063E+03 -0.64716048831E+02 -0.46872245565E+03  0.48620790468E+03  0.00000000000E+00 0.  1.
<mgrwt>
<rscale>  0 0.12670317E+04</rscale>
<asrwt>0</asrwt>
<pdfrwt beam="1">  1        2 0.12696568E+00 0.12670317E+04</pdfrwt>
<pdfrwt beam="2">  1       -2 0.74817283E-01 0.12670317E+04</pdfrwt>
<totfact> 0.52128538E+01</totfact>
</mgrwt>
</event>
<event>
 6    1  0.1014650E-006  0.2511112E+04  0.7818608E-02  0.8399038E-01
         -2   -1    0    0    0  501 -0.00000000000E+00  0.00000000000E+00  0.48614562614E+03  0.48614562614E+03  0.00000000000E+00 0.  1.
          2   -1    0    0  501    0  0.00000000000E+00 -0.00000000000E+00 -0.32426926444E+04  0.32426926444E+04  0.00000000000E+00 0. -1.
         23    2    1    2    0    0  0.23726645448E+02  0.82932125153E+03 -0.27760680204E+04  0.28989480601E+04  0.94918433956E+02 0.  0.
         13    1    3    3    0    0  0.19907953067E+02  0.54804897790E+03 -0.16737622213E+04  0.17613159802E+04  0.00000000000E+00 0. -1.
        -13    1    3    3    0    0  0.38186923812E+01  0.28127227363E+03 -0.11023057991E+04  0.11376320799E+04  0.00000000000E+00 0.  1.
         22    1    1    2    0    0 -0.23726645448E+02 -0.82932125153E+03  0.19521002125E+02  0.82989021049E+03  0.00000000000E+00 0.  1.
<mgrwt>
<rscale>  0 0.25111120E+04</rscale>
<asrwt>0</asrwt>
<pdfrwt beam="1">  1        2 0.49887580E+00 0.25111120E+04</pdfrwt>
<pdfrwt beam="2">  1       -2 0.74791634E-01 0.25111120E+04</pdfrwt>
<totfact> 0.17415382E+00</totfact>
</mgrwt>
</event>
<event>
 6    1  0.1014650E-006  0.1355173E+04  0.7818608E-02  0.8986921E-01
          2   -1    0    0  501    0  0.00000000000E+00  0.00000000000E+00  0.13156603932E+04  0.13156603932E+04  0.00000000000E+00 0. -1.
         -2   -1    0    0    0  501 -0.00000000000E+00 -0.00000000000E+00 -0.34896822491E+03  0.34896822491E+03  0.00000000000E+00 0.  1.
         23    2    1    2    0    0 -0.55860434121E+03  0.37776827221E+03  0.45956888296E+03  0.82087408982E+03  0.88786460991E+02 0.  0.
         11    1    3    3    0    0 -0.45174167577E+03  0.30323587156E+03  0.41084551672E+03  0.68177457714E+03  0.00000000000E+00 0. -1.
        -11    1    3    3    0    0 -0.10686266544E+03  0.74532400640E+02  0.48723366245E+02  0.13909951269E+03  0.00000000000E+00 0.  1.
         22    1    1    2    0    0  0.55860434121E+03 -0.37776827221E+03  0.50712328537E+03  0.84375452833E+03  0.00000000000E+00 0.  1.
<mgrwt>
<rscale>  0 0.13551733E+04</rscale>
<asrwt>0</asrwt>
<pdfrwt beam="1">  1        2 0.20240929E+00 0.13551733E+04</pdfrwt>
<pdfrwt beam="2">  1       -2 0.53687420E-01 0.13551733E+04</pdfrwt>
<totfact> 0.51658699E+01</totfact>
</mgrwt>
</event>
<event>
 6    1  0.1014650E-006  0.2488567E+04  0.7818608E-02  0.8407070E-01
          2   -1    0    0  501    0  0.00000000000E+00  0.00000000000E+00  0.14802821177E+04  0.14802821177E+04  0.00000000000E+00 0. -1.
         -2   -1    0    0    0  501 -0.00000000000E+00 -0.00000000000E+00 -0.10459098976E+04  0.10459098976E+04  0.00000000000E+00 0.  1.
         23    2    1    2    0    0  0.41899822175E+03 -0.11676304729E+04  0.14454759305E+03  0.12522537336E+04  0.91241305352E+02 0.  0.
         11    1    3    3    0    0  0.27359620591E+03 -0.63179599390E+03  0.90587627109E+02  0.69442579155E+03  0.00000000000E+00 0. -1.
        -11    1    3    3    0    0  0.14540201583E+03 -0.53583447896E+03  0.53959965941E+02  0.55782794209E+03  0.00000000000E+00 0.  1.
         22    1    1    2    0    0 -0.41899822175E+03  0.11676304729E+04  0.28982462706E+03  0.12739382816E+04  0.00000000000E+00 0.  1.
<mgrwt>
<rscale>  0 0.24885672E+04</rscale>
<asrwt>0</asrwt>
<pdfrwt beam="1">  1        2 0.22773571E+00 0.24885672E+04</pdfrwt>
<pdfrwt beam="2">  1       -2 0.16090921E+00 0.24885672E+04</pdfrwt>
<totfact> 0.28842501E+00</totfact>
</mgrwt>
</event>
<event>
 6    1  0.1014650E-006  0.1538749E+04  0.7818608E-02  0.8859086E-01
         -1   -1    0    0    0  501 -0.00000000000E+00  0.00000000000E+00  0.18197776196E+04  0.18197776196E+04  0.00000000000E+00 0.  1.
          1   -1    0    0  501    0  0.00000000000E+00 -0.00000000000E+00 -0.32528002969E+03  0.32528002969E+03  0.00000000000E+00 0. -1.
         23    2    1    2    0    0  0.45119720319E+03  0.51972390487E+03  0.12203249241E+04  0.14042050971E+04  0.94377861631E+02 0.  0.
         11    1    3    3    0    0  0.28557540803E+03  0.39430239167E+03  0.84515621534E+03  0.97535466271E+03  0.00000000000E+00 0.  1.
        -11    1    3    3    0    0  0.16562179516E+03  0.12542151320E+03  0.37516870880E+03  0.42885043438E+03  0.00000000000E+00 0. -1.
         22    1    1    2    0    0 -0.45119720319E+03 -0.51972390487E+03  0.27417266578E+03  0.74085255222E+03  0.00000000000E+00 0. -1.
<mgrwt>
<rscale>  0 0.15387493E+04</rscale>
<asrwt>0</asrwt>
<pdfrwt beam="1">  1        1 0.50043083E-01 0.15387493E+04</pdfrwt>
<pdfrwt beam="2">  1       -1 0.27996578E+00 0.15387493E+04</pdfrwt>
<totfact> 0.33914503E+00</totfact>
</mgrwt>
</event>
<event>
 6    1  0.1014650E-006  0.6522815E+03  0.7818608E-02  0.9802507E-01
          2   -1    0    0  501    0  0.00000000000E+00  0.00000000000E+00  0.16774972584E+04  0.16774972584E+04  0.00000000000E+00 0. -1.
         -2   -1    0    0    0  501 -0.00000000000E+00 -0.00000000000E+00 -0.63408625899E+02  0.63408625899E+02  0.00000000000E+00 0.  1.
         23    2    1    2    0    0 -0.16864886805E+02 -0.29167355357E+03  0.47713820891E+03  0.56701740920E+03  0.92141118265E+02 0.  0.
         13    1    3    3    0    0 -0.32248848729E+02 -0.19344962299E+03  0.24039938463E+03  0.31024926915E+03  0.00000000000E+00 0. -1.
        -13    1    3    3    0    0  0.15383961924E+02 -0.98223930588E+02  0.23673882428E+03  0.25676814005E+03  0.00000000000E+00 0.  1.
         22    1    1    2    0    0  0.16864886805E+02  0.29167355357E+03  0.11369504236E+04  0.11738884751E+04  0.00000000000E+00 0.  1.
<mgrwt>
<rscale>  0 0.65228152E+03</rscale>
<asrwt>0</asrwt>
<pdfrwt beam="1">  1        2 0.25807647E+00 0.65228152E+03</pdfrwt>
<pdfrwt beam="2">  1       -2 0.97551745E-02 0.65228152E+03</pdfrwt>
<totfact> 0.73675112E+02</totfact>
</mgrwt>
</event>
<event>
 6    1  0.1014650E-006  0.2494747E+04  0.7818608E-02  0.8404859E-01
          2   -1    0    0  501    0  0.00000000000E+00  0.00000000000E+00  0.15553910959E+04  0.15553910959E+04  0.00000000000E+00 0. -1.
         -2   -1    0    0    0  501 -0.00000000000E+00 -0.00000000000E+00 -0.10003529682E+04  0.10003529682E+04  0.00000000000E+00 0.  1.
         23    2    1    2    0    0  0.76841639500E+03  0.97981648436E+03  0.31496297845E+03  0.12876193949E+04  0.90873149589E+02 0.  0.
         13    1    3    3    0    0  0.21576133142E+03  0.21271692903E+03  0.82283613687E+02  0.31396184022E+03  0.00000000000E+00 0.  1.
        -13    1    3    3    0    0  0.55265506358E+03  0.76709955534E+03  0.23267936476E+03  0.97365755473E+03  0.00000000000E+00 0. -1.
         22    1    1    2    0    0 -0.76841639500E+03 -0.97981648436E+03  0.24007514924E+03  0.12681246691E+04  0.00000000000E+00 0.  1.
<mgrwt>
<rscale>  0 0.24947466E+04</rscale>
<asrwt>0</asrwt>
<pdfrwt beam="1">  1        2 0.23929094E+00 0.24947466E+04</pdfrwt>
<pdfrwt beam="2">  1       -2 0.15390046E+00 0.24947466E+04</pdfrwt>
<totfact> 0.29498745E+00</totfact>
</mgrwt>
</event>
<event>
 6    1  0.1100819E-006  0.3357936E+04  0.7818608E-02  0.8148308E-01
          2   -1    0    0  501    0  0.00000000000E+00  0.00000000000E+00  0.19881435733E+04  0.19881435733E+04  0.00000000000E+00 0. -1.
         -2   -1    0    0    0  501 -0.00000000000E+00 -0.00000000000E+00 -0.14178720316E+04  0.14178720316E+04  0.00000000000E+00 0.  1.
         23    2    1    2    0    0  0.24211793559E+03  0.16602794616E+04  0.28254866794E+03  0.17036838402E+04  0.86924635077E+02 0.  0.
         13    1    3    3    0    0  0.69287274958E+02  0.32420233130E+03  0.28660171540E+02  0.33276009906E+03  0.00000000000E+00 0. -1.
        -13    1    3    3    0    0  0.17283066063E+03  0.13360771303E+04  0.25388849640E+03  0.13709237411E+04  0.00000000000E+00 0.  1.
         22    1    1    2    0    0 -0.24211793559E+03 -0.16602794616E+04  0.28772287379E+03  0.17023317648E+04  0.00000000000E+00 0.  1.
<mgrwt>
<rscale>  0 0.33579358E+04</rscale>
<asrwt>0</asrwt>
<pdfrwt beam="1">  1        2 0.30586824E+00 0.33579358E+04</pdfrwt>
<pdfrwt beam="2">  1       -2 0.21813416E+00 0.33579358E+04</pdfrwt>
<totfact> 0.57278327E-01</totfact>
</mgrwt>
</event>
<event>
 6    1  0.1014650E-006  0.1421301E+04  0.7818608E-02  0.8938543E-01
          2   -1    0    0  501    0  0.00000000000E+00  0.00000000000E+00  0.11335320791E+04  0.11335320791E+04  0.00000000000E+00 0. -1.
         -2   -1    0    0    0  501 -0.00000000000E+00 -0.00000000000E+00 -0.44553123317E+03  0.44553123317E+03  0.00000000000E+00 0.  1.
         23    2    1    2    0    0  0.16416568049E+03 -0.65813160219E+03  0.57019052451E+03  0.89061080972E+03  0.89346537158E+02 0.  0.
         13    1    3    3    0    0  0.76003749295E+01 -0.16536559557E+03  0.16487404689E+03  0.23363860390E+03  0.00000000000E+00 0. -1.
        -13    1    3    3    0    0  0.15656530556E+03 -0.49276600663E+03  0.40531647762E+03  0.65697220582E+03  0.00000000000E+00 0.  1.
         22    1    1    2    0    0 -0.16416568049E+03  0.65813160219E+03  0.11781032144E+03  0.68845250257E+03  0.00000000000E+00 0.  1.
<mgrwt>
<rscale>  0 0.14213007E+04</rscale>
<asrwt>0</asrwt>
<pdfrwt beam="1">  1        2 0.17438955E+00 0.14213007E+04</pdfrwt>
<pdfrwt beam="2">  1       -2 0.68543267E-01 0.14213007E+04</pdfrwt>
<totfact> 0.39300803E+01</totfact>
</mgrwt>
</event>
<event>
 6    1  0.1014650E-006  0.1678656E+04  0.7818608E-02  0.8773632E-01
         -2   -1    0    0    0  501 -0.00000000000E+00  0.00000000000E+00  0.53634588030E+03  0.53634588030E+03  0.00000000000E+00 0.  1.
          2   -1    0    0  501    0  0.00000000000E+00 -0.00000000000E+00 -0.13134656103E+04  0.13134656103E+04  0.00000000000E+00 0. -1.
         23    2    1    2    0    0 -0.80107483010E+03  0.48306978937E+01 -0.65641149209E+03  0.10396789720E+04  0.91170712210E+02 0.  0.
         11    1    3    3    0    0 -0.22176915975E+03  0.40971766603E+02 -0.17091580614E+03  0.28297077352E+03  0.00000000000E+00 0. -1.
        -11    1    3    3    0    0 -0.57930567035E+03 -0.36141068710E+02 -0.48549568595E+03  0.75670819846E+03  0.00000000000E+00 0.  1.
         22    1    1    2    0    0  0.80107483010E+03 -0.48306978937E+01 -0.12070823794E+03  0.81013251864E+03  0.00000000000E+00 0.  1.
<mgrwt>
<rscale>  0 0.16786564E+04</rscale>
<asrwt>0</asrwt>
<pdfrwt beam="1">  1        2 0.20207163E+00 0.16786564E+04</pdfrwt>
<pdfrwt beam="2">  1       -2 0.82514752E-01 0.16786564E+04</pdfrwt>
<totfact> 0.19947497E+01</totfact>
</mgrwt>
</event>
<event>
 6    1  0.1014650E-006  0.2679892E+04  0.7818608E-02  0.8341559E-01
         -2   -1    0    0    0  501 -0.00000000000E+00  0.00000000000E+00  0.64879322022E+03  0.64879322022E+03  0.00000000000E+00 0.  1.
          2   -1    0    0  501    0  0.00000000000E+00 -0.00000000000E+00 -0.27673761875E+04  0.27673761875E+04  0.00000000000E+00 0. -1.
         23    2    1    2    0    0 -0.10249563589E+04  0.62572078034E+03 -0.30615265029E+03  0.12420107919E+04  0.82458046359E+02 0.  0.
         13    1    3    3    0    0 -0.54606939231E+03  0.37897524957E+03 -0.15580658750E+03  0.68270763414E+03  0.00000000000E+00 0.  1.
        -13    1    3    3    0    0 -0.47888696660E+03  0.24674553077E+03 -0.15034606279E+03  0.55930315781E+03  0.00000000000E+00 0. -1.
         22    1    1    2    0    0  0.10249563589E+04 -0.62572078034E+03 -0.18124303170E+04  0.21741586158E+04  0.00000000000E+00 0. -1.
<mgrwt>
<rscale>  0 0.26798917E+04</rscale>
<asrwt>0</asrwt>
<pdfrwt beam="1">  1        2 0.42575018E+00 0.26798917E+04</pdfrwt>
<pdfrwt beam="2">  1       -2 0.99814342E-01 0.26798917E+04</pdfrwt>
<totfact> 0.17636148E+00</totfact>
</mgrwt>
</event>
<event>
 6    1  0.1014650E-006  0.4659086E+04  0.7818608E-02  0.7883362E-01
         -2   -1    0    0    0  501 -0.00000000000E+00  0.00000000000E+00  0.20668519558E+04  0.20668519558E+04  0.00000000000E+00 0.  1.
          2   -1    0    0  501    0  0.00000000000E+00 -0.00000000000E+00 -0.26256213836E+04  0.26256213836E+04  0.00000000000E+00 0. -1.
         23    2    1    2    0    0  0.35653240965E+03 -0.16025949219E+04 -0.19425615502E+04  0.25453109140E+04  0.98165318237E+02 0.  0.
         13    1    3    3    0    0  0.25403273151E+03 -0.13086634066E+04 -0.15547525491E+04  0.20480205149E+04  0.00000000000E+00 0.  1.
        -13    1    3    3    0    0  0.10249967814E+03 -0.29393151531E+03 -0.38780900104E+03  0.49729039907E+03  0.00000000000E+00 0. -1.
         22    1    1    2    0    0 -0.35653240965E+03  0.16025949219E+04  0.13837921224E+04  0.21471624254E+04  0.00000000000E+00 0.  1.
<mgrwt>
<rscale>  0 0.46590860E+04</rscale>
<asrwt>0</asrwt>
<pdfrwt beam="1">  1        2 0.40394175E+00 0.46590860E+04</pdfrwt>
<pdfrwt beam="2">  1       -2 0.31797723E+00 0.46590860E+04</pdfrwt>
<totfact> 0.54180996E-02</totfact>
</mgrwt>
</event>
<event>
 6    1  0.1014650E-006  0.2657909E+04  0.7818608E-02  0.8348793E-01
          2   -1    0    0  501    0  0.00000000000E+00  0.00000000000E+00  0.25774582471E+04  0.25774582471E+04  0.00000000000E+00 0. -1.
         -2   -1    0    0    0  501 -0.00000000000E+00 -0.00000000000E+00 -0.68521747713E+03  0.68521747713E+03  0.00000000000E+00 0.  1.
         23    2    1    2    0    0  0.10677509273E+04 -0.47877263187E+03  0.17813428589E+03  0.11872296723E+04  0.92017362842E+02 0.  0.
         13    1    3    3    0    0  0.58645045630E+03 -0.29744446201E+03  0.66447677741E+02  0.66091802786E+03  0.00000000000E+00 0.  1.
        -13    1    3    3    0    0  0.48130047104E+03 -0.18132816985E+03  0.11168660815E+03  0.52631164441E+03  0.00000000000E+00 0. -1.
         22    1    1    2    0    0 -0.10677509273E+04  0.47877263187E+03  0.17141064841E+04  0.20754460519E+04  0.00000000000E+00 0. -1.
<mgrwt>
<rscale>  0 0.26579085E+04</rscale>
<asrwt>0</asrwt>
<pdfrwt beam="1">  1        2 0.39653203E+00 0.26579085E+04</pdfrwt>
<pdfrwt beam="2">  1       -2 0.10541808E+00 0.26579085E+04</pdfrwt>
<totfact> 0.20104287E+00</totfact>
</mgrwt>
</event>
<event>
 6    1  0.1014650E-006  0.1614478E+04  0.7818608E-02  0.8811703E-01
          1   -1    0    0  501    0  0.00000000000E+00  0.00000000000E+00  0.13543879680E+04  0.13543879680E+04  0.00000000000E+00 0. -1.
         -1   -1    0    0    0  501 -0.00000000000E+00 -0.00000000000E+00 -0.48112866913E+03  0.48112866913E+03  0.00000000000E+00 0.  1.
         23    2    1    2    0    0 -0.50146059148E+03 -0.17625414102E+03 -0.24870445120E+03  0.59401315204E+03  0.92029743618E+02 0.  0.
         11    1    3    3    0    0 -0.31633943835E+03 -0.83877794954E+02 -0.11141550706E+03  0.34571598163E+03  0.00000000000E+00 0. -1.
        -11    1    3    3    0    0 -0.18512115314E+03 -0.92376346063E+02 -0.13728894414E+03  0.24829717041E+03  0.00000000000E+00 0.  1.
         22    1    1    2    0    0  0.50146059148E+03  0.17625414102E+03  0.11219637501E+04  0.12415034851E+04  0.00000000000E+00 0. -1.
<mgrwt>
<rscale>  0 0.16144781E+04</rscale>
<asrwt>0</asrwt>
<pdfrwt beam="1">  1        1 0.20836738E+00 0.16144781E+04</pdfrwt>
<pdfrwt beam="2">  1       -1 0.74019796E-01 0.16144781E+04</pdfrwt>
<totfact> 0.14573055E+01</totfact>
</mgrwt>
</event>
<event>
 6    1  0.1014650E-006  0.2333041E+04  0.7818608E-02  0.8465006E-01
         -1   -1    0    0    0  501 -0.00000000000E+00  0.00000000000E+00  0.54291278963E+03  0.54291278963E+03  0.00000000000E+00 0.  1.
          1   -1    0    0  501    0  0.00000000000E+00 -0.00000000000E+00 -0.25064237624E+04  0.25064237624E+04  0.00000000000E+00 0. -1.
         23    2    1    2    0    0  0.27522816552E+03 -0.93332628904E+03 -0.14630825186E+03  0.98800828274E+03  0.88914325525E+02 0.  0.
         11    1    3    3    0    0  0.86149602187E+02 -0.32101505585E+03 -0.91998541199E+02  0.34487121020E+03  0.00000000000E+00 0. -1.
        -11    1    3    3    0    0  0.18907856333E+03 -0.61231123319E+03 -0.54309710658E+02  0.64313707254E+03  0.00000000000E+00 0.  1.
         22    1    1    2    0    0 -0.27522816552E+03  0.93332628904E+03 -0.18172027209E+04  0.20613282693E+04  0.00000000000E+00 0. -1.
<mgrwt>
<rscale>  0 0.23330405E+04</rscale>
<asrwt>0</asrwt>
<pdfrwt beam="1">  1        1 0.38560365E+00 0.23330405E+04</pdfrwt>
<pdfrwt beam="2">  1       -1 0.83525046E-01 0.23330405E+04</pdfrwt>
<totfact> 0.17183309E+00</totfact>
</mgrwt>
</event>
<event>
 6    1  0.1014650E-006  0.1814171E+04  0.7818608E-02  0.8698800E-01
         -2   -1    0    0    0  501 -0.00000000000E+00  0.00000000000E+00  0.12470980261E+04  0.12470980261E+04  0.00000000000E+00 0.  1.
          2   -1    0    0  501    0  0.00000000000E+00 -0.00000000000E+00 -0.65977495668E+03  0.65977495668E+03  0.00000000000E+00 0. -1.
         23    2    1    2    0    0  0.68323569952E+03 -0.45079516352E+03 -0.11098343175E+03  0.83092722665E+03  0.89974625932E+02 0.  0.
         13    1    3    3    0    0  0.35514192107E+03 -0.28767318089E+03 -0.65620854704E+02  0.46172257870E+03  0.00000000000E+00 0. -1.
        -13    1    3    3    0    0  0.32809377845E+03 -0.16312198263E+03 -0.45362577043E+02  0.36920464795E+03  0.00000000000E+00 0.  1.
         22    1    1    2    0    0 -0.68323569952E+03  0.45079516352E+03  0.69830650113E+03  0.10759457561E+04  0.00000000000E+00 0. -1.
<mgrwt>
<rscale>  0 0.18141709E+04</rscale>
<asrwt>0</asrwt>
<pdfrwt beam="1">  1        2 0.10150384E+00 0.18141709E+04</pdfrwt>
<pdfrwt beam="2">  1       -2 0.19186123E+00 0.18141709E+04</pdfrwt>
<totfact> 0.62636990E+00</totfact>
</mgrwt>
</event>
<event>
 6    1  0.1014650E-006  0.2754601E+04  0.7818608E-02  0.8317503E-01
          2   -1    0    0  501    0  0.00000000000E+00  0.00000000000E+00  0.27841648028E+04  0.27841648028E+04  0.00000000000E+00 0. -1.
         -2   -1    0    0    0  501 -0.00000000000E+00 -0.00000000000E+00 -0.68133794405E+03  0.68133794405E+03  0.00000000000E+00 0.  1.
         23    2    1    2    0    0 -0.12206541683E+04 -0.60873481474E+03  0.12793227029E+04  0.18721685798E+04  0.88283292180E+02 0.  0.
         11    1    3    3    0    0 -0.40725103410E+03 -0.21859015953E+03  0.48816973050E+03  0.67226836040E+03  0.00000000000E+00 0. -1.
        -11    1    3    3    0    0 -0.81340313421E+03 -0.39014465522E+03  0.79115297235E+03  0.11999002194E+04  0.00000000000E+00 0.  1.
         22    1    1    2    0    0  0.12206541683E+04  0.60873481474E+03  0.82350415589E+03  0.15933341671E+04  0.00000000000E+00 0.  1.
<mgrwt>
<rscale>  0 0.27546013E+04</rscale>
<asrwt>0</asrwt>
<pdfrwt beam="1">  1        2 0.42833304E+00 0.27546013E+04</pdfrwt>
<pdfrwt beam="2">  1       -2 0.10482122E+00 0.27546013E+04</pdfrwt>
<totfact> 0.15234037E+00</totfact>
</mgrwt>
</event>
<event>
 6    1  0.1133253E-006  0.2992272E+04  0.7818608E-02  0.8245941E-01
          2   -1    0    0  501    0  0.00000000000E+00  0.00000000000E+00  0.14442560129E+04  0.14442560129E+04  0.00000000000E+00 0. -1.
         -2   -1    0    0    0  501 -0.00000000000E+00 -0.00000000000E+00 -0.15498792648E+04  0.15498792648E+04  0.00000000000E+00 0.  1.
         23    2    1    2    0    0 -0.54372747809E+03  0.12899727466E+04  0.47196699294E+03  0.14797774110E+04  0.85551658388E+02 0.  0.
         13    1    3    3    0    0 -0.24012911528E+03  0.49080112564E+03  0.15423941060E+03  0.56774777210E+03  0.00000000000E+00 0.  1.
        -13    1    3    3    0    0 -0.30359836281E+03  0.79917162094E+03  0.31772758233E+03  0.91202963888E+03  0.00000000000E+00 0. -1.
         22    1    1    2    0    0  0.54372747809E+03 -0.12899727466E+04 -0.57759024486E+03  0.15143578667E+04  0.00000000000E+00 0.  1.
<mgrwt>
<rscale>  0 0.29922717E+04</rscale>
<asrwt>0</asrwt>
<pdfrwt beam="1">  1        2 0.22219323E+00 0.29922717E+04</pdfrwt>
<pdfrwt beam="2">  1       -2 0.23844297E+00 0.29922717E+04</pdfrwt>
<totfact> 0.88575629E-01</totfact>
</mgrwt>
</event>
<event>
 6    1  0.1014650E-006  0.1972826E+04  0.7818608E-02  0.8619432E-01
         -1   -1    0    0    0  501 -0.00000000000E+00  0.00000000000E+00  0.76859182401E+03  0.76859182401E+03  0.00000000000E+00 0.  1.
          1   -1    0    0  501    0  0.00000000000E+00 -0.00000000000E+00 -0.12659655142E+04  0.12659655142E+04  0.00000000000E+00 0. -1.
         23    2    1    2    0    0 -0.26511646840E+03 -0.39776910814E+02 -0.12259710870E+04  0.12582048982E+04  0.90584298090E+02 0.  0.
         11    1    3    3    0    0 -0.19971596336E+03 -0.68350999005E+02 -0.88208232178E+03  0.90698817384E+03  0.00000000000E+00 0. -1.
        -11    1    3    3    0    0 -0.65400505036E+02  0.28574088191E+02 -0.34388876525E+03  0.35121672432E+03  0.00000000000E+00 0.  1.
         22    1    1    2    0    0  0.26511646840E+03  0.39776910814E+02  0.72859739686E+03  0.77635244004E+03  0.00000000000E+00 0.  1.
<mgrwt>
<rscale>  0 0.19728261E+04</rscale>
<asrwt>0</asrwt>
<pdfrwt beam="1">  1        1 0.19476392E+00 0.19728261E+04</pdfrwt>
<pdfrwt beam="2">  1       -1 0.11824490E+00 0.19728261E+04</pdfrwt>
<totfact> 0.57110392E+00</totfact>
</mgrwt>
</event>
<event>
 6    1  0.1014650E-006  0.4012814E+04  0.7818608E-02  0.8001967E-01
          2   -1    0    0  501    0  0.00000000000E+00  0.00000000000E+00  0.40446087039E+04  0.40446087039E+04  0.00000000000E+00 0. -1.
         -2   -1    0    0    0  501 -0.00000000000E+00 -0.00000000000E+00 -0.99531740956E+03  0.99531740956E+03  0.00000000000E+00 0.  1.
         23    2    1    2    0    0 -0.36875721672E+03 -0.18456976380E+04  0.23945976139E+04  0.30471377476E+04  0.91482592043E+02 0.  0.
         13    1    3    3    0    0 -0.17107578138E+02 -0.14202056735E+03  0.21880856658E+03  0.26141862900E+03  0.00000000000E+00 0. -1.
        -13    1    3    3    0    0 -0.35164963858E+03 -0.17036770707E+04  0.21757890473E+04  0.27857191186E+04  0.00000000000E+00 0.  1.
         22    1    1    2    0    0  0.36875721672E+03  0.18456976380E+04  0.65469368050E+03  0.19927883659E+04  0.00000000000E+00 0.  1.
<mgrwt>
<rscale>  0 0.40128142E+04</rscale>
<asrwt>0</asrwt>
<pdfrwt beam="1">  1        2 0.62224748E+00 0.40128142E+04</pdfrwt>
<pdfrwt beam="2">  1       -2 0.15312576E+00 0.40128142E+04</pdfrwt>
<totfact> 0.70040447E-02</totfact>
</mgrwt>
</event>
<event>
 6    1  0.1014650E-006  0.1439960E+04  0.7818608E-02  0.8925391E-01
         -1   -1    0    0    0  501 -0.00000000000E+00  0.00000000000E+00  0.48181021031E+03  0.48181021031E+03  0.00000000000E+00 0.  1.
          1   -1    0    0  501    0  0.00000000000E+00 -0.00000000000E+00 -0.10758818213E+04  0.10758818213E+04  0.00000000000E+00 0. -1.
         23    2    1    2    0    0 -0.17917596234E+03  0.47025843766E+03 -0.85200294231E+03  0.99220498900E+03  0.72902008318E+02 0.  0.
         13    1    3    3    0    0 -0.90153918360E+02  0.23511146265E+03 -0.35518971373E+03  0.43539047027E+03  0.00000000000E+00 0.  1.
        -13    1    3    3    0    0 -0.89022043982E+02  0.23514697501E+03 -0.49681322858E+03  0.55681451872E+03  0.00000000000E+00 0. -1.
         22    1    1    2    0    0  0.17917596234E+03 -0.47025843766E+03  0.25793133134E+03  0.56548704260E+03  0.00000000000E+00 0.  1.
<mgrwt>
<rscale>  0 0.14399595E+04</rscale>
<asrwt>0</asrwt>
<pdfrwt beam="1">  1        1 0.16552028E+00 0.14399595E+04</pdfrwt>
<pdfrwt beam="2">  1       -1 0.74124648E-01 0.14399595E+04</pdfrwt>
<totfact> 0.23554942E+01</totfact>
</mgrwt>
</event>
<event>
 6    1  0.1014650E-006  0.1703936E+04  0.7818608E-02  0.8759122E-01
          2   -1    0    0  501    0  0.00000000000E+00  0.00000000000E+00  0.67277285587E+03  0.67277285587E+03  0.00000000000E+00 0. -1.
         -2   -1    0    0    0  501 -0.00000000000E+00 -0.00000000000E+00 -0.10788927909E+04  0.10788927909E+04  0.00000000000E+00 0.  1.
         23    2    1    2    0    0  0.16289500740E+03 -0.12911269586E+03  0.64326761196E+03  0.68189039212E+03  0.89310775409E+02 0.  0.
         11    1    3    3    0    0  0.10453591416E+03 -0.12874081206E+03  0.51321188039E+03  0.53934069772E+03  0.00000000000E+00 0. -1.
        -11    1    3    3    0    0  0.58359093236E+02 -0.37188379915E+00  0.13005573157E+03  0.14254969441E+03  0.00000000000E+00 0.  1.
         22    1    1    2    0    0 -0.16289500740E+03  0.12911269586E+03 -0.10493875470E+04  0.10697752546E+04  0.00000000000E+00 0.  1.
<mgrwt>
<rscale>  0 0.17039364E+04</rscale>
<asrwt>0</asrwt>
<pdfrwt beam="1">  1        2 0.10350352E+00 0.17039364E+04</pdfrwt>
<pdfrwt beam="2">  1       -2 0.16598351E+00 0.17039364E+04</pdfrwt>
<totfact> 0.93252264E+00</totfact>
</mgrwt>
</event>
<event>
 6    1  0.1014650E-006  0.1153313E+04  0.7818608E-02  0.9154732E-01
         -2   -1    0    0    0  501 -0.00000000000E+00  0.00000000000E+00  0.13842439199E+03  0.13842439199E+03  0.00000000000E+00 0.  1.
          2   -1    0    0  501    0  0.00000000000E+00 -0.00000000000E+00 -0.24022706242E+04  0.24022706242E+04  0.00000000000E+00 0. -1.
         23    2    1    2    0    0 -0.23550883758E+03  0.43630553108E+03 -0.50677324661E+03  0.71500818495E+03  0.92685770466E+02 0.  0.
         11    1    3    3    0    0 -0.13069192690E+03  0.14707095578E+03 -0.19575921588E+03  0.27754624190E+03  0.00000000000E+00 0.  1.
        -11    1    3    3    0    0 -0.10481691068E+03  0.28923457530E+03 -0.31101403073E+03  0.43746194305E+03  0.00000000000E+00 0. -1.
         22    1    1    2    0    0  0.23550883758E+03 -0.43630553108E+03 -0.17570729856E+04  0.18256868313E+04  0.00000000000E+00 0. -1.
<mgrwt>
<rscale>  0 0.11533132E+04</rscale>
<asrwt>0</asrwt>
<pdfrwt beam="1">  1        2 0.36958009E+00 0.11533132E+04</pdfrwt>
<pdfrwt beam="2">  1       -2 0.21296061E-01 0.11533132E+04</pdfrwt>
<totfact> 0.75496290E+01</totfact>
</mgrwt>
</event>
<event>
 6    1  0.1014650E-006  0.2940408E+04  0.7818608E-02  0.8260955E-01
         -2   -1    0    0    0  501 -0.00000000000E+00  0.00000000000E+00  0.21967154039E+04  0.21967154039E+04  0.00000000000E+00 0.  1.
          2   -1    0    0  501    0  0.00000000000E+00 -0.00000000000E+00 -0.98396884264E+03  0.98396884264E+03  0.00000000000E+00 0. -1.
         23    2    1    2    0    0  0.10581160768E+04  0.10096782205E+04  0.75356677027E+03  0.16477439928E+04  0.90208911402E+02 0.  0.
         13    1    3    3    0    0  0.55501126138E+03  0.47019399181E+03  0.38951705911E+03  0.82513237092E+03  0.00000000000E+00 0.  1.
        -13    1    3    3    0    0  0.50310481541E+03  0.53948422869E+03  0.36404971116E+03  0.82261162190E+03  0.00000000000E+00 0. -1.
         22    1    1    2    0    0 -0.10581160768E+04 -0.10096782205E+04  0.45917979095E+03  0.15329402537E+04  0.00000000000E+00 0. -1.
<mgrwt>
<rscale>  0 0.29404078E+04</rscale>
<asrwt>0</asrwt>
<pdfrwt beam="1">  1        2 0.15137982E+00 0.29404078E+04</pdfrwt>
<pdfrwt beam="2">  1       -2 0.33795622E+00 0.29404078E+04</pdfrwt>
<totfact> 0.41086217E-01</totfact>
</mgrwt>
</event>
<event>
 6    1  0.1014650E-006  0.1785031E+04  0.7818608E-02  0.8714301E-01
          2   -1    0    0  501    0  0.00000000000E+00  0.00000000000E+00  0.11614287373E+04  0.11614287373E+04  0.00000000000E+00 0. -1.
         -2   -1    0    0    0  501 -0.00000000000E+00 -0.00000000000E+00 -0.68586519039E+03  0.68586519039E+03  0.00000000000E+00 0.  1.
         23    2    1    2    0    0 -0.48779134161E+03 -0.54075963574E+03  0.76885024663E+03  0.10621961854E+04  0.82271854407E+02 0.  0.
         13    1    3    3    0    0 -0.37092760746E+03 -0.38962743214E+03  0.61356706500E+03  0.81600328989E+03  0.00000000000E+00 0. -1.
        -13    1    3    3    0    0 -0.11686373415E+03 -0.15113220360E+03  0.15528318163E+03  0.24619289555E+03  0.00000000000E+00 0.  1.
         22    1    1    2    0    0  0.48779134161E+03  0.54075963574E+03 -0.29328669974E+03  0.78509774222E+03  0.00000000000E+00 0.  1.
<mgrwt>
<rscale>  0 0.17850306E+04</rscale>
<asrwt>0</asrwt>
<pdfrwt beam="1">  1        2 0.17868134E+00 0.17850306E+04</pdfrwt>
<pdfrwt beam="2">  1       -2 0.10551772E+00 0.17850306E+04</pdfrwt>
<totfact> 0.13721930E+01</totfact>
</mgrwt>
</event>
<event>
 6    1  0.1014650E-006  0.9962060E+03  0.7818608E-02  0.9312716E-01
         -2   -1    0    0    0  501 -0.00000000000E+00  0.00000000000E+00  0.20215676468E+03  0.20215676468E+03  0.00000000000E+00 0.  1.
          2   -1    0    0  501    0  0.00000000000E+00 -0.00000000000E+00 -0.12272980637E+04  0.12272980637E+04  0.00000000000E+00 0. -1.
         23    2    1    2    0    0  0.46577303508E+03  0.82588011878E+02 -0.72074600689E+03  0.86694101186E+03  0.91359792515E+02 0.  0.
         13    1    3    3    0    0  0.35267416149E+03  0.43250414457E+02 -0.47119514245E+03  0.59014788384E+03  0.00000000000E+00 0.  1.
        -13    1    3    3    0    0  0.11309887360E+03  0.39337597421E+02 -0.24955086443E+03  0.27679312802E+03  0.00000000000E+00 0. -1.
         22    1    1    2    0    0 -0.46577303508E+03 -0.82588011878E+02 -0.30439529218E+03  0.56251381656E+03  0.00000000000E+00 0. -1.
<mgrwt>
<rscale>  0 0.99620601E+03</rscale>
<asrwt>0</asrwt>
<pdfrwt beam="1">  1        2 0.18881509E+00 0.99620601E+03</pdfrwt>
<pdfrwt beam="2">  1       -2 0.31101040E-01 0.99620601E+03</pdfrwt>
<totfact> 0.17436535E+02</totfact>
</mgrwt>
</event>
<event>
 6    1  0.1014650E-006  0.2228743E+04  0.7818608E-02  0.8506559E-01
         -1   -1    0    0    0  501 -0.00000000000E+00  0.00000000000E+00  0.40348602568E+03  0.40348602568E+03  0.00000000000E+00 0.  1.
          1   -1    0    0  501    0  0.00000000000E+00 -0.00000000000E+00 -0.30777380094E+04  0.30777380094E+04  0.00000000000E+00 0. -1.
         23    2    1    2    0    0  0.58205334724E+03 -0.25063482854E+03 -0.27681812564E+04  0.28405785601E+04  0.66747068176E+02 0.  0.
         11    1    3    3    0    0  0.21072529548E+03 -0.64117252152E+02 -0.10512209807E+04  0.10740492178E+04  0.00000000000E+00 0.  1.
        -11    1    3    3    0    0  0.37132805175E+03 -0.18651757639E+03 -0.17169602758E+04  0.17665293422E+04  0.00000000000E+00 0. -1.
         22    1    1    2    0    0 -0.58205334724E+03  0.25063482854E+03  0.93929272758E+02  0.64064547496E+03  0.00000000000E+00 0.  1.
<mgrwt>
<rscale>  0 0.22287434E+04</rscale>
<asrwt>0</asrwt>
<pdfrwt beam="1">  1        1 0.47349816E+00 0.22287434E+04</pdfrwt>
<pdfrwt beam="2">  1       -1 0.62074773E-01 0.22287434E+04</pdfrwt>
<totfact> 0.12559987E+00</totfact>
</mgrwt>
</event>
<event>
 6    1  0.1014650E-006  0.9944944E+03  0.7818608E-02  0.9314604E-01
          1   -1    0    0  501    0  0.00000000000E+00  0.00000000000E+00  0.98744782578E+03  0.98744782578E+03  0.00000000000E+00 0. -1.
         -1   -1    0    0    0  501 -0.00000000000E+00 -0.00000000000E+00 -0.25039779077E+03  0.25039779077E+03  0.00000000000E+00 0.  1.
         23    2    1    2    0    0  0.20319567682E+03 -0.42813183362E+03  0.54118506611E+03  0.72506063619E+03  0.90809142386E+02 0.  0.
         11    1    3    3    0    0  0.77006248615E+02 -0.10677513648E+03  0.20174362862E+03  0.24089703980E+03  0.00000000000E+00 0. -1.
        -11    1    3    3    0    0  0.12618942820E+03 -0.32135669714E+03  0.33944143749E+03  0.48416359639E+03  0.00000000000E+00 0.  1.
         22    1    1    2    0    0 -0.20319567682E+03  0.42813183362E+03  0.19586496890E+03  0.51278498035E+03  0.00000000000E+00 0.  1.
<mgrwt>
<rscale>  0 0.99449435E+03</rscale>
<asrwt>0</asrwt>
<pdfrwt beam="1">  1        1 0.15191505E+00 0.99449435E+03</pdfrwt>
<pdfrwt beam="2">  1       -1 0.38522738E-01 0.99449435E+03</pdfrwt>
<totfact> 0.10117834E+02</totfact>
</mgrwt>
</event>
<event>
 6    1  0.1014650E-006  0.1586192E+04  0.7818608E-02  0.8829076E-01
         -2   -1    0    0    0  501 -0.00000000000E+00  0.00000000000E+00  0.87293493616E+03  0.87293493616E+03  0.00000000000E+00 0.  1.
          2   -1    0    0  501    0  0.00000000000E+00 -0.00000000000E+00 -0.72055955667E+03  0.72055955667E+03  0.00000000000E+00 0. -1.
         23    2    1    2    0    0 -0.16293071757E+03  0.73430633582E+03  0.32053805632E+03  0.82276049239E+03  0.91858416853E+02 0.  0.
         13    1    3    3    0    0 -0.13862719111E+03  0.57258969192E+03  0.21030171505E+03  0.62554237647E+03  0.00000000000E+00 0. -1.
        -13    1    3    3    0    0 -0.24303526456E+02  0.16171664390E+03  0.11023634127E+03  0.19721811592E+03  0.00000000000E+00 0.  1.
         22    1    1    2    0    0  0.16293071757E+03 -0.73430633582E+03 -0.16816267682E+03  0.77073400044E+03  0.00000000000E+00 0. -1.
<mgrwt>
<rscale>  0 0.15861924E+04</rscale>
<asrwt>0</asrwt>
<pdfrwt beam="1">  1        2 0.11085532E+00 0.15861924E+04</pdfrwt>
<pdfrwt beam="2">  1       -2 0.13429768E+00 0.15861924E+04</pdfrwt>
<totfact> 0.15150319E+01</totfact>
</mgrwt>
</event>
<event>
 6    1  0.1014650E-006  0.6514968E+04  0.7818608E-02  0.7629637E-01
          2   -1    0    0  501    0  0.00000000000E+00  0.00000000000E+00  0.28289987739E+04  0.28289987739E+04  0.00000000000E+00 0. -1.
         -2   -1    0    0    0  501 -0.00000000000E+00 -0.00000000000E+00 -0.37508678441E+04  0.37508678441E+04  0.00000000000E+00 0.  1.
         23    2    1    2    0    0 -0.28194158916E+04  0.15092540632E+04  0.16165916920E+03  0.32033318199E+04  0.90814450615E+02 0.  0.
         13    1    3    3    0    0 -0.49807769453E+03  0.29698498335E+03  0.51881739977E+02  0.58221403716E+03  0.00000000000E+00 0.  1.
        -13    1    3    3    0    0 -0.23213381971E+04  0.12122690798E+04  0.10977742922E+03  0.26211177827E+04  0.00000000000E+00 0. -1.
         22    1    1    2    0    0  0.28194158916E+04 -0.15092540632E+04 -0.10835282394E+04  0.33765347981E+04  0.00000000000E+00 0.  1.
<mgrwt>
<rscale>  0 0.65149675E+04</rscale>
<asrwt>0</asrwt>
<pdfrwt beam="1">  1        2 0.43523058E+00 0.65149675E+04</pdfrwt>
<pdfrwt beam="2">  1       -2 0.57705659E+00 0.65149675E+04</pdfrwt>
<totfact> 0.93205021E-04</totfact>
</mgrwt>
</event>
<event>
 6    1  0.1014650E-006  0.3711049E+04  0.7818608E-02  0.8065518E-01
         -2   -1    0    0    0  501 -0.00000000000E+00  0.00000000000E+00  0.12902982612E+04  0.12902982612E+04  0.00000000000E+00 0.  1.
          2   -1    0    0  501    0  0.00000000000E+00 -0.00000000000E+00 -0.26683532310E+04  0.26683532310E+04  0.00000000000E+00 0. -1.
         23    2    1    2    0    0  0.10388970281E+04 -0.15053205724E+04 -0.36345140420E+03  0.18670689679E+04  0.92479979885E+02 0.  0.
         13    1    3    3    0    0  0.60172838201E+03 -0.93398500832E+03 -0.24932881101E+03  0.11386702321E+04  0.00000000000E+00 0.  1.
        -13    1    3    3    0    0  0.43716864612E+03 -0.57133556411E+03 -0.11412259319E+03  0.72839873575E+03  0.00000000000E+00 0. -1.
         22    1    1    2    0    0 -0.10388970281E+04  0.15053205724E+04 -0.10146035656E+04  0.20915825244E+04  0.00000000000E+00 0. -1.
<mgrwt>
<rscale>  0 0.37110492E+04</rscale>
<asrwt>0</asrwt>
<pdfrwt beam="1">  1        2 0.41051587E+00 0.37110492E+04</pdfrwt>
<pdfrwt beam="2">  1       -2 0.19850743E+00 0.37110492E+04</pdfrwt>
<totfact> 0.30464471E-01</totfact>
</mgrwt>
</event>
<event>
 6    1  0.1014650E-006  0.2214346E+04  0.7818608E-02  0.8512481E-01
         -2   -1    0    0    0  501 -0.00000000000E+00  0.00000000000E+00  0.17348916341E+04  0.17348916341E+04  0.00000000000E+00 0.  1.
          2   -1    0    0  501    0  0.00000000000E+00 -0.00000000000E+00 -0.70657564233E+03  0.70657564233E+03  0.00000000000E+00 0. -1.
         23    2    1    2    0    0  0.67714186321E+03 -0.27335081373E+03 -0.40002807317E+03  0.83728258067E+03  0.88192348293E+02 0.  0.
         13    1    3    3    0    0  0.62949916901E+03 -0.22760951871E+03 -0.36819481339E+03  0.76396512839E+03  0.00000000000E+00 0. -1.
        -13    1    3    3    0    0  0.47642694194E+02 -0.45741295021E+02 -0.31833259784E+02  0.73317452279E+02  0.00000000000E+00 0.  1.
         22    1    1    2    0    0 -0.67714186321E+03  0.27335081373E+03  0.14283440650E+04  0.16041846958E+04  0.00000000000E+00 0.  1.
<mgrwt>
<rscale>  0 0.22143461E+04</rscale>
<asrwt>0</asrwt>
<pdfrwt beam="1">  1        2 0.10870395E+00 0.22143461E+04</pdfrwt>
<pdfrwt beam="2">  1       -2 0.26690640E+00 0.22143461E+04</pdfrwt>
<totfact> 0.18712815E+00</totfact>
</mgrwt>
</event>
<event>
 6    1  0.1014650E-006  0.4187817E+04  0.7818608E-02  0.7967694E-01
          2   -1    0    0  501    0  0.00000000000E+00  0.00000000000E+00  0.39863354604E+04  0.39863354604E+04  0.00000000000E+00 0. -1.
         -2   -1    0    0    0  501 -0.00000000000E+00 -0.00000000000E+00 -0.10998705904E+04  0.10998705904E+04  0.00000000000E+00 0.  1.
         23    2    1    2    0    0  0.56362796554E+03 -0.17952897809E+04  0.25566701830E+04  0.31758379144E+04  0.92963182289E+02 0.  0.
         13    1    3    3    0    0  0.43911115407E+03 -0.12586429295E+04  0.18179442923E+04  0.22543118861E+04  0.00000000000E+00 0.  1.
        -13    1    3    3    0    0  0.12451681147E+03 -0.53664685132E+03  0.73872589067E+03  0.92152602834E+03  0.00000000000E+00 0. -1.
         22    1    1    2    0    0 -0.56362796554E+03  0.17952897809E+04  0.32979468705E+03  0.19103681364E+04  0.00000000000E+00 0. -1.
<mgrwt>
<rscale>  0 0.41878172E+04</rscale>
<asrwt>0</asrwt>
<pdfrwt beam="1">  1        2 0.61328237E+00 0.41878172E+04</pdfrwt>
<pdfrwt beam="2">  1       -2 0.16921086E+00 0.41878172E+04</pdfrwt>
<totfact> 0.58652107E-02</totfact>
</mgrwt>
</event>
<event>
 6    1  0.1014650E-006  0.3268773E+04  0.7818608E-02  0.8170887E-01
          2   -1    0    0  501    0  0.00000000000E+00  0.00000000000E+00  0.21933850154E+04  0.21933850154E+04  0.00000000000E+00 0. -1.
         -2   -1    0    0    0  501 -0.00000000000E+00 -0.00000000000E+00 -0.12178524993E+04  0.12178524993E+04  0.00000000000E+00 0.  1.
         23    2    1    2    0    0 -0.12151443965E+04  0.94144380365E+03 -0.87462114663E+02  0.15423207363E+04  0.90616181387E+02 0.  0.
         11    1    3    3    0    0 -0.41546281601E+03  0.37285956810E+03 -0.48290073865E+02  0.56032628016E+03  0.00000000000E+00 0. -1.
        -11    1    3    3    0    0 -0.79968158046E+03  0.56858423556E+03 -0.39172040798E+02  0.98199445611E+03  0.00000000000E+00 0.  1.
         22    1    1    2    0    0  0.12151443965E+04 -0.94144380365E+03  0.10629946308E+04  0.18689167784E+04  0.00000000000E+00 0. -1.
<mgrwt>
<rscale>  0 0.32687731E+04</rscale>
<asrwt>0</asrwt>
<pdfrwt beam="1">  1        2 0.33744385E+00 0.32687731E+04</pdfrwt>
<pdfrwt beam="2">  1       -2 0.18736192E+00 0.32687731E+04</pdfrwt>
<totfact> 0.70422764E-01</totfact>
</mgrwt>
</event>
<event>
 6    1  0.1014650E-006  0.1148933E+04  0.7818608E-02  0.9158768E-01
          1   -1    0    0  501    0  0.00000000000E+00  0.00000000000E+00  0.24424690842E+03  0.24424690842E+03  0.00000000000E+00 0. -1.
         -1   -1    0    0    0  501 -0.00000000000E+00 -0.00000000000E+00 -0.13511406648E+04  0.13511406648E+04  0.00000000000E+00 0.  1.
         23    2    1    2    0    0  0.94788166858E+02 -0.46219093509E+03 -0.11028938283E+03  0.49274278252E+03  0.89590427563E+02 0.  0.
         11    1    3    3    0    0  0.71285392205E+02 -0.27478384033E+03 -0.23407826281E+02  0.28484327687E+03  0.00000000000E+00 0. -1.
        -11    1    3    3    0    0  0.23502774653E+02 -0.18740709476E+03 -0.86881556548E+02  0.20789950565E+03  0.00000000000E+00 0.  1.
         22    1    1    2    0    0 -0.94788166858E+02  0.46219093509E+03 -0.99660437357E+03  0.11026447907E+04  0.00000000000E+00 0.  1.
<mgrwt>
<rscale>  0 0.11489333E+04</rscale>
<asrwt>0</asrwt>
<pdfrwt beam="1">  1        1 0.37576449E-01 0.11489333E+04</pdfrwt>
<pdfrwt beam="2">  1       -1 0.20786779E+00 0.11489333E+04</pdfrwt>
<totfact> 0.15147019E+01</totfact>
</mgrwt>
</event>
<event>
 6    1  0.1014650E-006  0.3744931E+04  0.7818608E-02  0.8058077E-01
         -2   -1    0    0    0  501 -0.00000000000E+00  0.00000000000E+00  0.14857689070E+04  0.14857689070E+04  0.00000000000E+00 0.  1.
          2   -1    0    0  501    0  0.00000000000E+00 -0.00000000000E+00 -0.23598059755E+04  0.23598059755E+04  0.00000000000E+00 0. -1.
         23    2    1    2    0    0  0.12680298903E+04 -0.59923274078E+03 -0.17095703717E+04  0.22130628363E+04  0.89646982770E+02 0.  0.
         11    1    3    3    0    0  0.48045869352E+03 -0.27343702400E+03 -0.69249660679E+03  0.88609249670E+03  0.00000000000E+00 0.  1.
        -11    1    3    3    0    0  0.78757119678E+03 -0.32579571678E+03 -0.10170737649E+04  0.13269703396E+04  0.00000000000E+00 0. -1.
         22    1    1    2    0    0 -0.12680298903E+04  0.59923274078E+03  0.83553330314E+03  0.16325120462E+04  0.00000000000E+00 0.  1.
<mgrwt>
<rscale>  0 0.37449306E+04</rscale>
<asrwt>0</asrwt>
<pdfrwt beam="1">  1        2 0.36304707E+00 0.37449306E+04</pdfrwt>
<pdfrwt beam="2">  1       -2 0.22857983E+00 0.37449306E+04</pdfrwt>
<totfact> 0.29464261E-01</totfact>
</mgrwt>
</event>
<event>
 6    1  0.1014650E-006  0.5467353E+04  0.7818608E-02  0.7760197E-01
         -1   -1    0    0    0  501 -0.00000000000E+00  0.00000000000E+00  0.24669625274E+04  0.24669625274E+04  0.00000000000E+00 0.  1.
          1   -1    0    0  501    0  0.00000000000E+00 -0.00000000000E+00 -0.30292259451E+04  0.30292259451E+04  0.00000000000E+00 0. -1.
         23    2    1    2    0    0  0.64596505213E+03  0.17925237042E+04  0.16880538680E+04  0.25475718537E+04  0.10091783735E+03 0.  0.
         11    1    3    3    0    0  0.44248761463E+03  0.10829534444E+04  0.10364429402E+04  0.15629451110E+04  0.00000000000E+00 0. -1.
        -11    1    3    3    0    0  0.20347743750E+03  0.70957025981E+03  0.65161092783E+03  0.98462674270E+03  0.00000000000E+00 0.  1.
         22    1    1    2    0    0 -0.64596505213E+03 -0.17925237042E+04 -0.22503172857E+04  0.29486166188E+04  0.00000000000E+00 0. -1.
<mgrwt>
<rscale>  0 0.54673529E+04</rscale>
<asrwt>0</asrwt>
<pdfrwt beam="1">  1        1 0.46603476E+00 0.54673529E+04</pdfrwt>
<pdfrwt beam="2">  1       -1 0.37953270E+00 0.54673529E+04</pdfrwt>
<totfact> 0.39036285E-03</totfact>
</mgrwt>
</event>
<event>
 6    1  0.1014650E-006  0.1026952E+04  0.7818608E-02  0.9279468E-01
          1   -1    0    0  501    0  0.00000000000E+00  0.00000000000E+00  0.12040239851E+04  0.12040239851E+04  0.00000000000E+00 0. -1.
         -1   -1    0    0    0  501 -0.00000000000E+00 -0.00000000000E+00 -0.21898036809E+03  0.21898036809E+03  0.00000000000E+00 0.  1.
         23    2    1    2    0    0  0.34905664032E+03 -0.34312663859E+03  0.30184163876E+03  0.58256317658E+03  0.93247260287E+02 0.  0.
         13    1    3    3    0    0  0.38666569349E+02 -0.61343531208E+02  0.13507360511E+02  0.73760295514E+02  0.00000000000E+00 0.  1.
        -13    1    3    3    0    0  0.31039007097E+03 -0.28178310738E+03  0.28833427825E+03  0.50880288106E+03  0.00000000000E+00 0. -1.
         22    1    1    2    0    0 -0.34905664032E+03  0.34312663859E+03  0.68320197821E+03  0.84044117658E+03  0.00000000000E+00 0. -1.
<mgrwt>
<rscale>  0 0.10269520E+04</rscale>
<asrwt>0</asrwt>
<pdfrwt beam="1">  1        1 0.18523446E+00 0.10269520E+04</pdfrwt>
<pdfrwt beam="2">  1       -1 0.33689288E-01 0.10269520E+04</pdfrwt>
<totfact> 0.88187357E+01</totfact>
</mgrwt>
</event>
<event>
 6    1  0.1014650E-006  0.2179385E+04  0.7818608E-02  0.8527058E-01
         -2   -1    0    0    0  501 -0.00000000000E+00  0.00000000000E+00  0.61442215872E+03  0.61442215872E+03  0.00000000000E+00 0.  1.
          2   -1    0    0  501    0  0.00000000000E+00 -0.00000000000E+00 -0.19325953156E+04  0.19325953156E+04  0.00000000000E+00 0. -1.
         23    2    1    2    0    0  0.20549163802E+02 -0.10150307031E+04 -0.20427221170E+03  0.10398728521E+04  0.94333534251E+02 0.  0.
         13    1    3    3    0    0 -0.17817826445E+02 -0.83119237101E+03 -0.15487635708E+03  0.84568606382E+03  0.00000000000E+00 0.  1.
        -13    1    3    3    0    0  0.38366990247E+02 -0.18383833214E+03 -0.49395854613E+02  0.19418678832E+03  0.00000000000E+00 0. -1.
         22    1    1    2    0    0 -0.20549163802E+02  0.10150307031E+04 -0.11139009452E+04  0.15071446222E+04  0.00000000000E+00 0. -1.
<mgrwt>
<rscale>  0 0.21793847E+04</rscale>
<asrwt>0</asrwt>
<pdfrwt beam="1">  1        2 0.29732235E+00 0.21793847E+04</pdfrwt>
<pdfrwt beam="2">  1       -2 0.94526487E-01 0.21793847E+04</pdfrwt>
<totfact> 0.62878554E+00</totfact>
</mgrwt>
</event>
<event>
 6    1  0.1014650E-006  0.3788501E+04  0.7818608E-02  0.8048627E-01
          1   -1    0    0  501    0  0.00000000000E+00  0.00000000000E+00  0.17410140725E+04  0.17410140725E+04  0.00000000000E+00 0. -1.
         -1   -1    0    0    0  501 -0.00000000000E+00 -0.00000000000E+00 -0.20609737937E+04  0.20609737937E+04  0.00000000000E+00 0.  1.
         23    2    1    2    0    0 -0.28329934582E+03 -0.10434421800E+04  0.13993879170E+04  0.17709323762E+04  0.94259410292E+02 0.  0.
         13    1    3    3    0    0 -0.24628363249E+03 -0.94554771370E+03  0.12176543454E+04  0.15612169009E+04  0.00000000000E+00 0.  1.
        -13    1    3    3    0    0 -0.37015713332E+02 -0.97894466314E+02  0.18173357156E+03  0.20971547535E+03  0.00000000000E+00 0. -1.
         22    1    1    2    0    0  0.28329934582E+03  0.10434421800E+04 -0.17193476382E+04  0.20310554900E+04  0.00000000000E+00 0.  1.
<mgrwt>
<rscale>  0 0.37885007E+04</rscale>
<asrwt>0</asrwt>
<pdfrwt beam="1">  1        1 0.26784832E+00 0.37885007E+04</pdfrwt>
<pdfrwt beam="2">  1       -1 0.31707289E+00 0.37885007E+04</pdfrwt>
<totfact> 0.91006226E-02</totfact>
</mgrwt>
</event>
<event>
 6    1  0.1014650E-006  0.1521472E+04  0.7818608E-02  0.8870299E-01
         -2   -1    0    0    0  501 -0.00000000000E+00  0.00000000000E+00  0.16660180776E+03  0.16660180776E+03  0.00000000000E+00 0.  1.
          2   -1    0    0  501    0  0.00000000000E+00 -0.00000000000E+00 -0.34736655104E+04  0.34736655104E+04  0.00000000000E+00 0. -1.
         23    2    1    2    0    0 -0.55375332882E+03  0.48418442266E+03 -0.12223626740E+04  0.14295987128E+04  0.92220758450E+02 0.  0.
         13    1    3    3    0    0 -0.31496989467E+03  0.21682467617E+03 -0.60505407048E+03  0.71575792203E+03  0.00000000000E+00 0.  1.
        -13    1    3    3    0    0 -0.23878343415E+03  0.26735974650E+03 -0.61730860356E+03  0.71384079072E+03  0.00000000000E+00 0. -1.
         22    1    1    2    0    0  0.55375332882E+03 -0.48418442266E+03 -0.20847010286E+04  0.22106686054E+04  0.00000000000E+00 0. -1.
<mgrwt>
<rscale>  0 0.15214716E+04</rscale>
<asrwt>0</asrwt>
<pdfrwt beam="1">  1        2 0.53441010E+00 0.15214716E+04</pdfrwt>
<pdfrwt beam="2">  1       -2 0.25631046E-01 0.15214716E+04</pdfrwt>
<totfact> 0.11366231E+01</totfact>
</mgrwt>
</event>
<event>
 6    1  0.1014650E-006  0.1017119E+04  0.7818608E-02  0.9289966E-01
          1   -1    0    0  501    0  0.00000000000E+00  0.00000000000E+00  0.15234774609E+04  0.15234774609E+04  0.00000000000E+00 0. -1.
         -1   -1    0    0    0  501 -0.00000000000E+00 -0.00000000000E+00 -0.16976464343E+03  0.16976464343E+03  0.00000000000E+00 0.  1.
         23    2    1    2    0    0 -0.21647403458E+03 -0.16397442454E+03  0.13900371651E+04  0.14192565613E+04  0.91308525449E+02 0.  0.
         13    1    3    3    0    0 -0.58222675864E+02 -0.19770392396E+02  0.50314587774E+03  0.50688906349E+03  0.00000000000E+00 0. -1.
        -13    1    3    3    0    0 -0.15825135871E+03 -0.14420403215E+03  0.88689128737E+03  0.91236749779E+03  0.00000000000E+00 0.  1.
         22    1    1    2    0    0  0.21647403458E+03  0.16397442454E+03 -0.36324347670E+02  0.27398554302E+03  0.00000000000E+00 0.  1.
<mgrwt>
<rscale>  0 0.10171187E+04</rscale>
<asrwt>0</asrwt>
<pdfrwt beam="1">  1        1 0.23438114E+00 0.10171187E+04</pdfrwt>
<pdfrwt beam="2">  1       -1 0.26117638E-01 0.10171187E+04</pdfrwt>
<totfact> 0.81992346E+01</totfact>
</mgrwt>
</event>
<event>
 6    1  0.1014650E-006  0.4295923E+03  0.7818608E-02  0.1033989E+00
          2   -1    0    0  501    0  0.00000000000E+00  0.00000000000E+00  0.14145254499E+04  0.14145254499E+04  0.00000000000E+00 0. -1.
         -2   -1    0    0    0  501 -0.00000000000E+00 -0.00000000000E+00 -0.32616858635E+02  0.32616858635E+02  0.00000000000E+00 0.  1.
         23    2    1    2    0    0 -0.12815526403E+03  0.27509359491E+01  0.12610800221E+04  0.12709864614E+04  0.93018404773E+02 0.  0.
         13    1    3    3    0    0 -0.64140440287E+02  0.45363696485E+02  0.75841594441E+03  0.76247400334E+03  0.00000000000E+00 0.  1.
        -13    1    3    3    0    0 -0.64014823747E+02 -0.42612760536E+02  0.50266407766E+03  0.50851245805E+03  0.00000000000E+00 0. -1.
         22    1    1    2    0    0  0.12815526403E+03 -0.27509359491E+01  0.12082856918E+03  0.17615584713E+03  0.00000000000E+00 0.  1.
<mgrwt>
<rscale>  0 0.42959226E+03</rscale>
<asrwt>0</asrwt>
<pdfrwt beam="1">  1        2 0.21761925E+00 0.42959226E+03</pdfrwt>
<pdfrwt beam="2">  1       -2 0.50179794E-02 0.42959226E+03</pdfrwt>
<totfact> 0.29555725E+03</totfact>
</mgrwt>
</event>
<event>
 6    1  0.1014650E-006  0.5488662E+04  0.7818608E-02  0.7757251E-01
          1   -1    0    0  501    0  0.00000000000E+00  0.00000000000E+00  0.32125537463E+04  0.32125537463E+04  0.00000000000E+00 0. -1.
         -1   -1    0    0    0  501 -0.00000000000E+00 -0.00000000000E+00 -0.23443510489E+04  0.23443510489E+04  0.00000000000E+00 0.  1.
         23    2    1    2    0    0  0.23170939128E+04  0.12235268035E+04  0.12576245119E+04  0.29078311101E+04  0.88996136189E+02 0.  0.
         11    1    3    3    0    0  0.17979358034E+04  0.98460321857E+03  0.10049578241E+04  0.22829710641E+04  0.00000000000E+00 0.  1.
        -11    1    3    3    0    0  0.51915810935E+03  0.23892358495E+03  0.25266668784E+03  0.62486004600E+03  0.00000000000E+00 0. -1.
         22    1    1    2    0    0 -0.23170939128E+04 -0.12235268035E+04 -0.38942181448E+03  0.26490736851E+04  0.00000000000E+00 0.  1.
<mgrwt>
<rscale>  0 0.54886624E+04</rscale>
<asrwt>0</asrwt>
<pdfrwt beam="1">  1        1 0.49423904E+00 0.54886624E+04</pdfrwt>
<pdfrwt beam="2">  1       -1 0.36066939E+00 0.54886624E+04</pdfrwt>
<totfact> 0.38121323E-03</totfact>
</mgrwt>
</event>
<event>
 6    1  0.1014650E-006  0.1885957E+04  0.7818608E-02  0.8661878E-01
         -1   -1    0    0    0  501 -0.00000000000E+00  0.00000000000E+00  0.55711455632E+03  0.55711455632E+03  0.00000000000E+00 0.  1.
          1   -1    0    0  501    0  0.00000000000E+00 -0.00000000000E+00 -0.15960961185E+04  0.15960961185E+04  0.00000000000E+00 0. -1.
         23    2    1    2    0    0  0.68766972867E+03 -0.87711025344E+02  0.20627720474E+03  0.72799059487E+03  0.82687008225E+02 0.  0.
         13    1    3    3    0    0  0.58136713107E+03 -0.60556207452E+02  0.14462431955E+03  0.60213867934E+03  0.00000000000E+00 0.  1.
        -13    1    3    3    0    0  0.10630259760E+03 -0.27154817892E+02  0.61652885187E+02  0.12585191553E+03  0.00000000000E+00 0. -1.
         22    1    1    2    0    0 -0.68766972867E+03  0.87711025344E+02 -0.12452587669E+04  0.14252200799E+04  0.00000000000E+00 0.  1.
<mgrwt>
<rscale>  0 0.18859569E+04</rscale>
<asrwt>0</asrwt>
<pdfrwt beam="1">  1        1 0.24555325E+00 0.18859569E+04</pdfrwt>
<pdfrwt beam="2">  1       -1 0.85709933E-01 0.18859569E+04</pdfrwt>
<totfact> 0.70711193E+00</totfact>
</mgrwt>
</event>
<event>
 6    1  0.1014650E-006  0.3213199E+04  0.7818608E-02  0.8185340E-01
         -1   -1    0    0    0  501 -0.00000000000E+00  0.00000000000E+00  0.19635311516E+04  0.19635311516E+04  0.00000000000E+00 0.  1.
          1   -1    0    0  501    0  0.00000000000E+00 -0.00000000000E+00 -0.13145508679E+04  0.13145508679E+04  0.00000000000E+00 0. -1.
         23    2    1    2    0    0 -0.12615531006E+04 -0.58715262941E+03 -0.49193167947E+03  0.14786530702E+04  0.90297779032E+02 0.  0.
         11    1    3    3    0    0 -0.33460214866E+03 -0.12424129605E+03 -0.97460577878E+02  0.36999062390E+03  0.00000000000E+00 0.  1.
        -11    1    3    3    0    0 -0.92695095196E+03 -0.46291133336E+03 -0.39447110159E+03  0.11086624463E+04  0.00000000000E+00 0. -1.
         22    1    1    2    0    0  0.12615531006E+04  0.58715262941E+03  0.11409119631E+04  0.17994289493E+04  0.00000000000E+00 0.  1.
<mgrwt>
<rscale>  0 0.32131988E+04</rscale>
<asrwt>0</asrwt>
<pdfrwt beam="1">  1        1 0.20223859E+00 0.32131988E+04</pdfrwt>
<pdfrwt beam="2">  1       -1 0.30208172E+00 0.32131988E+04</pdfrwt>
<totfact> 0.23624868E-01</totfact>
</mgrwt>
</event>
<event>
 6    1  0.1014650E-006  0.1936860E+04  0.7818608E-02  0.8636723E-01
          2   -1    0    0  501    0  0.00000000000E+00  0.00000000000E+00  0.22924783152E+04  0.22924783152E+04  0.00000000000E+00 0. -1.
         -2   -1    0    0    0  501 -0.00000000000E+00 -0.00000000000E+00 -0.40910162629E+03  0.40910162629E+03  0.00000000000E+00 0.  1.
         23    2    1    2    0    0 -0.78326379300E+03 -0.55243076289E+03  0.11152164377E+04  0.14732672416E+04  0.90148460738E+02 0.  0.
         11    1    3    3    0    0 -0.37437628732E+03 -0.26222989404E+03  0.46318023937E+03  0.65073654883E+03  0.00000000000E+00 0.  1.
        -11    1    3    3    0    0 -0.40888750567E+03 -0.29020086885E+03  0.65203619833E+03  0.82253069274E+03  0.00000000000E+00 0. -1.
         22    1    1    2    0    0  0.78326379300E+03  0.55243076289E+03  0.76816025117E+03  0.12283126999E+04  0.00000000000E+00 0.  1.
<mgrwt>
<rscale>  0 0.19368599E+04</rscale>
<asrwt>0</asrwt>
<pdfrwt beam="1">  1        2 0.35268897E+00 0.19368599E+04</pdfrwt>
<pdfrwt beam="2">  1       -2 0.62938713E-01 0.19368599E+04</pdfrwt>
<totfact> 0.10004087E+01</totfact>
</mgrwt>
</event>
