<event>
 6    1  0.2995420E-002  0.9442063E+02  0.7546771E-02  0.1382900E+00
          2   -1    0    0  501    0  0.00000000000E+00  0.00000000000E+00  0.24782361706E+03  0.24782361706E+03  0.00000000000E+00 0. -1.
         -2   -1    0    0    0  501 -0.00000000000E+00 -0.00000000000E+00 -0.31325889950E+02  0.31325889950E+02  0.00000000000E+00 0.  1.
         23    2    1    2    0    0  0.19343454928E+02  0.29611755653E+01  0.23435296353E+03  0.25265899405E+03  0.92370546961E+02 0.  0.
         13    1    3    3    0    0  0.29699777733E+02 -0.36468882904E+02  0.17077559692E+03  0.17713373683E+03  0.00000000000E+00 0. -1.
        -13    1    3    3    0    0 -0.10356322805E+02  0.39430058469E+02  0.63577366611E+02  0.75525257220E+02  0.00000000000E+00 0.  1.
         22    1    1    2    0    0 -0.19343454928E+02 -0.29611755653E+01 -0.17855236425E+02  0.26490512964E+02  0.00000000000E+00 0.  1.
<mgrwt>
<rscale>  0 0.63707595E+02</rscale>
<asrwt>0</asrwt>
<pdfrwt beam="1">  1        2 0.38126709E-01 0.94420632E+02</pdfrwt>
<pdfrwt beam="2">  1       -2 0.48193678E-02 0.94420632E+02</pdfrwt>
<totfact> 0.24922208E+04</totfact>
</mgrwt>
</event>
<event>
 6    1  0.2995420E-002  0.1099669E+03  0.7546771E-02  0.1294418E+00
         -2   -1    0    0    0  501 -0.00000000000E+00  0.00000000000E+00  0.11772098182E+02  0.11772098182E+02  0.00000000000E+00 0.  1.
          2   -1    0    0  501    0  0.00000000000E+00 -0.00000000000E+00 -0.70694542562E+03  0.70694542562E+03  0.00000000000E+00 0. -1.
         23    2    1    2    0    0  0.57378830116E+02  0.56642244997E+01 -0.57508965148E+03  0.58550903002E+03  0.93639219398E+02 0.  0.
         11    1    3    3    0    0  0.90933006149E+01  0.26987594227E+02 -0.43293924929E+03  0.43387488050E+03  0.00000000000E+00 0. -1.
        -11    1    3    3    0    0  0.48285529501E+02 -0.21323369727E+02 -0.14215040219E+03  0.15163414951E+03  0.00000000000E+00 0.  1.
         22    1    1    2    0    0 -0.57378830116E+02 -0.56642244997E+01 -0.12008367596E+03  0.13320849379E+03  0.00000000000E+00 0.  1.
<mgrwt>
<rscale>  0 0.93575216E+02</rscale>
<asrwt>0</asrwt>
<pdfrwt beam="1">  1        2 0.10876085E+00 0.10996689E+03</pdfrwt>
<pdfrwt beam="2">  1       -2 0.18110917E-02 0.10996689E+03</pdfrwt>
<totfact> 0.34070601E+04</totfact>
</mgrwt>
</event>
<event>
 6    1  0.2995420E-002  0.9196052E+02  0.7546771E-02  0.1429269E+00
          2   -1    0    0  501    0  0.00000000000E+00  0.00000000000E+00  0.29158216773E+03  0.29158216773E+03  0.00000000000E+00 0. -1.
         -2   -1    0    0    0  501 -0.00000000000E+00 -0.00000000000E+00 -0.10333372432E+02  0.10333372432E+02  0.00000000000E+00 0.  1.
         23    2    1    2    0    0  0.90568437615E+01  0.47531581820E+01  0.27490792960E+03  0.28988119309E+03  0.91389919683E+02 0.  0.
         13    1    3    3    0    0  0.16648469019E+01  0.33607480571E+02  0.24628017617E+03  0.24856821929E+03  0.00000000000E+00 0. -1.
        -13    1    3    3    0    0  0.73919968596E+01 -0.28854322389E+02  0.28627753431E+02  0.41312973805E+02  0.00000000000E+00 0.  1.
         22    1    1    2    0    0 -0.90568437615E+01 -0.47531581820E+01  0.63408657007E+01  0.12034347072E+02  0.00000000000E+00 0. -1.
<mgrwt>
<rscale>  0 0.53107069E+02</rscale>
<asrwt>0</asrwt>
<pdfrwt beam="1">  1        2 0.44858789E-01 0.91960515E+02</pdfrwt>
<pdfrwt beam="2">  1       -2 0.15897498E-02 0.91960515E+02</pdfrwt>
<totfact> 0.10492688E+05</totfact>
</mgrwt>
</event>
<event>
 6    1  0.2995420E-002  0.9322719E+02  0.7546771E-02  0.1382759E+00
         -2   -1    0    0    0  501 -0.00000000000E+00  0.00000000000E+00  0.56973362710E+01  0.56973362710E+01  0.00000000000E+00 0.  1.
          2   -1    0    0  501    0  0.00000000000E+00 -0.00000000000E+00 -0.60543542726E+03  0.60543542726E+03  0.00000000000E+00 0. -1.
         23    2    1    2    0    0 -0.79857732926E+01  0.18746501728E+02 -0.54067382842E+03  0.54865243851E+03  0.90973103940E+02 0.  0.
         13    1    3    3    0    0  0.26125933859E+01  0.40215432861E+02 -0.49873485384E+03  0.50036043121E+03  0.00000000000E+00 0. -1.
        -13    1    3    3    0    0 -0.10598366678E+02 -0.21468931133E+02 -0.41938974583E+02  0.48292007302E+02  0.00000000000E+00 0.  1.
         22    1    1    2    0    0  0.79857732926E+01 -0.18746501728E+02 -0.59064262566E+02  0.62480325020E+02  0.00000000000E+00 0.  1.
<mgrwt>
<rscale>  0 0.63744047E+02</rscale>
<asrwt>0</asrwt>
<pdfrwt beam="1">  1        2 0.93143839E-01 0.93227193E+02</pdfrwt>
<pdfrwt beam="2">  1       -2 0.87651396E-03 0.93227193E+02</pdfrwt>
<totfact> 0.11232936E+05</totfact>
</mgrwt>
</event>
<event>
 6    1  0.2995420E-002  0.1141057E+03  0.7546771E-02  0.1279870E+00
          2   -1    0    0  501    0  0.00000000000E+00  0.00000000000E+00  0.55407424829E+03  0.55407424829E+03  0.00000000000E+00 0. -1.
         -2   -1    0    0    0  501 -0.00000000000E+00 -0.00000000000E+00 -0.15543208635E+02  0.15543208635E+02  0.00000000000E+00 0.  1.
         23    2    1    2    0    0 -0.58768753840E+02  0.33925460163E+02  0.38939606710E+03  0.40577013985E+03  0.91735522247E+02 0.  0.
         11    1    3    3    0    0  0.22897441008E+02 -0.53045332143E+01  0.79280369858E+02  0.82691038947E+02  0.00000000000E+00 0.  1.
        -11    1    3    3    0    0 -0.81666194848E+02  0.39229993377E+02  0.31011569724E+03  0.32307910090E+03  0.00000000000E+00 0. -1.
         22    1    1    2    0    0  0.58768753840E+02 -0.33925460163E+02  0.14913497255E+03  0.16384731708E+03  0.00000000000E+00 0. -1.
<mgrwt>
<rscale>  0 0.10020299E+03</rscale>
<asrwt>0</asrwt>
<pdfrwt beam="1">  1        2 0.85242177E-01 0.11410569E+03</pdfrwt>
<pdfrwt beam="2">  1       -2 0.23912633E-02 0.11410569E+03</pdfrwt>
<totfact> 0.30222313E+04</totfact>
</mgrwt>
</event>
<event>
 6    1  0.2995420E-002  0.1057805E+03  0.7546771E-02  0.1299239E+00
          1   -1    0    0  501    0  0.00000000000E+00  0.00000000000E+00  0.36283811753E+03  0.36283811753E+03  0.00000000000E+00 0. -1.
         -1   -1    0    0    0  501 -0.00000000000E+00 -0.00000000000E+00 -0.27881882469E+02  0.27881882469E+02  0.00000000000E+00 0.  1.
         23    2    1    2    0    0 -0.16742432831E+02  0.56826876658E+02  0.30795296866E+03  0.32561409117E+03  0.87635052886E+02 0.  0.
         11    1    3    3    0    0 -0.44441316530E+02  0.59982170299E+02  0.25589156839E+03  0.26655841037E+03  0.00000000000E+00 0. -1.
        -11    1    3    3    0    0  0.27698883699E+02 -0.31552936417E+01  0.52061400277E+02  0.59055680801E+02  0.00000000000E+00 0.  1.
         22    1    1    2    0    0  0.16742432831E+02 -0.56826876658E+02  0.27003266396E+02  0.65105908824E+02  0.00000000000E+00 0.  1.
<mgrwt>
<rscale>  0 0.91508478E+02</rscale>
<asrwt>0</asrwt>
<pdfrwt beam="1">  1        1 0.55821245E-01 0.10578046E+03</pdfrwt>
<pdfrwt beam="2">  1       -1 0.42895207E-02 0.10578046E+03</pdfrwt>
<totfact> 0.14032738E+04</totfact>
</mgrwt>
</event>
<event>
 6    1  0.2995420E-002  0.9662104E+02  0.7546771E-02  0.1352816E+00
         -3   -1    0    0    0  501 -0.00000000000E+00  0.00000000000E+00  0.65107001455E+02  0.65107001455E+02  0.00000000000E+00 0.  1.
          3   -1    0    0  501    0  0.00000000000E+00 -0.00000000000E+00 -0.12328782669E+03  0.12328782669E+03  0.00000000000E+00 0. -1.
         23    2    1    2    0    0  0.30016353556E+02  0.22552576193E+01 -0.98566632298E+02  0.13802538225E+03  0.91812621549E+02 0.  0.
         13    1    3    3    0    0  0.41001415573E+02 -0.10194246682E+02 -0.11002107118E+03  0.11785446470E+03  0.00000000000E+00 0. -1.
        -13    1    3    3    0    0 -0.10985062017E+02  0.12449504302E+02  0.11454438886E+02  0.20170917556E+02  0.00000000000E+00 0.  1.
         22    1    1    2    0    0 -0.30016353556E+02 -0.22552576193E+01  0.40385807060E+02  0.50369445894E+02  0.00000000000E+00 0.  1.
<mgrwt>
<rscale>  0 0.72185315E+02</rscale>
<asrwt>0</asrwt>
<pdfrwt beam="1">  1        3 0.18967358E-01 0.96621039E+02</pdfrwt>
<pdfrwt beam="2">  1       -3 0.10016462E-01 0.96621039E+02</pdfrwt>
<totfact> 0.38593562E+03</totfact>
</mgrwt>
</event>
<event>
 6    1  0.2995420E-002  0.9999308E+02  0.7546771E-02  0.1326363E+00
         -1   -1    0    0    0  501 -0.00000000000E+00  0.00000000000E+00  0.37026738092E+03  0.37026738092E+03  0.00000000000E+00 0.  1.
          1   -1    0    0  501    0  0.00000000000E+00 -0.00000000000E+00 -0.20912745557E+02  0.20912745557E+02  0.00000000000E+00 0. -1.
         23    2    1    2    0    0  0.42569230096E+02 -0.57798438777E+01  0.11272977752E+03  0.15068715507E+03  0.90294352082E+02 0.  0.
         13    1    3    3    0    0  0.56080775585E+02 -0.80926091999E+01  0.25066612789E+02  0.61958686159E+02  0.00000000000E+00 0. -1.
        -13    1    3    3    0    0 -0.13511545488E+02  0.23127653222E+01  0.87663164734E+02  0.88728468915E+02  0.00000000000E+00 0.  1.
         22    1    1    2    0    0 -0.42569230096E+02  0.57798438777E+01  0.23662485784E+03  0.24049297140E+03  0.00000000000E+00 0.  1.
<mgrwt>
<rscale>  0 0.80954886E+02</rscale>
<asrwt>0</asrwt>
<pdfrwt beam="1">  1        1 0.32173457E-02 0.99993080E+02</pdfrwt>
<pdfrwt beam="2">  1       -1 0.56964208E-01 0.99993080E+02</pdfrwt>
<totfact> 0.90955689E+03</totfact>
</mgrwt>
</event>
<event>
 6    1  0.2995420E-002  0.8846126E+02  0.7546771E-02  0.1381571E+00
         -2   -1    0    0    0  501 -0.00000000000E+00  0.00000000000E+00  0.16848316726E+02  0.16848316726E+02  0.00000000000E+00 0.  1.
          2   -1    0    0  501    0  0.00000000000E+00 -0.00000000000E+00 -0.18924010409E+03  0.18924010409E+03  0.00000000000E+00 0. -1.
         23    2    1    2    0    0 -0.23336098182E+02 -0.68319710058E+01 -0.13952409011E+03  0.16520401268E+03  0.85053775794E+02 0.  0.
         13    1    3    3    0    0  0.18753653504E+01  0.28015704863E+02 -0.11844412994E+02  0.30474363542E+02  0.00000000000E+00 0.  1.
        -13    1    3    3    0    0 -0.25211463532E+02 -0.34847675868E+02 -0.12767967712E+03  0.13472964914E+03  0.00000000000E+00 0. -1.
         22    1    1    2    0    0  0.23336098182E+02  0.68319710058E+01 -0.32867697248E+02  0.40884408135E+02  0.00000000000E+00 0. -1.
<mgrwt>
<rscale>  0 0.64052511E+02</rscale>
<asrwt>0</asrwt>
<pdfrwt beam="1">  1        2 0.29113863E-01 0.88461258E+02</pdfrwt>
<pdfrwt beam="2">  1       -2 0.25920487E-02 0.88461258E+02</pdfrwt>
<totfact> 0.81560150E+04</totfact>
</mgrwt>
</event>
<event>
 6    1  0.2995420E-002  0.9298045E+02  0.7546771E-02  0.1410958E+00
         -2   -1    0    0    0  501 -0.00000000000E+00  0.00000000000E+00  0.34062328287E+03  0.34062328287E+03  0.00000000000E+00 0.  1.
          2   -1    0    0  501    0  0.00000000000E+00 -0.00000000000E+00 -0.85167782987E+01  0.85167782987E+01  0.00000000000E+00 0. -1.
         23    2    1    2    0    0  0.81174349799E+01  0.10299640784E+02  0.26701936490E+03  0.28274494763E+03  0.92051012102E+02 0.  0.
         11    1    3    3    0    0 -0.41863035082E+02 -0.36921583265E+00  0.12223156284E+03  0.12920218644E+03  0.00000000000E+00 0.  1.
        -11    1    3    3    0    0  0.49980470062E+02  0.10668856616E+02  0.14478780206E+03  0.15354276119E+03  0.00000000000E+00 0. -1.
         22    1    1    2    0    0 -0.81174349799E+01 -0.10299640784E+02  0.65087139672E+02  0.66395113537E+02  0.00000000000E+00 0. -1.
<mgrwt>
<rscale>  0 0.56980599E+02</rscale>
<asrwt>0</asrwt>
<pdfrwt beam="1">  1        2 0.13102739E-02 0.92980451E+02</pdfrwt>
<pdfrwt beam="2">  1       -2 0.52403571E-01 0.92980451E+02</pdfrwt>
<totfact> 0.30095415E+04</totfact>
</mgrwt>
</event>
<event>
 6    1  0.2995420E-002  0.8907420E+02  0.7546771E-02  0.1420018E+00
          1   -1    0    0  501    0  0.00000000000E+00  0.00000000000E+00  0.26967570226E+03  0.26967570226E+03  0.00000000000E+00 0. -1.
         -1   -1    0    0    0  501 -0.00000000000E+00 -0.00000000000E+00 -0.11260822862E+02  0.11260822862E+02  0.00000000000E+00 0.  1.
         23    2    1    2    0    0  0.12062302209E+02 -0.47503226135E+01  0.25021489584E+03  0.26559688921E+03  0.88125755363E+02 0.  0.
         13    1    3    3    0    0  0.35212361140E+02  0.16091341717E+02  0.21552279047E+03  0.21897240663E+03  0.00000000000E+00 0. -1.
        -13    1    3    3    0    0 -0.23150058931E+02 -0.20841664330E+02  0.34692105377E+02  0.46624482582E+02  0.00000000000E+00 0.  1.
         22    1    1    2    0    0 -0.12062302209E+02  0.47503226135E+01  0.81999835538E+01  0.15339635909E+02  0.00000000000E+00 0. -1.
<mgrwt>
<rscale>  0 0.55017204E+02</rscale>
<asrwt>0</asrwt>
<pdfrwt beam="1">  1        1 0.41488565E-01 0.89074202E+02</pdfrwt>
<pdfrwt beam="2">  1       -1 0.17324345E-02 0.89074202E+02</pdfrwt>
<totfact> 0.73046179E+04</totfact>
</mgrwt>
</event>
<event>
 6    1  0.2995420E-002  0.9578597E+02  0.7546771E-02  0.1358462E+00
         -2   -1    0    0    0  501 -0.00000000000E+00  0.00000000000E+00  0.25320725689E+02  0.25320725689E+02  0.00000000000E+00 0.  1.
          2   -1    0    0  501    0  0.00000000000E+00 -0.00000000000E+00 -0.15581144783E+03  0.15581144783E+03  0.00000000000E+00 0. -1.
         23    2    1    2    0    0 -0.46553157651E+01  0.27691923993E+02 -0.87207266801E+02  0.12953787029E+03  0.91577496349E+02 0.  0.
         11    1    3    3    0    0 -0.42994798199E+02  0.30934926738E+02 -0.30842551816E+02  0.61292620820E+02  0.00000000000E+00 0.  1.
        -11    1    3    3    0    0  0.38339482434E+02 -0.32430027451E+01 -0.56364714985E+02  0.68245249472E+02  0.00000000000E+00 0. -1.
         22    1    1    2    0    0  0.46553157651E+01 -0.27691923993E+02 -0.43283455342E+02  0.51594303228E+02  0.00000000000E+00 0. -1.
<mgrwt>
<rscale>  0 0.70481908E+02</rscale>
<asrwt>0</asrwt>
<pdfrwt beam="1">  1        2 0.23970992E-01 0.95785972E+02</pdfrwt>
<pdfrwt beam="2">  1       -2 0.38954963E-02 0.95785972E+02</pdfrwt>
<totfact> 0.56224623E+04</totfact>
</mgrwt>
</event>
<event>
 6    1  0.2995420E-002  0.9071784E+02  0.7546771E-02  0.1410778E+00
          2   -1    0    0  501    0  0.00000000000E+00  0.00000000000E+00  0.15335832839E+03  0.15335832839E+03  0.00000000000E+00 0. -1.
         -2   -1    0    0    0  501 -0.00000000000E+00 -0.00000000000E+00 -0.19029278564E+02  0.19029278564E+02  0.00000000000E+00 0.  1.
         23    2    1    2    0    0  0.13288393079E+02 -0.48899786732E+01  0.12797618782E+03  0.15686819531E+03  0.89605986246E+02 0.  0.
         13    1    3    3    0    0 -0.30598728159E+02 -0.17746936923E+01  0.10032634923E+03  0.10490380381E+03  0.00000000000E+00 0. -1.
        -13    1    3    3    0    0  0.43887121238E+02 -0.31152849809E+01  0.27649838582E+02  0.51964391506E+02  0.00000000000E+00 0.  1.
         22    1    1    2    0    0 -0.13288393079E+02  0.48899786732E+01  0.63528620141E+01  0.15519411645E+02  0.00000000000E+00 0. -1.
<mgrwt>
<rscale>  0 0.57020628E+02</rscale>
<asrwt>0</asrwt>
<pdfrwt beam="1">  1        2 0.23593588E-01 0.90717838E+02</pdfrwt>
<pdfrwt beam="2">  1       -2 0.29275814E-02 0.90717838E+02</pdfrwt>
<totfact> 0.86186330E+04</totfact>
</mgrwt>
</event>
<event>
 6    1  0.2995420E-002  0.9319761E+02  0.7546771E-02  0.1396063E+00
         -2   -1    0    0    0  501 -0.00000000000E+00  0.00000000000E+00  0.42002038195E+02  0.42002038195E+02  0.00000000000E+00 0.  1.
          2   -1    0    0  501    0  0.00000000000E+00 -0.00000000000E+00 -0.71681252796E+02  0.71681252796E+02  0.00000000000E+00 0. -1.
         23    2    1    2    0    0 -0.16425431771E+02  0.11653112078E+01 -0.26724739669E+02  0.96953626285E+02  0.91731353311E+02 0.  0.
         11    1    3    3    0    0 -0.38130660760E+02  0.29793343950E+02 -0.35446903548E+02  0.59983944559E+02  0.00000000000E+00 0. -1.
        -11    1    3    3    0    0  0.21705228989E+02 -0.28628032743E+02  0.87221638793E+01  0.36969681726E+02  0.00000000000E+00 0.  1.
         22    1    1    2    0    0  0.16425431771E+02 -0.11653112078E+01 -0.29544749320E+01  0.16729664707E+02  0.00000000000E+00 0.  1.
<mgrwt>
<rscale>  0 0.60423423E+02</rscale>
<asrwt>0</asrwt>
<pdfrwt beam="1">  1        2 0.11027885E-01 0.93197607E+02</pdfrwt>
<pdfrwt beam="2">  1       -2 0.64618521E-02 0.93197607E+02</pdfrwt>
<totfact> 0.64262855E+04</totfact>
</mgrwt>
</event>
<event>
 6    1  0.2995420E-002  0.9278013E+02  0.7546771E-02  0.1404400E+00
          3   -1    0    0  501    0  0.00000000000E+00  0.00000000000E+00  0.85484848981E+01  0.85484848981E+01  0.00000000000E+00 0. -1.
         -3   -1    0    0    0  501 -0.00000000000E+00 -0.00000000000E+00 -0.33742744204E+03  0.33742744204E+03  0.00000000000E+00 0.  1.
         23    2    1    2    0    0  0.62771783266E+01  0.13211110745E+02 -0.28554627971E+03  0.30024128637E+03  0.91619952889E+02 0.  0.
         13    1    3    3    0    0  0.32409554404E+02 -0.10551116370E+02 -0.41732259028E+02  0.53882155830E+02  0.00000000000E+00 0. -1.
        -13    1    3    3    0    0 -0.26132376078E+02  0.23762227115E+02 -0.24381402068E+03  0.24635913054E+03  0.00000000000E+00 0.  1.
         22    1    1    2    0    0 -0.62771783266E+01 -0.13211110745E+02 -0.43332677426E+02  0.45734640567E+02  0.00000000000E+00 0. -1.
<mgrwt>
<rscale>  0 0.58462424E+02</rscale>
<asrwt>0</asrwt>
<pdfrwt beam="1">  1        3 0.13151514E-02 0.92780128E+02</pdfrwt>
<pdfrwt beam="2">  1       -3 0.51911917E-01 0.92780128E+02</pdfrwt>
<totfact> 0.13844092E+04</totfact>
</mgrwt>
</event>
<event>
 6    1  0.2995420E-002  0.9167645E+02  0.7546771E-02  0.1406414E+00
         -2   -1    0    0    0  501 -0.00000000000E+00  0.00000000000E+00  0.15411848078E+03  0.15411848078E+03  0.00000000000E+00 0. -1.
          2   -1    0    0  501    0  0.00000000000E+00 -0.00000000000E+00 -0.18373050037E+02  0.18373050037E+02  0.00000000000E+00 0.  1.
         23    2    1    2    0    0  0.51170132970E+01  0.13768902896E+02  0.11493354229E+03  0.14701799135E+03  0.90492011388E+02 0.  0.
         13    1    3    3    0    0 -0.37926038036E+02 -0.45697984389E+01  0.79920016213E+02  0.88580338735E+02  0.00000000000E+00 0. -1.
        -13    1    3    3    0    0  0.43043051333E+02  0.18338701335E+02  0.35013526074E+02  0.58437652612E+02  0.00000000000E+00 0.  1.
         22    1    1    2    0    0 -0.51170132970E+01 -0.13768902896E+02  0.20811888453E+02  0.25473539467E+02  0.00000000000E+00 0. -1.
<mgrwt>
<rscale>  0 0.58001781E+02</rscale>
<asrwt>0</asrwt>
<pdfrwt beam="1">  1        2 0.28266232E-02 0.91676445E+02</pdfrwt>
<pdfrwt beam="2">  1       -2 0.23710535E-01 0.91676445E+02</pdfrwt>
<totfact> 0.45739322E+04</totfact>
</mgrwt>
</event>
<event>
 6    1  0.2995420E-002  0.1048933E+03  0.7546771E-02  0.1350310E+00
          2   -1    0    0  501    0  0.00000000000E+00  0.00000000000E+00  0.23849952553E+03  0.23849952553E+03  0.00000000000E+00 0. -1.
         -2   -1    0    0    0  501 -0.00000000000E+00 -0.00000000000E+00 -0.25127256264E+02  0.25127256264E+02  0.00000000000E+00 0.  1.
         23    2    1    2    0    0 -0.15793490743E+02 -0.18797311077E+02  0.21479025599E+03  0.23903442647E+03  0.10197955540E+03 0.  0.
         13    1    3    3    0    0  0.25178262991E+02  0.27467929668E+02  0.12187658129E+03  0.12744541245E+03  0.00000000000E+00 0. -1.
        -13    1    3    3    0    0 -0.40971753734E+02 -0.46265240745E+02  0.92913674693E+02  0.11158901402E+03  0.00000000000E+00 0.  1.
         22    1    1    2    0    0  0.15793490743E+02  0.18797311077E+02 -0.14179867247E+01  0.24592355315E+02  0.00000000000E+00 0. -1.
<mgrwt>
<rscale>  0 0.72959196E+02</rscale>
<asrwt>0</asrwt>
<pdfrwt beam="1">  1        2 0.36692233E-01 0.10489329E+03</pdfrwt>
<pdfrwt beam="2">  1       -2 0.38657319E-02 0.10489329E+03</pdfrwt>
<totfact> 0.36395100E+04</totfact>
</mgrwt>
</event>
<event>
 6    1  0.2995420E-002  0.9391788E+02  0.7546771E-02  0.1387116E+00
         -2   -1    0    0    0  501 -0.00000000000E+00  0.00000000000E+00  0.92318650652E+01  0.92318650652E+01  0.00000000000E+00 0.  1.
          2   -1    0    0  501    0  0.00000000000E+00 -0.00000000000E+00 -0.35226423497E+03  0.35226423497E+03  0.00000000000E+00 0. -1.
         23    2    1    2    0    0 -0.13939237412E+02 -0.12273852479E+02 -0.30565563585E+03  0.31975918540E+03  0.92063125785E+02 0.  0.
         11    1    3    3    0    0  0.25768106202E+02 -0.37068059319E+02 -0.18266252450E+03  0.18815853469E+03  0.00000000000E+00 0.  1.
        -11    1    3    3    0    0 -0.39707343614E+02  0.24794206840E+02 -0.12299311135E+03  0.13160065071E+03  0.00000000000E+00 0. -1.
         22    1    1    2    0    0  0.13939237412E+02  0.12273852479E+02 -0.37376734060E+02  0.41736914636E+02  0.00000000000E+00 0. -1.
<mgrwt>
<rscale>  0 0.62629755E+02</rscale>
<asrwt>0</asrwt>
<pdfrwt beam="1">  1        2 0.54194497E-01 0.93917884E+02</pdfrwt>
<pdfrwt beam="2">  1       -2 0.14202869E-02 0.93917884E+02</pdfrwt>
<totfact> 0.10144092E+05</totfact>
</mgrwt>
</event>
<event>
 6    1  0.2995420E-002  0.1038746E+03  0.7546771E-02  0.1316440E+00
          2   -1    0    0  501    0  0.00000000000E+00  0.00000000000E+00  0.13153308802E+03  0.13153308802E+03  0.00000000000E+00 0. -1.
         -2   -1    0    0    0  501 -0.00000000000E+00 -0.00000000000E+00 -0.42932721703E+02  0.42932721703E+02  0.00000000000E+00 0.  1.
         23    2    1    2    0    0 -0.43398826194E+02  0.14441823024E+02  0.53710812660E+02  0.11693924784E+03  0.93262596586E+02 0.  0.
         11    1    3    3    0    0  0.14390232217E+02  0.37909946583E+02  0.13539954980E+02  0.42750125310E+02  0.00000000000E+00 0. -1.
        -11    1    3    3    0    0 -0.57789058411E+02 -0.23468123559E+02  0.40170857680E+02  0.74189122532E+02  0.00000000000E+00 0.  1.
         22    1    1    2    0    0  0.43398826194E+02 -0.14441823024E+02  0.34889553656E+02  0.57526561879E+02  0.00000000000E+00 0. -1.
<mgrwt>
<rscale>  0 0.84616084E+02</rscale>
<asrwt>0</asrwt>
<pdfrwt beam="1">  1        2 0.20235859E-01 0.10387462E+03</pdfrwt>
<pdfrwt beam="2">  1       -2 0.66050342E-02 0.10387462E+03</pdfrwt>
<totfact> 0.31184333E+04</totfact>
</mgrwt>
</event>
<event>
 6    1  0.2995420E-002  0.9668958E+02  0.7546771E-02  0.1367088E+00
         -2   -1    0    0    0  501 -0.00000000000E+00  0.00000000000E+00  0.40459842648E+03  0.40459842648E+03  0.00000000000E+00 0. -1.
          2   -1    0    0  501    0  0.00000000000E+00 -0.00000000000E+00 -0.90069058597E+01  0.90069058597E+01  0.00000000000E+00 0.  1.
         23    2    1    2    0    0  0.17442716158E+02 -0.15942359539E+02  0.30345555793E+03  0.31848728570E+03  0.93757497528E+02 0.  0.
         11    1    3    3    0    0 -0.11985640977E+02  0.27273567925E+02  0.20363699732E+03  0.20580459124E+03  0.00000000000E+00 0. -1.
        -11    1    3    3    0    0  0.29428357135E+02 -0.43215927464E+02  0.99818560608E+02  0.11268269447E+03  0.00000000000E+00 0.  1.
         22    1    1    2    0    0 -0.17442716158E+02  0.15942359539E+02  0.92135962693E+02  0.95118046637E+02  0.00000000000E+00 0. -1.
<mgrwt>
<rscale>  0 0.67983519E+02</rscale>
<asrwt>0</asrwt>
<pdfrwt beam="1">  1        2 0.13856781E-02 0.96689583E+02</pdfrwt>
<pdfrwt beam="2">  1       -2 0.62245898E-01 0.96689583E+02</pdfrwt>
<totfact> 0.19806942E+04</totfact>
</mgrwt>
</event>
<event>
 6    1  0.2995420E-002  0.9021120E+02  0.7546771E-02  0.1417061E+00
         -2   -1    0    0    0  501 -0.00000000000E+00  0.00000000000E+00  0.12127505104E+02  0.12127505104E+02  0.00000000000E+00 0.  1.
          2   -1    0    0  501    0  0.00000000000E+00 -0.00000000000E+00 -0.21992625561E+03  0.21992625561E+03  0.00000000000E+00 0. -1.
         23    2    1    2    0    0  0.74810814395E+00 -0.13040305709E+02 -0.18013041976E+03  0.20145726148E+03  0.89260578325E+02 0.  0.
         11    1    3    3    0    0  0.44395133970E+02 -0.11508878303E+02 -0.10452662156E+03  0.11414550720E+03  0.00000000000E+00 0.  1.
        -11    1    3    3    0    0 -0.43647025826E+02 -0.15314274069E+01 -0.75603798198E+02  0.87311754279E+02  0.00000000000E+00 0. -1.
         22    1    1    2    0    0 -0.74810814395E+00  0.13040305709E+02 -0.27668330747E+02  0.30596499230E+02  0.00000000000E+00 0. -1.
<mgrwt>
<rscale>  0 0.55647499E+02</rscale>
<asrwt>0</asrwt>
<pdfrwt beam="1">  1        2 0.33834805E-01 0.90211197E+02</pdfrwt>
<pdfrwt beam="2">  1       -2 0.18657702E-02 0.90211197E+02</pdfrwt>
<totfact> 0.11190001E+05</totfact>
</mgrwt>
</event>
<event>
 6    1  0.2995420E-002  0.8613188E+02  0.7546771E-02  0.1443683E+00
         -2   -1    0    0    0  501 -0.00000000000E+00  0.00000000000E+00  0.11327873758E+02  0.11327873758E+02  0.00000000000E+00 0.  1.
          2   -1    0    0  501    0  0.00000000000E+00 -0.00000000000E+00 -0.53005962981E+03  0.53005962981E+03  0.00000000000E+00 0. -1.
         23    2    1    2    0    0 -0.90454907399E+01 -0.43218783667E+01 -0.52332122214E+03  0.53036195441E+03  0.85546487989E+02 0.  0.
         11    1    3    3    0    0 -0.33986017652E+01 -0.44756549866E+02 -0.30003783974E+03  0.30337667103E+03  0.00000000000E+00 0.  1.
        -11    1    3    3    0    0 -0.56468889747E+01  0.40434671500E+02 -0.22328338240E+03  0.22698528337E+03  0.00000000000E+00 0. -1.
         22    1    1    2    0    0  0.90454907399E+01  0.43218783667E+01  0.45894660861E+01  0.11025549161E+02  0.00000000000E+00 0.  1.
<mgrwt>
<rscale>  0 0.50308742E+02</rscale>
<asrwt>0</asrwt>
<pdfrwt beam="1">  1        2 0.81547624E-01 0.86131882E+02</pdfrwt>
<pdfrwt beam="2">  1       -2 0.17427501E-02 0.86131882E+02</pdfrwt>
<totfact> 0.48484948E+04</totfact>
</mgrwt>
</event>
<event>
 6    1  0.2995420E-002  0.9038711E+02  0.7546771E-02  0.1405524E+00
          2   -1    0    0  501    0  0.00000000000E+00  0.00000000000E+00  0.72555835839E+02  0.72555835839E+02  0.00000000000E+00 0. -1.
         -2   -1    0    0    0  501 -0.00000000000E+00 -0.00000000000E+00 -0.44915760053E+02  0.44915760053E+02  0.00000000000E+00 0.  1.
         23    2    1    2    0    0  0.15212833353E+02 -0.31822435908E+01  0.38774295288E+02  0.98352814111E+02  0.89040850713E+02 0.  0.
         11    1    3    3    0    0  0.40819569077E+01 -0.15965856450E+02 -0.26338942245E+02  0.31069451604E+02  0.00000000000E+00 0.  1.
        -11    1    3    3    0    0  0.11130876445E+02  0.12783612860E+02  0.65113237533E+02  0.67283362507E+02  0.00000000000E+00 0. -1.
         22    1    1    2    0    0 -0.15212833353E+02  0.31822435908E+01 -0.11134219501E+02  0.19118781781E+02  0.00000000000E+00 0.  1.
<mgrwt>
<rscale>  0 0.58204603E+02</rscale>
<asrwt>0</asrwt>
<pdfrwt beam="1">  1        2 0.11162436E-01 0.90387112E+02</pdfrwt>
<pdfrwt beam="2">  1       -2 0.69101169E-02 0.90387112E+02</pdfrwt>
<totfact> 0.56983698E+04</totfact>
</mgrwt>
</event>
<event>
 6    1  0.2995420E-002  0.9660688E+02  0.7546771E-02  0.1336921E+00
          2   -1    0    0  501    0  0.00000000000E+00  0.00000000000E+00  0.94296505480E+03  0.94296505480E+03  0.00000000000E+00 0. -1.
         -2   -1    0    0    0  501 -0.00000000000E+00 -0.00000000000E+00 -0.61824437162E+01  0.61824437162E+01  0.00000000000E+00 0.  1.
         23    2    1    2    0    0 -0.36520215535E+02 -0.15261896580E+02  0.82353909153E+03  0.82918606158E+03  0.88126260655E+02 0.  0.
         11    1    3    3    0    0  0.20243315743E+02 -0.30696786162E+01  0.50397960708E+03  0.50439534010E+03  0.00000000000E+00 0. -1.
        -11    1    3    3    0    0 -0.56763531278E+02 -0.12192217964E+02  0.31955948445E+03  0.32479072148E+03  0.00000000000E+00 0.  1.
         22    1    1    2    0    0  0.36520215535E+02  0.15261896580E+02  0.11324351955E+03  0.11996143693E+03  0.00000000000E+00 0. -1.
<mgrwt>
<rscale>  0 0.77290764E+02</rscale>
<asrwt>0</asrwt>
<pdfrwt beam="1">  1        2 0.14507143E+00 0.96606881E+02</pdfrwt>
<pdfrwt beam="2">  1       -2 0.95114593E-03 0.96606881E+02</pdfrwt>
<totfact> 0.58928442E+04</totfact>
</mgrwt>
</event>
<event>
 6    1  0.2995420E-002  0.9175814E+02  0.7546771E-02  0.1427574E+00
         -2   -1    0    0    0  501 -0.00000000000E+00  0.00000000000E+00  0.24486423744E+01  0.24486423744E+01  0.00000000000E+00 0. -1.
          2   -1    0    0  501    0  0.00000000000E+00 -0.00000000000E+00 -0.14784902004E+04  0.14784902004E+04  0.00000000000E+00 0.  1.
         23    2    1    2    0    0  0.61576334569E+01 -0.85847715752E+01 -0.14490657882E+04  0.14519680487E+04  0.91147907835E+02 0.  0.
         11    1    3    3    0    0 -0.26769493631E+02  0.28245710988E+02 -0.44921616071E+03  0.45089864163E+03  0.00000000000E+00 0. -1.
        -11    1    3    3    0    0  0.32927127088E+02 -0.36830482563E+02 -0.99984962754E+03  0.10010694071E+04  0.00000000000E+00 0.  1.
         22    1    1    2    0    0 -0.61576334569E+01  0.85847715752E+01 -0.26975769825E+02  0.28970794094E+02  0.00000000000E+00 0. -1.
<mgrwt>
<rscale>  0 0.53450115E+02</rscale>
<asrwt>0</asrwt>
<pdfrwt beam="1">  1        2 0.22746018E+00 0.91758138E+02</pdfrwt>
<pdfrwt beam="2">  1       -2 0.37671396E-03 0.91758138E+02</pdfrwt>
<totfact> 0.10965089E+05</totfact>
</mgrwt>
</event>
<event>
 6    1  0.2995420E-002  0.8952528E+02  0.7546771E-02  0.1431381E+00
          2   -1    0    0  501    0  0.00000000000E+00  0.00000000000E+00  0.14383776012E+03  0.14383776012E+03  0.00000000000E+00 0.  1.
         -2   -1    0    0    0  501 -0.00000000000E+00 -0.00000000000E+00 -0.17915702171E+02  0.17915702171E+02  0.00000000000E+00 0. -1.
         23    2    1    2    0    0  0.57924572503E+01  0.90401375371E+01  0.11924024797E+03  0.14910738653E+03  0.88879127659E+02 0.  0.
         11    1    3    3    0    0 -0.12462846741E+02  0.40069047397E+02  0.99642979541E+02  0.10811833554E+03  0.00000000000E+00 0.  1.
        -11    1    3    3    0    0  0.18255303991E+02 -0.31028909860E+02  0.19597268427E+02  0.40989050986E+02  0.00000000000E+00 0. -1.
         22    1    1    2    0    0 -0.57924572503E+01 -0.90401375371E+01  0.66818099838E+01  0.12646075769E+02  0.00000000000E+00 0.  1.
<mgrwt>
<rscale>  0 0.52683781E+02</rscale>
<asrwt>0</asrwt>
<pdfrwt beam="1">  1        2 0.22128885E-01 0.89525281E+02</pdfrwt>
<pdfrwt beam="2">  1       -2 0.27562620E-02 0.89525281E+02</pdfrwt>
<totfact> 0.10072795E+05</totfact>
</mgrwt>
</event>
<event>
 6    1  0.2995420E-002  0.9390780E+02  0.7546771E-02  0.1374970E+00
          3   -1    0    0  501    0  0.00000000000E+00  0.00000000000E+00  0.53954832600E+02  0.53954832600E+02  0.00000000000E+00 0. -1.
         -3   -1    0    0    0  501 -0.00000000000E+00 -0.00000000000E+00 -0.66592727993E+02  0.66592727993E+02  0.00000000000E+00 0.  1.
         23    2    1    2    0    0  0.16958315419E+02  0.15002779082E+02  0.13788682519E+01  0.93917924750E+02  0.91137300101E+02 0.  0.
         13    1    3    3    0    0  0.10406400275E+02 -0.83344913219E+01 -0.42087978769E+02  0.44149234072E+02  0.00000000000E+00 0.  1.
        -13    1    3    3    0    0  0.65519151439E+01  0.23337270404E+02  0.43466847020E+02  0.49768690679E+02  0.00000000000E+00 0. -1.
         22    1    1    2    0    0 -0.16958315419E+02 -0.15002779082E+02 -0.14016763645E+02  0.26629635843E+02  0.00000000000E+00 0.  1.
<mgrwt>
<rscale>  0 0.65804526E+02</rscale>
<asrwt>0</asrwt>
<pdfrwt beam="1">  1        3 0.83007435E-02 0.93907802E+02</pdfrwt>
<pdfrwt beam="2">  1       -3 0.10245035E-01 0.93907802E+02</pdfrwt>
<totfact> 0.14707625E+04</totfact>
</mgrwt>
</event>
<event>
 6    1  0.2995420E-002  0.9421323E+02  0.7546771E-02  0.1365429E+00
         -2   -1    0    0    0  501 -0.00000000000E+00  0.00000000000E+00  0.13060235529E+02  0.13060235529E+02  0.00000000000E+00 0.  1.
          2   -1    0    0  501    0  0.00000000000E+00 -0.00000000000E+00 -0.29315925323E+03  0.29315925323E+03  0.00000000000E+00 0. -1.
         23    2    1    2    0    0 -0.61323408459E+01  0.25532568606E+02 -0.18564096865E+03  0.20817949338E+03  0.90479912454E+02 0.  0.
         11    1    3    3    0    0  0.40554150386E+02  0.63781757264E+01 -0.59208633602E+02  0.72048473489E+02  0.00000000000E+00 0.  1.
        -11    1    3    3    0    0 -0.46686491232E+02  0.19154392880E+02 -0.12643233505E+03  0.13613101989E+03  0.00000000000E+00 0. -1.
         22    1    1    2    0    0  0.61323408459E+01 -0.25532568606E+02 -0.94458049044E+02  0.98039995375E+02  0.00000000000E+00 0.  1.
<mgrwt>
<rscale>  0 0.68454513E+02</rscale>
<asrwt>0</asrwt>
<pdfrwt beam="1">  1        2 0.45101418E-01 0.94213227E+02</pdfrwt>
<pdfrwt beam="2">  1       -2 0.20092673E-02 0.94213227E+02</pdfrwt>
<totfact> 0.74848094E+04</totfact>
</mgrwt>
</event>
<event>
 6    1  0.2995420E-002  0.1015908E+03  0.7546771E-02  0.1361979E+00
          1   -1    0    0  501    0  0.00000000000E+00  0.00000000000E+00  0.88927515830E+03  0.88927515830E+03  0.00000000000E+00 0. -1.
         -1   -1    0    0    0  501 -0.00000000000E+00 -0.00000000000E+00 -0.79209056342E+01  0.79209056342E+01  0.00000000000E+00 0.  1.
         23    2    1    2    0    0  0.14383412138E+02  0.16892210926E+02  0.86135835525E+03  0.86732860257E+03  0.99138586564E+02 0.  0.
         13    1    3    3    0    0  0.25184695315E+02  0.10770555313E+02  0.85018377152E+03  0.85062489917E+03  0.00000000000E+00 0. -1.
        -13    1    3    3    0    0 -0.10801283177E+02  0.61216556131E+01  0.11174583737E+02  0.16703703404E+02  0.00000000000E+00 0.  1.
         22    1    1    2    0    0 -0.14383412138E+02 -0.16892210926E+02  0.19995897414E+02  0.29867461360E+02  0.00000000000E+00 0.  1.
<mgrwt>
<rscale>  0 0.69448311E+02</rscale>
<asrwt>0</asrwt>
<pdfrwt beam="1">  1        1 0.13681148E+00 0.10159079E+03</pdfrwt>
<pdfrwt beam="2">  1       -1 0.12186016E-02 0.10159079E+03</pdfrwt>
<totfact> 0.25399038E+04</totfact>
</mgrwt>
</event>
<event>
 6    1  0.2995420E-002  0.9475466E+02  0.7546771E-02  0.1342665E+00
         -2   -1    0    0    0  501 -0.00000000000E+00  0.00000000000E+00  0.21701823334E+02  0.21701823334E+02  0.00000000000E+00 0.  1.
          2   -1    0    0  501    0  0.00000000000E+00 -0.00000000000E+00 -0.70774563067E+03  0.70774563067E+03  0.00000000000E+00 0. -1.
         23    2    1    2    0    0  0.13452671018E+02 -0.35509769325E+02 -0.68493552274E+03  0.69145868764E+03  0.86813180643E+02 0.  0.
         11    1    3    3    0    0  0.30070256838E+02 -0.29540845200E+02 -0.65738796325E+03  0.65873804818E+03  0.00000000000E+00 0. -1.
        -11    1    3    3    0    0 -0.16617585820E+02 -0.59689241252E+01 -0.27547559484E+02  0.32720639469E+02  0.00000000000E+00 0.  1.
         22    1    1    2    0    0 -0.13452671018E+02  0.35509769325E+02 -0.11082846002E+01  0.37988766363E+02  0.00000000000E+00 0.  1.
<mgrwt>
<rscale>  0 0.75390743E+02</rscale>
<asrwt>0</asrwt>
<pdfrwt beam="1">  1        2 0.10888392E+00 0.94754664E+02</pdfrwt>
<pdfrwt beam="2">  1       -2 0.33387427E-02 0.94754664E+02</pdfrwt>
<totfact> 0.13827141E+04</totfact>
</mgrwt>
</event>
<event>
 6    1  0.2995420E-002  0.8874786E+02  0.7546771E-02  0.1426667E+00
         -2   -1    0    0    0  501 -0.00000000000E+00  0.00000000000E+00  0.12559613989E+02  0.12559613989E+02  0.00000000000E+00 0.  1.
          2   -1    0    0  501    0  0.00000000000E+00 -0.00000000000E+00 -0.21538115493E+03  0.21538115493E+03  0.00000000000E+00 0. -1.
         23    2    1    2    0    0  0.10469814082E+02  0.55268697614E+01 -0.19346955284E+03  0.21285358967E+03  0.87954644346E+02 0.  0.
         13    1    3    3    0    0 -0.12668905023E+02  0.42827963223E+02 -0.90602317412E+02  0.10101245225E+03  0.00000000000E+00 0. -1.
        -13    1    3    3    0    0  0.23138719105E+02 -0.37301093461E+02 -0.10286723543E+03  0.11184113742E+03  0.00000000000E+00 0.  1.
         22    1    1    2    0    0 -0.10469814082E+02 -0.55268697614E+01 -0.93519880984E+01  0.15087179248E+02  0.00000000000E+00 0.  1.
<mgrwt>
<rscale>  0 0.53634929E+02</rscale>
<asrwt>0</asrwt>
<pdfrwt beam="1">  1        2 0.33135564E-01 0.88747861E+02</pdfrwt>
<pdfrwt beam="2">  1       -2 0.19322482E-02 0.88747861E+02</pdfrwt>
<totfact> 0.10852283E+05</totfact>
</mgrwt>
</event>
<event>
 6    1  0.2995420E-002  0.9340302E+02  0.7546771E-02  0.1379750E+00
          2   -1    0    0  501    0  0.00000000000E+00  0.00000000000E+00  0.68734378050E+03  0.68734378050E+03  0.00000000000E+00 0.  1.
         -2   -1    0    0    0  501 -0.00000000000E+00 -0.00000000000E+00 -0.49560952699E+01  0.49560952699E+01  0.00000000000E+00 0. -1.
         23    2    1    2    0    0  0.39630904618E+01  0.20906817822E+02  0.59907660372E+03  0.60631419429E+03  0.90946819370E+02 0.  0.
         11    1    3    3    0    0  0.12681280825E+02  0.37717550852E+02  0.57137220469E+03  0.57275616523E+03  0.00000000000E+00 0.  1.
        -11    1    3    3    0    0 -0.87181903629E+01 -0.16810733030E+02  0.27704399035E+02  0.33558029055E+02  0.00000000000E+00 0. -1.
         22    1    1    2    0    0 -0.39630904618E+01 -0.20906817822E+02  0.83311081507E+02  0.85985681478E+02  0.00000000000E+00 0. -1.
<mgrwt>
<rscale>  0 0.64529625E+02</rscale>
<asrwt>0</asrwt>
<pdfrwt beam="1">  1        2 0.10574512E+00 0.93403025E+02</pdfrwt>
<pdfrwt beam="2">  1       -2 0.76247674E-03 0.93403025E+02</pdfrwt>
<totfact> 0.11835299E+05</totfact>
</mgrwt>
</event>
<event>
 6    1  0.2995420E-002  0.9289936E+02  0.7546771E-02  0.1411657E+00
         -2   -1    0    0    0  501 -0.00000000000E+00  0.00000000000E+00  0.32042045433E+02  0.32042045433E+02  0.00000000000E+00 0.  1.
          2   -1    0    0  501    0  0.00000000000E+00 -0.00000000000E+00 -0.90137402446E+02  0.90137402446E+02  0.00000000000E+00 0. -1.
         23    2    1    2    0    0 -0.10479131250E+02  0.77033848261E+01 -0.57299711833E+02  0.10914919919E+03  0.91984435527E+02 0.  0.
         13    1    3    3    0    0 -0.44549919547E+02  0.11439508085E+02 -0.59026094391E+02  0.74830725614E+02  0.00000000000E+00 0. -1.
        -13    1    3    3    0    0  0.34070788297E+02 -0.37361232584E+01  0.17263825584E+01  0.34318473581E+02  0.00000000000E+00 0.  1.
         22    1    1    2    0    0  0.10479131250E+02 -0.77033848261E+01 -0.79564518079E+00  0.13030248685E+02  0.00000000000E+00 0. -1.
<mgrwt>
<rscale>  0 0.56825717E+02</rscale>
<asrwt>0</asrwt>
<pdfrwt beam="1">  1        2 0.13867292E-01 0.92899358E+02</pdfrwt>
<pdfrwt beam="2">  1       -2 0.49295455E-02 0.92899358E+02</pdfrwt>
<totfact> 0.73421774E+04</totfact>
</mgrwt>
</event>
<event>
 6    1  0.2995420E-002  0.9245026E+02  0.7546771E-02  0.1415715E+00
          2   -1    0    0  501    0  0.00000000000E+00  0.00000000000E+00  0.18368796626E+04  0.18368796626E+04  0.00000000000E+00 0.  1.
         -2   -1    0    0    0  501 -0.00000000000E+00 -0.00000000000E+00 -0.25498095176E+01  0.25498095176E+01  0.00000000000E+00 0. -1.
         23    2    1    2    0    0 -0.11299997803E+02 -0.50834943217E+01  0.18076512189E+04  0.18100138065E+04  0.91616147393E+02 0.  0.
         11    1    3    3    0    0  0.37395548912E+01  0.17197781893E+02  0.16495218010E+04  0.16496156886E+04  0.00000000000E+00 0.  1.
        -11    1    3    3    0    0 -0.15039552695E+02 -0.22281276215E+02  0.15812941790E+03  0.16039811788E+03  0.00000000000E+00 0. -1.
         22    1    1    2    0    0  0.11299997803E+02  0.50834943217E+01  0.26678634129E+02  0.29415665620E+02  0.00000000000E+00 0. -1.
<mgrwt>
<rscale>  0 0.55937868E+02</rscale>
<asrwt>0</asrwt>
<pdfrwt beam="1">  1        2 0.28259581E+00 0.92450259E+02</pdfrwt>
<pdfrwt beam="2">  1       -2 0.39227986E-03 0.92450259E+02</pdfrwt>
<totfact> 0.68351990E+04</totfact>
</mgrwt>
</event>
<event>
 6    1  0.2995420E-002  0.9261614E+02  0.7546771E-02  0.1398134E+00
          2   -1    0    0  501    0  0.00000000000E+00  0.00000000000E+00  0.10852265550E+03  0.10852265550E+03  0.00000000000E+00 0. -1.
         -2   -1    0    0    0  501 -0.00000000000E+00 -0.00000000000E+00 -0.35120751535E+02  0.35120751535E+02  0.00000000000E+00 0.  1.
         23    2    1    2    0    0 -0.16133004057E+02  0.18200864521E+01  0.83352841918E+02  0.12460114612E+03  0.91182031253E+02 0.  0.
         13    1    3    3    0    0 -0.20159764454E+02 -0.33409327183E+02  0.79969162319E+02  0.88981268634E+02  0.00000000000E+00 0. -1.
        -13    1    3    3    0    0  0.40267603971E+01  0.35229413635E+02  0.33836795987E+01  0.35619877484E+02  0.00000000000E+00 0.  1.
         22    1    1    2    0    0  0.16133004057E+02 -0.18200864521E+01 -0.99509379540E+01  0.19042260915E+02  0.00000000000E+00 0. -1.
<mgrwt>
<rscale>  0 0.59928086E+02</rscale>
<asrwt>0</asrwt>
<pdfrwt beam="1">  1        2 0.16695793E-01 0.92616140E+02</pdfrwt>
<pdfrwt beam="2">  1       -2 0.54031926E-02 0.92616140E+02</pdfrwt>
<totfact> 0.51664669E+04</totfact>
</mgrwt>
</event>
<event>
 6    1  0.2995420E-002  0.1112679E+03  0.7546771E-02  0.1384981E+00
          2   -1    0    0  501    0  0.00000000000E+00  0.00000000000E+00  0.21179157033E+04  0.21179157033E+04  0.00000000000E+00 0. -1.
         -2   -1    0    0    0  501 -0.00000000000E+00 -0.00000000000E+00 -0.22609003418E+01  0.22609003418E+01  0.00000000000E+00 0.  1.
         23    2    1    2    0    0  0.87187120666E+01  0.75922582020E+01  0.20729647648E+04  0.20759488105E+04  0.11066566566E+03 0.  0.
         13    1    3    3    0    0 -0.35188352662E+02  0.18064341053E+02  0.16692296251E+04  0.16696982008E+04  0.00000000000E+00 0. -1.
        -13    1    3    3    0    0  0.43907064729E+02 -0.10472082851E+02  0.40373513971E+03  0.40625060971E+03  0.00000000000E+00 0.  1.
         22    1    1    2    0    0 -0.87187120666E+01 -0.75922582020E+01  0.42690038165E+02  0.44227793108E+02  0.00000000000E+00 0.  1.
<mgrwt>
<rscale>  0 0.63172338E+02</rscale>
<asrwt>0</asrwt>
<pdfrwt beam="1">  1        2 0.32583160E+00 0.11126791E+03</pdfrwt>
<pdfrwt beam="2">  1       -2 0.34783252E-03 0.11126791E+03</pdfrwt>
<totfact> 0.59285943E+04</totfact>
</mgrwt>
</event>
<event>
 6    1  0.2995420E-002  0.9243416E+02  0.7546771E-02  0.1387706E+00
         -2   -1    0    0    0  501 -0.00000000000E+00  0.00000000000E+00  0.88523281042E+02  0.88523281042E+02  0.00000000000E+00 0.  1.
          2   -1    0    0  501    0  0.00000000000E+00 -0.00000000000E+00 -0.56566200878E+02  0.56566200878E+02  0.00000000000E+00 0. -1.
         23    2    1    2    0    0  0.85247350067E+01  0.17312086226E+02 -0.15622981306E+02  0.93745137675E+02  0.90397421735E+02 0.  0.
         11    1    3    3    0    0 -0.32756597079E+02  0.59635627240E+01  0.19309558509E+02  0.38489190462E+02  0.00000000000E+00 0.  1.
        -11    1    3    3    0    0  0.41281332086E+02  0.11348523502E+02 -0.34932539815E+02  0.55255947213E+02  0.00000000000E+00 0. -1.
         22    1    1    2    0    0 -0.85247350067E+01 -0.17312086226E+02  0.47580061470E+02  0.51344344245E+02  0.00000000000E+00 0.  1.
<mgrwt>
<rscale>  0 0.62480943E+02</rscale>
<asrwt>0</asrwt>
<pdfrwt beam="1">  1        2 0.87024925E-02 0.92434157E+02</pdfrwt>
<pdfrwt beam="2">  1       -2 0.13618966E-01 0.92434157E+02</pdfrwt>
<totfact> 0.26950490E+04</totfact>
</mgrwt>
</event>
<event>
 6    1  0.2995420E-002  0.1100181E+03  0.7546771E-02  0.1291048E+00
          2   -1    0    0  501    0  0.00000000000E+00  0.00000000000E+00  0.25068185802E+03  0.25068185802E+03  0.00000000000E+00 0. -1.
         -2   -1    0    0    0  501 -0.00000000000E+00 -0.00000000000E+00 -0.38494455467E+02  0.38494455467E+02  0.00000000000E+00 0.  1.
         23    2    1    2    0    0  0.47599805500E+02  0.38644917632E+02  0.60476107975E+02  0.12554414047E+03  0.91349879195E+02 0.  0.
         13    1    3    3    0    0  0.36514553889E+02 -0.16635076296E+02  0.56128870440E+02  0.68996293421E+02  0.00000000000E+00 0. -1.
        -13    1    3    3    0    0  0.11085251611E+02  0.55279993928E+02  0.43472375353E+01  0.56547847052E+02  0.00000000000E+00 0.  1.
         22    1    1    2    0    0 -0.47599805500E+02 -0.38644917632E+02  0.15171129458E+03  0.16363217302E+03  0.00000000000E+00 0. -1.
<mgrwt>
<rscale>  0 0.95057081E+02</rscale>
<asrwt>0</asrwt>
<pdfrwt beam="1">  1        2 0.38566439E-01 0.11001805E+03</pdfrwt>
<pdfrwt beam="2">  1       -2 0.59222241E-02 0.11001805E+03</pdfrwt>
<totfact> 0.18384832E+04</totfact>
</mgrwt>
</event>
<event>
 6    1  0.2995420E-002  0.9325133E+02  0.7546771E-02  0.1392733E+00
         -2   -1    0    0    0  501 -0.00000000000E+00  0.00000000000E+00  0.35327451802E+02  0.35327451802E+02  0.00000000000E+00 0.  1.
          2   -1    0    0  501    0  0.00000000000E+00 -0.00000000000E+00 -0.97058093218E+02  0.97058093218E+02  0.00000000000E+00 0. -1.
         23    2    1    2    0    0 -0.11263480120E+00  0.17335586247E+02 -0.66347166942E+02  0.11444543507E+03  0.91625737705E+02 0.  0.
         13    1    3    3    0    0  0.17293990992E+02 -0.30632206705E+02 -0.49463529751E+02  0.60696416595E+02  0.00000000000E+00 0. -1.
        -13    1    3    3    0    0 -0.17406625793E+02  0.47967792952E+02 -0.16883637190E+02  0.53749018474E+02  0.00000000000E+00 0.  1.
         22    1    1    2    0    0  0.11263480120E+00 -0.17335586247E+02  0.46165255259E+01  0.17940109951E+02  0.00000000000E+00 0. -1.
<mgrwt>
<rscale>  0 0.61231967E+02</rscale>
<asrwt>0</asrwt>
<pdfrwt beam="1">  1        2 0.14932014E-01 0.93251333E+02</pdfrwt>
<pdfrwt beam="2">  1       -2 0.54349925E-02 0.93251333E+02</pdfrwt>
<totfact> 0.58285935E+04</totfact>
</mgrwt>
</event>
<event>
 6    1  0.2995420E-002  0.9347374E+02  0.7546771E-02  0.1381383E+00
         -4   -1    0    0    0  501 -0.00000000000E+00  0.00000000000E+00  0.76758183073E+02  0.76758183073E+02  0.00000000000E+00 0.  1.
          4   -1    0    0  501    0  0.00000000000E+00 -0.00000000000E+00 -0.63884657757E+02  0.63884657757E+02  0.00000000000E+00 0. -1.
         23    2    1    2    0    0  0.14043289325E+02  0.15171193582E+02 -0.25644457968E+02  0.96927693272E+02  0.91158984246E+02 0.  0.
         13    1    3    3    0    0  0.12895135169E+02 -0.33573967185E+02  0.90486864808E+01  0.37086041992E+02  0.00000000000E+00 0.  1.
        -13    1    3    3    0    0  0.11481541552E+01  0.48745160767E+02 -0.34693144449E+02  0.59841651280E+02  0.00000000000E+00 0. -1.
         22    1    1    2    0    0 -0.14043289325E+02 -0.15171193582E+02  0.38517983284E+02  0.43715147558E+02  0.00000000000E+00 0. -1.
<mgrwt>
<rscale>  0 0.64101599E+02</rscale>
<asrwt>0</asrwt>
<pdfrwt beam="1">  1        4 0.98284089E-02 0.93473737E+02</pdfrwt>
<pdfrwt beam="2">  1       -4 0.11808951E-01 0.93473737E+02</pdfrwt>
<totfact> 0.65770815E+03</totfact>
</mgrwt>
</event>
<event>
 6    1  0.2995420E-002  0.9396950E+02  0.7546771E-02  0.1361823E+00
          1   -1    0    0  501    0  0.00000000000E+00  0.00000000000E+00  0.20842350761E+03  0.20842350761E+03  0.00000000000E+00 0. -1.
         -1   -1    0    0    0  501 -0.00000000000E+00 -0.00000000000E+00 -0.25594704907E+02  0.25594704907E+02  0.00000000000E+00 0.  1.
         23    2    1    2    0    0 -0.19765835294E+02 -0.19983844339E+02  0.18321512582E+03  0.20590786701E+03  0.89667302222E+02 0.  0.
         13    1    3    3    0    0  0.80268210644E+01 -0.23502721114E+02  0.17494366075E+03  0.17669774247E+03  0.00000000000E+00 0. -1.
        -13    1    3    3    0    0 -0.27792656359E+02  0.35188767748E+01  0.82714650649E+01  0.29210124538E+02  0.00000000000E+00 0.  1.
         22    1    1    2    0    0  0.19765835294E+02  0.19983844339E+02 -0.38632310940E+00  0.28110345515E+02  0.00000000000E+00 0.  1.
<mgrwt>
<rscale>  0 0.69493868E+02</rscale>
<asrwt>0</asrwt>
<pdfrwt beam="1">  1        1 0.32065154E-01 0.93969502E+02</pdfrwt>
<pdfrwt beam="2">  1       -1 0.39376470E-02 0.93969502E+02</pdfrwt>
<totfact> 0.30994128E+04</totfact>
</mgrwt>
</event>
<event>
 6    1  0.2995420E-002  0.9230167E+02  0.7546771E-02  0.1407540E+00
         -4   -1    0    0    0  501 -0.00000000000E+00  0.00000000000E+00  0.46285165069E+02  0.46285165069E+02  0.00000000000E+00 0.  1.
          4   -1    0    0  501    0  0.00000000000E+00 -0.00000000000E+00 -0.62500001032E+02  0.62500001032E+02  0.00000000000E+00 0. -1.
         23    2    1    2    0    0 -0.86636698486E+01 -0.11175903049E+02 -0.85398895250E+01  0.92695890572E+02  0.91212052009E+02 0.  0.
         11    1    3    3    0    0 -0.42833960538E+02  0.18272673797E+02  0.10423507622E+01  0.46580309984E+02  0.00000000000E+00 0. -1.
        -11    1    3    3    0    0  0.34170290690E+02 -0.29448576846E+02 -0.95822402872E+01  0.46115580588E+02  0.00000000000E+00 0.  1.
         22    1    1    2    0    0  0.86636698486E+01  0.11175903049E+02 -0.76749464383E+01  0.16089275529E+02  0.00000000000E+00 0.  1.
<mgrwt>
<rscale>  0 0.57746419E+02</rscale>
<asrwt>0</asrwt>
<pdfrwt beam="1">  1        4 0.96153848E-02 0.92301671E+02</pdfrwt>
<pdfrwt beam="2">  1       -4 0.71207946E-02 0.92301671E+02</pdfrwt>
<totfact> 0.15741025E+04</totfact>
</mgrwt>
</event>
<event>
 6    1  0.2995420E-002  0.8273315E+02  0.7546771E-02  0.1419457E+00
          2   -1    0    0  501    0  0.00000000000E+00  0.00000000000E+00  0.14149670259E+04  0.14149670259E+04  0.00000000000E+00 0. -1.
         -2   -1    0    0    0  501 -0.00000000000E+00 -0.00000000000E+00 -0.27738122230E+01  0.27738122230E+01  0.00000000000E+00 0.  1.
         23    2    1    2    0    0  0.15572713935E+02 -0.48795777778E+01  0.13700883472E+04  0.13725840061E+04  0.81107674964E+02 0.  0.
         11    1    3    3    0    0  0.36061407081E+02  0.26736299321E+02  0.78814024011E+03  0.78941769226E+03  0.00000000000E+00 0. -1.
        -11    1    3    3    0    0 -0.20488693146E+02 -0.31615877099E+02  0.58194810707E+03  0.58316631380E+03  0.00000000000E+00 0.  1.
         22    1    1    2    0    0 -0.15572713935E+02  0.48795777778E+01  0.42104866520E+02  0.45156832077E+02  0.00000000000E+00 0.  1.
<mgrwt>
<rscale>  0 0.55135979E+02</rscale>
<asrwt>0</asrwt>
<pdfrwt beam="1">  1        2 0.21768666E+00 0.82733153E+02</pdfrwt>
<pdfrwt beam="2">  1       -2 0.42674147E-03 0.82733153E+02</pdfrwt>
<totfact> 0.98099959E+04</totfact>
</mgrwt>
</event>
<event>
 6    1  0.2995420E-002  0.9103784E+02  0.7546771E-02  0.1407184E+00
         -2   -1    0    0    0  501 -0.00000000000E+00  0.00000000000E+00  0.10598378447E+02  0.10598378447E+02  0.00000000000E+00 0.  1.
          2   -1    0    0  501    0  0.00000000000E+00 -0.00000000000E+00 -0.38055963036E+03  0.38055963036E+03  0.00000000000E+00 0. -1.
         23    2    1    2    0    0 -0.73650149298E+01 -0.12860764145E+02 -0.36395280420E+03  0.37516600633E+03  0.89823415219E+02 0.  0.
         13    1    3    3    0    0 -0.40034472479E+02  0.44821035998E+01 -0.28668631887E+03  0.28950283879E+03  0.00000000000E+00 0. -1.
        -13    1    3    3    0    0  0.32669457549E+02 -0.17342867745E+02 -0.77266485334E+02  0.85663167546E+02  0.00000000000E+00 0.  1.
         22    1    1    2    0    0  0.73650149298E+01  0.12860764145E+02 -0.60084477130E+01  0.15992002477E+02  0.00000000000E+00 0.  1.
<mgrwt>
<rscale>  0 0.57827053E+02</rscale>
<asrwt>0</asrwt>
<pdfrwt beam="1">  1        2 0.58547629E-01 0.91037842E+02</pdfrwt>
<pdfrwt beam="2">  1       -2 0.16305199E-02 0.91037842E+02</pdfrwt>
<totfact> 0.76469362E+04</totfact>
</mgrwt>
</event>
<event>
 6    1  0.2995420E-002  0.9245815E+02  0.7546771E-02  0.1414281E+00
          2   -1    0    0  501    0  0.00000000000E+00  0.00000000000E+00  0.93635680904E+03  0.93635680904E+03  0.00000000000E+00 0. -1.
         -2   -1    0    0    0  501 -0.00000000000E+00 -0.00000000000E+00 -0.44277984560E+01  0.44277984560E+01  0.00000000000E+00 0.  1.
         23    2    1    2    0    0 -0.21884785674E+00  0.12664052606E+02  0.91490884773E+03  0.91956876279E+03  0.91586482250E+02 0.  0.
         13    1    3    3    0    0  0.30555863648E+02 -0.19015157345E+02  0.65064593943E+03  0.65164052630E+03  0.00000000000E+00 0. -1.
        -13    1    3    3    0    0 -0.30774711504E+02  0.31679209951E+02  0.26426290829E+03  0.26792823649E+03  0.00000000000E+00 0.  1.
         22    1    1    2    0    0  0.21884785674E+00 -0.12664052606E+02  0.17020162853E+02  0.21215844700E+02  0.00000000000E+00 0.  1.
<mgrwt>
<rscale>  0 0.56249452E+02</rscale>
<asrwt>0</asrwt>
<pdfrwt beam="1">  1        2 0.14405474E+00 0.92458152E+02</pdfrwt>
<pdfrwt beam="2">  1       -2 0.68120051E-03 0.92458152E+02</pdfrwt>
<totfact> 0.94782957E+04</totfact>
</mgrwt>
</event>
<event>
 6    1  0.2995420E-002  0.9230886E+02  0.7546771E-02  0.1413392E+00
          2   -1    0    0  501    0  0.00000000000E+00  0.00000000000E+00  0.51536773381E+03  0.51536773381E+03  0.00000000000E+00 0. -1.
         -2   -1    0    0    0  501 -0.00000000000E+00 -0.00000000000E+00 -0.54001094411E+01  0.54001094411E+01  0.00000000000E+00 0.  1.
         23    2    1    2    0    0 -0.12357740854E+02 -0.37154028639E+01  0.45917813493E+03  0.46836469244E+03  0.91402448267E+02 0.  0.
         13    1    3    3    0    0  0.17384093348E+02 -0.30272363053E+02  0.82494175479E+02  0.89576289576E+02  0.00000000000E+00 0.  1.
        -13    1    3    3    0    0 -0.29741834202E+02  0.26556960189E+02  0.37668395945E+03  0.37878840286E+03  0.00000000000E+00 0. -1.
         22    1    1    2    0    0  0.12357740854E+02  0.37154028639E+01  0.50789489439E+02  0.52403150811E+02  0.00000000000E+00 0.  1.
<mgrwt>
<rscale>  0 0.56443662E+02</rscale>
<asrwt>0</asrwt>
<pdfrwt beam="1">  1        2 0.79287305E-01 0.92308859E+02</pdfrwt>
<pdfrwt beam="2">  1       -2 0.83078648E-03 0.92308859E+02</pdfrwt>
<totfact> 0.14451246E+05</totfact>
</mgrwt>
</event>
<event>
 6    1  0.2995420E-002  0.9337719E+02  0.7546771E-02  0.1405245E+00
          2   -1    0    0  501    0  0.00000000000E+00  0.00000000000E+00  0.26260197268E+04  0.26260197268E+04  0.00000000000E+00 0.  1.
         -2   -1    0    0    0  501 -0.00000000000E+00 -0.00000000000E+00 -0.16043419744E+01  0.16043419744E+01  0.00000000000E+00 0. -1.
         23    2    1    2    0    0  0.10861524151E+02 -0.90821524424E+01  0.25585848228E+04  0.25602881861E+04  0.92297574089E+02 0.  0.
         13    1    3    3    0    0 -0.27338883830E+02 -0.18841501393E+02  0.41018537495E+03  0.41152698401E+03  0.00000000000E+00 0. -1.
        -13    1    3    3    0    0  0.38200407981E+02  0.97593489510E+01  0.21483994478E+04  0.21487612021E+04  0.00000000000E+00 0.  1.
         22    1    1    2    0    0 -0.10861524151E+02  0.90821524424E+01  0.65830562007E+02  0.67335882663E+02  0.00000000000E+00 0. -1.
<mgrwt>
<rscale>  0 0.58268467E+02</rscale>
<asrwt>0</asrwt>
<pdfrwt beam="1">  1        2 0.40399959E+00 0.93377194E+02</pdfrwt>
<pdfrwt beam="2">  1       -2 0.24682394E-03 0.93377194E+02</pdfrwt>
<totfact> 0.51372315E+04</totfact>
</mgrwt>
</event>
<event>
 6    1  0.2995420E-002  0.9826776E+02  0.7546771E-02  0.1333511E+00
         -2   -1    0    0    0  501 -0.00000000000E+00  0.00000000000E+00  0.66353542503E+01  0.66353542503E+01  0.00000000000E+00 0.  1.
          2   -1    0    0  501    0  0.00000000000E+00 -0.00000000000E+00 -0.72585404757E+03  0.72585404757E+03  0.00000000000E+00 0. -1.
         23    2    1    2    0    0 -0.33437305111E+02  0.21794829947E+02 -0.47879869568E+03  0.48877882911E+03  0.89796908723E+02 0.  0.
         11    1    3    3    0    0 -0.39737460711E+01  0.54249010219E+02 -0.27204163735E+03  0.27742638342E+03  0.00000000000E+00 0. -1.
        -11    1    3    3    0    0 -0.29463559040E+02 -0.32454180272E+02 -0.20675705833E+03  0.21135244569E+03  0.00000000000E+00 0.  1.
         22    1    1    2    0    0  0.33437305111E+02 -0.21794829947E+02 -0.24041999764E+03  0.24371057271E+03  0.00000000000E+00 0.  1.
<mgrwt>
<rscale>  0 0.78449031E+02</rscale>
<asrwt>0</asrwt>
<pdfrwt beam="1">  1        2 0.11166983E+00 0.98267761E+02</pdfrwt>
<pdfrwt beam="2">  1       -2 0.10208240E-02 0.98267761E+02</pdfrwt>
<totfact> 0.73975653E+04</totfact>
</mgrwt>
</event>
<event>
 6    1  0.2995420E-002  0.9497892E+02  0.7546771E-02  0.1383098E+00
         -2   -1    0    0    0  501 -0.00000000000E+00  0.00000000000E+00  0.41811101182E+01  0.41811101182E+01  0.00000000000E+00 0.  1.
          2   -1    0    0  501    0  0.00000000000E+00 -0.00000000000E+00 -0.79577572483E+03  0.79577572483E+03  0.00000000000E+00 0. -1.
         23    2    1    2    0    0 -0.18346033456E+01  0.19076053969E+02 -0.69690345999E+03  0.70334588118E+03  0.93025450440E+02 0.  0.
         11    1    3    3    0    0 -0.33927835282E+01 -0.31113558074E+02 -0.46579225035E+03  0.46684256979E+03  0.00000000000E+00 0. -1.
        -11    1    3    3    0    0  0.15581801826E+01  0.50189612043E+02 -0.23111120964E+03  0.23650331140E+03  0.00000000000E+00 0.  1.
         22    1    1    2    0    0  0.18346033456E+01 -0.19076053969E+02 -0.94691154718E+02  0.96610953759E+02  0.00000000000E+00 0. -1.
<mgrwt>
<rscale>  0 0.63656444E+02</rscale>
<asrwt>0</asrwt>
<pdfrwt beam="1">  1        2 0.12242693E+00 0.94978924E+02</pdfrwt>
<pdfrwt beam="2">  1       -2 0.64324827E-03 0.94978924E+02</pdfrwt>
<totfact> 0.12663090E+05</totfact>
</mgrwt>
</event>
<event>
 6    1  0.2995420E-002  0.9773440E+02  0.7546771E-02  0.1408426E+00
         -4   -1    0    0    0  501 -0.00000000000E+00  0.00000000000E+00  0.47373786568E+02  0.47373786568E+02  0.00000000000E+00 0.  1.
          4   -1    0    0  501    0  0.00000000000E+00 -0.00000000000E+00 -0.87778495334E+02  0.87778495334E+02  0.00000000000E+00 0. -1.
         23    2    1    2    0    0  0.11549190314E+02 -0.21475373997E+01 -0.58258281885E+02  0.11378067020E+03  0.97025861441E+02 0.  0.
         11    1    3    3    0    0 -0.26541494397E+02  0.34877188055E+02 -0.33553134363E+02  0.55196757124E+02  0.00000000000E+00 0.  1.
        -11    1    3    3    0    0  0.38090684711E+02 -0.37024725455E+02 -0.24705147522E+02  0.58583913072E+02  0.00000000000E+00 0. -1.
         22    1    1    2    0    0 -0.11549190314E+02  0.21475373997E+01  0.17853573119E+02  0.21371611706E+02  0.00000000000E+00 0.  1.
<mgrwt>
<rscale>  0 0.57546484E+02</rscale>
<asrwt>0</asrwt>
<pdfrwt beam="1">  1        4 0.13504384E-01 0.97734403E+02</pdfrwt>
<pdfrwt beam="2">  1       -4 0.72882749E-02 0.97734403E+02</pdfrwt>
<totfact> 0.86814893E+03</totfact>
</mgrwt>
</event>
<event>
 6    1  0.2995420E-002  0.1001099E+03  0.7546771E-02  0.1375047E+00
         -1   -1    0    0    0  501 -0.00000000000E+00  0.00000000000E+00  0.10933130112E+02  0.10933130112E+02  0.00000000000E+00 0.  1.
          1   -1    0    0  501    0  0.00000000000E+00 -0.00000000000E+00 -0.85470001591E+03  0.85470001591E+03  0.00000000000E+00 0. -1.
         23    2    1    2    0    0 -0.22167909671E+01  0.18533526569E+02 -0.84079326059E+03  0.84673213504E+03  0.98354439101E+02 0.  0.
         11    1    3    3    0    0 -0.76547685452E+01  0.43188779083E+02 -0.77531669004E+03  0.77655639587E+03  0.00000000000E+00 0. -1.
        -11    1    3    3    0    0  0.54379775782E+01 -0.24655252514E+02 -0.65476570549E+02  0.70175739166E+02  0.00000000000E+00 0.  1.
         22    1    1    2    0    0  0.22167909671E+01 -0.18533526569E+02 -0.29736252109E+01  0.18901010983E+02  0.00000000000E+00 0.  1.
<mgrwt>
<rscale>  0 0.65783744E+02</rscale>
<asrwt>0</asrwt>
<pdfrwt beam="1">  1        1 0.13149235E+00 0.10010995E+03</pdfrwt>
<pdfrwt beam="2">  1       -1 0.16820195E-02 0.10010995E+03</pdfrwt>
<totfact> 0.17054475E+04</totfact>
</mgrwt>
</event>
<event>
 6    1  0.2995420E-002  0.1033326E+03  0.7546771E-02  0.1318455E+00
         -2   -1    0    0    0  501 -0.00000000000E+00  0.00000000000E+00  0.53569943045E+01  0.53569943045E+01  0.00000000000E+00 0.  1.
          2   -1    0    0  501    0  0.00000000000E+00 -0.00000000000E+00 -0.18277948195E+04  0.18277948195E+04  0.00000000000E+00 0. -1.
         23    2    1    2    0    0  0.13002805785E+01  0.44793614887E+02 -0.16934816198E+04  0.16966312601E+04  0.93110029596E+02 0.  0.
         13    1    3    3    0    0 -0.71933585679E+01  0.72705373679E+02 -0.10909276275E+04  0.10933713478E+04  0.00000000000E+00 0.  1.
        -13    1    3    3    0    0  0.84936391464E+01 -0.27911758792E+02 -0.60255399225E+03  0.60325991227E+03  0.00000000000E+00 0. -1.
         22    1    1    2    0    0 -0.13002805785E+01 -0.44793614887E+02 -0.12895620544E+03  0.13652055372E+03  0.00000000000E+00 0.  1.
<mgrwt>
<rscale>  0 0.83854799E+02</rscale>
<asrwt>0</asrwt>
<pdfrwt beam="1">  1        2 0.28119948E+00 0.10333265E+03</pdfrwt>
<pdfrwt beam="2">  1       -2 0.82415217E-03 0.10333265E+03</pdfrwt>
<totfact> 0.24533531E+04</totfact>
</mgrwt>
</event>
<event>
 6    1  0.2995420E-002  0.9305050E+02  0.7546771E-02  0.1372912E+00
          2   -1    0    0  501    0  0.00000000000E+00  0.00000000000E+00  0.10831791163E+04  0.10831791163E+04  0.00000000000E+00 0. -1.
         -2   -1    0    0    0  501 -0.00000000000E+00 -0.00000000000E+00 -0.43646988019E+01  0.43646988019E+01  0.00000000000E+00 0.  1.
         23    2    1    2    0    0 -0.22137844152E+02  0.94639376071E+01  0.10163418497E+04  0.10205925493E+04  0.89881845082E+02 0.  0.
         11    1    3    3    0    0  0.27569581322E+02  0.19926541438E+02  0.63111352301E+03  0.63202960991E+03  0.00000000000E+00 0.  1.
        -11    1    3    3    0    0 -0.49707425473E+02 -0.10462603830E+02  0.38522832664E+03  0.38856293940E+03  0.00000000000E+00 0. -1.
         22    1    1    2    0    0  0.22137844152E+02 -0.94639376071E+01  0.62472567805E+02  0.66951265760E+02  0.00000000000E+00 0.  1.
<mgrwt>
<rscale>  0 0.66364343E+02</rscale>
<asrwt>0</asrwt>
<pdfrwt beam="1">  1        2 0.16664273E+00 0.93050504E+02</pdfrwt>
<pdfrwt beam="2">  1       -2 0.67149299E-03 0.93050504E+02</pdfrwt>
<totfact> 0.79429754E+04</totfact>
</mgrwt>
</event>
<event>
 6    1  0.2995420E-002  0.9009496E+02  0.7546771E-02  0.1394306E+00
         -1   -1    0    0    0  501 -0.00000000000E+00  0.00000000000E+00  0.34519306010E+02  0.34519306010E+02  0.00000000000E+00 0.  1.
          1   -1    0    0  501    0  0.00000000000E+00 -0.00000000000E+00 -0.13947387824E+03  0.13947387824E+03  0.00000000000E+00 0. -1.
         23    2    1    2    0    0 -0.41788598054E+01  0.18273494835E+02 -0.11992966146E+03  0.15000075252E+03  0.88123314594E+02 0.  0.
         11    1    3    3    0    0 -0.33449051105E+02  0.20813509697E+01 -0.98208803707E+01  0.34923068779E+02  0.00000000000E+00 0.  1.
        -11    1    3    3    0    0  0.29270191299E+02  0.16192143865E+02 -0.11010878109E+03  0.11507768374E+03  0.00000000000E+00 0. -1.
         22    1    1    2    0    0  0.41788598054E+01 -0.18273494835E+02  0.14975089233E+02  0.23992431729E+02  0.00000000000E+00 0.  1.
<mgrwt>
<rscale>  0 0.60848243E+02</rscale>
<asrwt>0</asrwt>
<pdfrwt beam="1">  1        1 0.21457520E-01 0.90094961E+02</pdfrwt>
<pdfrwt beam="2">  1       -1 0.53106625E-02 0.90094961E+02</pdfrwt>
<totfact> 0.32754862E+04</totfact>
</mgrwt>
</event>
<event>
 6    1  0.2995420E-002  0.9365401E+02  0.7546771E-02  0.1404480E+00
         -2   -1    0    0    0  501 -0.00000000000E+00  0.00000000000E+00  0.71041794519E+02  0.71041794519E+02  0.00000000000E+00 0.  1.
          2   -1    0    0  501    0  0.00000000000E+00 -0.00000000000E+00 -0.46341805955E+02  0.46341805955E+02  0.00000000000E+00 0. -1.
         23    2    1    2    0    0  0.13075365329E+02  0.55464789052E+01  0.59246096470E+01  0.93841224633E+02  0.92570761229E+02 0.  0.
         11    1    3    3    0    0 -0.26875686385E+02 -0.29696286448E+02  0.64280314983E+01  0.40564658712E+02  0.00000000000E+00 0. -1.
        -11    1    3    3    0    0  0.39951051714E+02  0.35242765354E+02 -0.50342185136E+00  0.53276565921E+02  0.00000000000E+00 0.  1.
         22    1    1    2    0    0 -0.13075365329E+02 -0.55464789052E+01  0.18775378918E+02  0.23542375841E+02  0.00000000000E+00 0. -1.
<mgrwt>
<rscale>  0 0.58444108E+02</rscale>
<asrwt>0</asrwt>
<pdfrwt beam="1">  1        2 0.71295086E-02 0.93654015E+02</pdfrwt>
<pdfrwt beam="2">  1       -2 0.10929507E-01 0.93654015E+02</pdfrwt>
<totfact> 0.49009695E+04</totfact>
</mgrwt>
</event>
<event>
 6    1  0.2995420E-002  0.9527968E+02  0.7546771E-02  0.1354449E+00
          2   -1    0    0  501    0  0.00000000000E+00  0.00000000000E+00  0.29045930953E+02  0.29045930953E+02  0.00000000000E+00 0. -1.
         -2   -1    0    0    0  501 -0.00000000000E+00 -0.00000000000E+00 -0.26729486727E+03  0.26729486727E+03  0.00000000000E+00 0.  1.
         23    2    1    2    0    0 -0.11829791525E+02  0.28147405049E+02 -0.53876309504E+02  0.10945718231E+03  0.90255180765E+02 0.  0.
         13    1    3    3    0    0 -0.99215880046E+01 -0.13524815951E+01  0.24082752157E+02  0.26081527303E+02  0.00000000000E+00 0. -1.
        -13    1    3    3    0    0 -0.19082035207E+01  0.29499886644E+02 -0.77959061662E+02  0.83375655007E+02  0.00000000000E+00 0.  1.
         22    1    1    2    0    0  0.11829791525E+02 -0.28147405049E+02 -0.18437262681E+03  0.18688361591E+03  0.00000000000E+00 0.  1.
<mgrwt>
<rscale>  0 0.71686942E+02</rscale>
<asrwt>0</asrwt>
<pdfrwt beam="1">  1        2 0.44686049E-02 0.95279683E+02</pdfrwt>
<pdfrwt beam="2">  1       -2 0.41122286E-01 0.95279683E+02</pdfrwt>
<totfact> 0.93411585E+03</totfact>
</mgrwt>
</event>
<event>
 6    1  0.2995420E-002  0.9429721E+02  0.7546771E-02  0.1388547E+00
         -2   -1    0    0    0  501 -0.00000000000E+00  0.00000000000E+00  0.12507304099E+02  0.12507304099E+02  0.00000000000E+00 0.  1.
          2   -1    0    0  501    0  0.00000000000E+00 -0.00000000000E+00 -0.30324420865E+03  0.30324420865E+03  0.00000000000E+00 0. -1.
         23    2    1    2    0    0 -0.98488038313E+01 -0.14984013499E+02 -0.27853120172E+03  0.29406052893E+03  0.92576696553E+02 0.  0.
         11    1    3    3    0    0 -0.17778945439E+02 -0.24847361134E+02 -0.27968799063E+03  0.28135183376E+03  0.00000000000E+00 0. -1.
        -11    1    3    3    0    0  0.79301416081E+01  0.98633476357E+01  0.11567889043E+01  0.12708695176E+02  0.00000000000E+00 0.  1.
         22    1    1    2    0    0  0.98488038313E+01  0.14984013499E+02 -0.12205702826E+02  0.21690983816E+02  0.00000000000E+00 0.  1.
<mgrwt>
<rscale>  0 0.62269456E+02</rscale>
<asrwt>0</asrwt>
<pdfrwt beam="1">  1        2 0.46652958E-01 0.94297213E+02</pdfrwt>
<pdfrwt beam="2">  1       -2 0.19242005E-02 0.94297213E+02</pdfrwt>
<totfact> 0.76889602E+04</totfact>
</mgrwt>
</event>
<event>
 6    1  0.2995420E-002  0.9413496E+02  0.7546771E-02  0.1422748E+00
         -1   -1    0    0    0  501 -0.00000000000E+00  0.00000000000E+00  0.55382965928E+02  0.55382965928E+02  0.00000000000E+00 0.  1.
          1   -1    0    0  501    0  0.00000000000E+00 -0.00000000000E+00 -0.51569902682E+02  0.51569902682E+02  0.00000000000E+00 0. -1.
         23    2    1    2    0    0  0.81664872325E+01 -0.66517284688E+01 -0.33845811373E+01  0.94195788614E+02  0.93543862427E+02 0.  0.
         11    1    3    3    0    0 -0.21227070750E+02 -0.38486128281E+01  0.37798451100E+02  0.43521526385E+02  0.00000000000E+00 0.  1.
        -11    1    3    3    0    0  0.29393557982E+02 -0.28031156408E+01 -0.41183032238E+02  0.50674262229E+02  0.00000000000E+00 0. -1.
         22    1    1    2    0    0 -0.81664872325E+01  0.66517284688E+01  0.71976443835E+01  0.12757079996E+02  0.00000000000E+00 0.  1.
<mgrwt>
<rscale>  0 0.54443717E+02</rscale>
<asrwt>0</asrwt>
<pdfrwt beam="1">  1        1 0.79338312E-02 0.94134963E+02</pdfrwt>
<pdfrwt beam="2">  1       -1 0.85204563E-02 0.94134963E+02</pdfrwt>
<totfact> 0.59004396E+04</totfact>
</mgrwt>
</event>
<event>
 6    1  0.2995420E-002  0.9487576E+02  0.7546771E-02  0.1412764E+00
          1   -1    0    0  501    0  0.00000000000E+00  0.00000000000E+00  0.16664941253E+03  0.16664941253E+03  0.00000000000E+00 0. -1.
         -1   -1    0    0    0  501 -0.00000000000E+00 -0.00000000000E+00 -0.18363755268E+02  0.18363755268E+02  0.00000000000E+00 0.  1.
         23    2    1    2    0    0  0.95685311144E+01  0.72441865787E+01  0.11194251961E+03  0.14673969551E+03  0.94113630861E+02 0.  0.
         13    1    3    3    0    0 -0.38987056696E+01  0.49360186786E+02  0.70405454730E+02  0.86072969051E+02  0.00000000000E+00 0. -1.
        -13    1    3    3    0    0  0.13467236784E+02 -0.42116000207E+02  0.41537064883E+02  0.60666726458E+02  0.00000000000E+00 0.  1.
         22    1    1    2    0    0 -0.95685311144E+01 -0.72441865787E+01  0.36343137645E+02  0.38273472285E+02  0.00000000000E+00 0. -1.
<mgrwt>
<rscale>  0 0.56581568E+02</rscale>
<asrwt>0</asrwt>
<pdfrwt beam="1">  1        1 0.25638370E-01 0.94875764E+02</pdfrwt>
<pdfrwt beam="2">  1       -1 0.28251932E-02 0.94875764E+02</pdfrwt>
<totfact> 0.66078610E+04</totfact>
</mgrwt>
</event>
<event>
 6    1  0.2995420E-002  0.1015834E+03  0.7546771E-02  0.1369701E+00
         -2   -1    0    0    0  501 -0.00000000000E+00  0.00000000000E+00  0.49804841639E+01  0.49804841639E+01  0.00000000000E+00 0.  1.
          2   -1    0    0  501    0  0.00000000000E+00 -0.00000000000E+00 -0.17440274196E+04  0.17440274196E+04  0.00000000000E+00 0. -1.
         23    2    1    2    0    0  0.66714845851E+01  0.18336383593E+02 -0.17151549771E+04  0.17181605806E+04  0.99691793859E+02 0.  0.
         11    1    3    3    0    0  0.26161032883E+02 -0.34126188284E+02 -0.55875699858E+03  0.56040911826E+03  0.00000000000E+00 0.  1.
        -11    1    3    3    0    0 -0.19489548298E+02  0.52462571877E+02 -0.11563979785E+04  0.11577514624E+04  0.00000000000E+00 0. -1.
         22    1    1    2    0    0 -0.66714845851E+01 -0.18336383593E+02 -0.23891958319E+02  0.30847323096E+02  0.00000000000E+00 0.  1.
<mgrwt>
<rscale>  0 0.67250328E+02</rscale>
<asrwt>0</asrwt>
<pdfrwt beam="1">  1        2 0.26831180E+00 0.10158339E+03</pdfrwt>
<pdfrwt beam="2">  1       -2 0.76622866E-03 0.10158339E+03</pdfrwt>
<totfact> 0.29941692E+04</totfact>
</mgrwt>
</event>
<event>
 6    1  0.2995420E-002  0.1075052E+03  0.7546771E-02  0.1298634E+00
         -1   -1    0    0    0  501 -0.00000000000E+00  0.00000000000E+00  0.88472291161E+02  0.88472291161E+02  0.00000000000E+00 0.  1.
          1   -1    0    0  501    0  0.00000000000E+00 -0.00000000000E+00 -0.20309752648E+03  0.20309752648E+03  0.00000000000E+00 0. -1.
         23    2    1    2    0    0  0.51641989847E+02  0.24293231983E+02 -0.17695961797E+03  0.20705572712E+03  0.91106045375E+02 0.  0.
         11    1    3    3    0    0  0.27797045161E+02  0.16592526518E+02 -0.17901072544E+03  0.18191434105E+03  0.00000000000E+00 0. -1.
        -11    1    3    3    0    0  0.23844944686E+02  0.77007054650E+01  0.20511074677E+01  0.25141386071E+02  0.00000000000E+00 0.  1.
         22    1    1    2    0    0 -0.51641989847E+02 -0.24293231983E+02  0.62334382656E+02  0.84514090521E+02  0.00000000000E+00 0.  1.
<mgrwt>
<rscale>  0 0.91764617E+02</rscale>
<asrwt>0</asrwt>
<pdfrwt beam="1">  1        1 0.31245773E-01 0.10750520E+03</pdfrwt>
<pdfrwt beam="2">  1       -1 0.13611122E-01 0.10750520E+03</pdfrwt>
<totfact> 0.50833193E+03</totfact>
</mgrwt>
</event>
<event>
 6    1  0.2995420E-002  0.9915716E+02  0.7546771E-02  0.1404590E+00
          2   -1    0    0  501    0  0.00000000000E+00  0.00000000000E+00  0.84922249977E+03  0.84922249977E+03  0.00000000000E+00 0. -1.
         -2   -1    0    0    0  501 -0.00000000000E+00 -0.00000000000E+00 -0.50671435146E+01  0.50671435146E+01  0.00000000000E+00 0.  1.
         23    2    1    2    0    0 -0.11694144202E+02  0.24422759392E+01  0.82939165063E+03  0.83529794183E+03  0.98434870688E+02 0.  0.
         11    1    3    3    0    0  0.41093932265E+02 -0.10099370525E+02  0.46007383682E+03  0.46201584808E+03  0.00000000000E+00 0.  1.
        -11    1    3    3    0    0 -0.52788076467E+02  0.12541646464E+02  0.36931781381E+03  0.37328209374E+03  0.00000000000E+00 0. -1.
         22    1    1    2    0    0  0.11694144202E+02 -0.24422759392E+01  0.14763705622E+02  0.18991701453E+02  0.00000000000E+00 0.  1.
<mgrwt>
<rscale>  0 0.58418820E+02</rscale>
<asrwt>0</asrwt>
<pdfrwt beam="1">  1        2 0.13064950E+00 0.99157156E+02</pdfrwt>
<pdfrwt beam="2">  1       -2 0.77956122E-03 0.99157156E+02</pdfrwt>
<totfact> 0.89606619E+04</totfact>
</mgrwt>
</event>
<event>
 6    1  0.2995420E-002  0.9282198E+02  0.7546771E-02  0.1416126E+00
          2   -1    0    0  501    0  0.00000000000E+00  0.00000000000E+00  0.87429849072E+03  0.87429849072E+03  0.00000000000E+00 0.  1.
         -2   -1    0    0    0  501 -0.00000000000E+00 -0.00000000000E+00 -0.49539260856E+01  0.49539260856E+01  0.00000000000E+00 0. -1.
         23    2    1    2    0    0  0.12295295539E+01 -0.12102556791E+02  0.85667199772E+03  0.86168604051E+03  0.92021394893E+02 0.  0.
         11    1    3    3    0    0  0.88622624815E+01 -0.47371612931E+01  0.77307215665E+01  0.12678503435E+02  0.00000000000E+00 0. -1.
        -11    1    3    3    0    0 -0.76327329276E+01 -0.73653954980E+01  0.84894127615E+03  0.84900753708E+03  0.00000000000E+00 0.  1.
         22    1    1    2    0    0 -0.12295295539E+01  0.12102556791E+02  0.12672566919E+02  0.17566376295E+02  0.00000000000E+00 0. -1.
<mgrwt>
<rscale>  0 0.55848928E+02</rscale>
<asrwt>0</asrwt>
<pdfrwt beam="1">  1        2 0.13450734E+00 0.92821984E+02</pdfrwt>
<pdfrwt beam="2">  1       -2 0.76214317E-03 0.92821984E+02</pdfrwt>
<totfact> 0.88426776E+04</totfact>
</mgrwt>
</event>
<event>
 6    1  0.2995420E-002  0.9955961E+02  0.7546771E-02  0.1343504E+00
          2   -1    0    0  501    0  0.00000000000E+00  0.00000000000E+00  0.20420087042E+03  0.20420087042E+03  0.00000000000E+00 0. -1.
         -2   -1    0    0    0  501 -0.00000000000E+00 -0.00000000000E+00 -0.21319397999E+02  0.21319397999E+02  0.00000000000E+00 0.  1.
         23    2    1    2    0    0  0.64973532417E+01  0.31604848244E+02  0.13362403308E+03  0.16663582767E+03  0.94186171044E+02 0.  0.
         13    1    3    3    0    0 -0.72649333216E+01  0.92740475577E+01 -0.13081121478E+02  0.17604060708E+02  0.00000000000E+00 0.  1.
        -13    1    3    3    0    0  0.13762286563E+02  0.22330800686E+02  0.14670515456E+03  0.14903176697E+03  0.00000000000E+00 0. -1.
         22    1    1    2    0    0 -0.64973532417E+01 -0.31604848244E+02  0.49257439344E+02  0.58884440749E+02  0.00000000000E+00 0. -1.
<mgrwt>
<rscale>  0 0.75118693E+02</rscale>
<asrwt>0</asrwt>
<pdfrwt beam="1">  1        2 0.31415517E-01 0.99559615E+02</pdfrwt>
<pdfrwt beam="2">  1       -2 0.32799075E-02 0.99559615E+02</pdfrwt>
<totfact> 0.54286005E+04</totfact>
</mgrwt>
</event>
<event>
 6    1  0.2995420E-002  0.9263824E+02  0.7546771E-02  0.1377200E+00
         -1   -1    0    0    0  501 -0.00000000000E+00  0.00000000000E+00  0.23068683293E+02  0.23068683293E+02  0.00000000000E+00 0.  1.
          1   -1    0    0  501    0  0.00000000000E+00 -0.00000000000E+00 -0.27369077075E+03  0.27369077075E+03  0.00000000000E+00 0. -1.
         23    2    1    2    0    0 -0.17222637830E+02  0.14847006195E+02 -0.25696419464E+03  0.27315277765E+03  0.89804174552E+02 0.  0.
         11    1    3    3    0    0  0.30257310322E+02  0.16062006482E+02 -0.48699883586E+02  0.59541343127E+02  0.00000000000E+00 0.  1.
        -11    1    3    3    0    0 -0.47479948152E+02 -0.12150002867E+01 -0.20826431105E+03  0.21361143453E+03  0.00000000000E+00 0. -1.
         22    1    1    2    0    0  0.17222637830E+02 -0.14847006195E+02  0.63421071795E+01  0.23606676392E+02  0.00000000000E+00 0.  1.
<mgrwt>
<rscale>  0 0.65205551E+02</rscale>
<asrwt>0</asrwt>
<pdfrwt beam="1">  1        1 0.42106274E-01 0.92638235E+02</pdfrwt>
<pdfrwt beam="2">  1       -1 0.35490281E-02 0.92638235E+02</pdfrwt>
<totfact> 0.25784944E+04</totfact>
</mgrwt>
</event>
<event>
 6    1  0.2995420E-002  0.8326468E+02  0.7546771E-02  0.1392302E+00
          4   -1    0    0  501    0  0.00000000000E+00  0.00000000000E+00  0.48206134546E+03  0.48206134546E+03  0.00000000000E+00 0.  1.
         -4   -1    0    0    0  501 -0.00000000000E+00 -0.00000000000E+00 -0.73470309928E+01  0.73470309928E+01  0.00000000000E+00 0. -1.
         23    2    1    2    0    0 -0.18502928608E+01 -0.24450458441E+02  0.43372156715E+03  0.44164171617E+03  0.79572351681E+02 0.  0.
         13    1    3    3    0    0  0.25723316946E+02 -0.54329445589E+01  0.50269402536E+02  0.56729346485E+02  0.00000000000E+00 0. -1.
        -13    1    3    3    0    0 -0.27573609807E+02 -0.19017513882E+02  0.38345216461E+03  0.38491236969E+03  0.00000000000E+00 0.  1.
         22    1    1    2    0    0  0.18502928608E+01  0.24450458441E+02  0.40992747319E+02  0.47766660281E+02  0.00000000000E+00 0.  1.
<mgrwt>
<rscale>  0 0.61337685E+02</rscale>
<asrwt>0</asrwt>
<pdfrwt beam="1">  1        4 0.74163259E-01 0.83264684E+02</pdfrwt>
<pdfrwt beam="2">  1       -4 0.11303128E-02 0.83264684E+02</pdfrwt>
<totfact> 0.58719679E+03</totfact>
</mgrwt>
</event>
<event>
 6    1  0.2995420E-002  0.9416724E+02  0.7546771E-02  0.1372011E+00
          2   -1    0    0  501    0  0.00000000000E+00  0.00000000000E+00  0.98870454736E+02  0.98870454736E+02  0.00000000000E+00 0. -1.
         -2   -1    0    0    0  501 -0.00000000000E+00 -0.00000000000E+00 -0.42466778642E+02  0.42466778642E+02  0.00000000000E+00 0.  1.
         23    2    1    2    0    0  0.39711314863E+01 -0.23240398419E+02  0.66917109603E+02  0.11552215468E+03  0.91167881739E+02 0.  0.
         11    1    3    3    0    0  0.17169344219E+02 -0.40007217930E+02  0.79579495764E+02  0.90709756992E+02  0.00000000000E+00 0. -1.
        -11    1    3    3    0    0 -0.13198212733E+02  0.16766819510E+02 -0.12662386162E+02  0.24812397690E+02  0.00000000000E+00 0.  1.
         22    1    1    2    0    0 -0.39711314863E+01  0.23240398419E+02 -0.10513433509E+02  0.25815078697E+02  0.00000000000E+00 0.  1.
<mgrwt>
<rscale>  0 0.66611328E+02</rscale>
<asrwt>0</asrwt>
<pdfrwt beam="1">  1        2 0.15210839E-01 0.94167238E+02</pdfrwt>
<pdfrwt beam="2">  1       -2 0.65333506E-02 0.94167238E+02</pdfrwt>
<totfact> 0.43336153E+04</totfact>
</mgrwt>
</event>
<event>
 6    1  0.2995420E-002  0.9444438E+02  0.7546771E-02  0.1419839E+00
          4   -1    0    0  501    0  0.00000000000E+00  0.00000000000E+00  0.37904926040E+02  0.37904926040E+02  0.00000000000E+00 0. -1.
         -4   -1    0    0    0  501 -0.00000000000E+00 -0.00000000000E+00 -0.76064383319E+02  0.76064383319E+02  0.00000000000E+00 0.  1.
         23    2    1    2    0    0 -0.71791896586E+01 -0.82094888059E+01 -0.26691435134E+02  0.98143633938E+02  0.93812598847E+02 0.  0.
         11    1    3    3    0    0  0.75892810853E+00  0.36647505752E+02 -0.36299449843E+02  0.51587456892E+02  0.00000000000E+00 0.  1.
        -11    1    3    3    0    0 -0.79381177671E+01 -0.44856994558E+02  0.96080147092E+01  0.46556177046E+02  0.00000000000E+00 0. -1.
         22    1    1    2    0    0  0.71791896586E+01  0.82094888059E+01 -0.11468022145E+02  0.15825675421E+02  0.00000000000E+00 0.  1.
<mgrwt>
<rscale>  0 0.55054961E+02</rscale>
<asrwt>0</asrwt>
<pdfrwt beam="1">  1        4 0.58315271E-02 0.94444376E+02</pdfrwt>
<pdfrwt beam="2">  1       -4 0.11702213E-01 0.94444376E+02</pdfrwt>
<totfact> 0.15750551E+04</totfact>
</mgrwt>
</event>
<event>
 6    1  0.2995420E-002  0.9062831E+02  0.7546771E-02  0.1412912E+00
          2   -1    0    0  501    0  0.00000000000E+00  0.00000000000E+00  0.16158390881E+03  0.16158390881E+03  0.00000000000E+00 0. -1.
         -2   -1    0    0    0  501 -0.00000000000E+00 -0.00000000000E+00 -0.17275788854E+02  0.17275788854E+02  0.00000000000E+00 0.  1.
         23    2    1    2    0    0  0.13677449531E+02  0.12836100559E+01  0.13361446346E+03  0.16145066065E+03  0.89581084497E+02 0.  0.
         11    1    3    3    0    0  0.29666777011E+02  0.24849946891E+02  0.12623179370E+03  0.13203069060E+03  0.00000000000E+00 0. -1.
        -11    1    3    3    0    0 -0.15989327481E+02 -0.23566336836E+02  0.73826697526E+01  0.29419970051E+02  0.00000000000E+00 0.  1.
         22    1    1    2    0    0 -0.13677449531E+02 -0.12836100559E+01  0.10693656503E+02  0.17409037017E+02  0.00000000000E+00 0.  1.
<mgrwt>
<rscale>  0 0.56549041E+02</rscale>
<asrwt>0</asrwt>
<pdfrwt beam="1">  1        2 0.24859062E-01 0.90628312E+02</pdfrwt>
<pdfrwt beam="2">  1       -2 0.26578138E-02 0.90628312E+02</pdfrwt>
<totfact> 0.93640257E+04</totfact>
</mgrwt>
</event>
<event>
 6    1  0.2995420E-002  0.9205243E+02  0.7546771E-02  0.1389943E+00
          4   -1    0    0  501    0  0.00000000000E+00  0.00000000000E+00  0.10133894910E+03  0.10133894910E+03  0.00000000000E+00 0. -1.
         -4   -1    0    0    0  501 -0.00000000000E+00 -0.00000000000E+00 -0.39291678599E+02  0.39291678599E+02  0.00000000000E+00 0.  1.
         23    2    1    2    0    0 -0.14816824141E+01  0.18788615151E+02  0.74175392760E+02  0.11821860433E+03  0.90102397725E+02 0.  0.
         11    1    3    3    0    0 -0.24629928773E+01  0.53800560840E+01 -0.21143702018E+02  0.21956034988E+02  0.00000000000E+00 0.  1.
        -11    1    3    3    0    0  0.98131046324E+00  0.13408559067E+02  0.95319094778E+02  0.96262569339E+02  0.00000000000E+00 0. -1.
         22    1    1    2    0    0  0.14816824141E+01 -0.18788615151E+02 -0.12128122260E+02  0.22412023372E+02  0.00000000000E+00 0. -1.
<mgrwt>
<rscale>  0 0.61920819E+02</rscale>
<asrwt>0</asrwt>
<pdfrwt beam="1">  1        4 0.15590607E-01 0.92052428E+02</pdfrwt>
<pdfrwt beam="2">  1       -4 0.60448737E-02 0.92052428E+02</pdfrwt>
<totfact> 0.90197695E+03</totfact>
</mgrwt>
</event>
<event>
 6    1  0.2995420E-002  0.9225217E+02  0.7546771E-02  0.1401129E+00
         -1   -1    0    0    0  501 -0.00000000000E+00  0.00000000000E+00  0.16300836198E+03  0.16300836198E+03  0.00000000000E+00 0. -1.
          1   -1    0    0  501    0  0.00000000000E+00 -0.00000000000E+00 -0.23493659461E+02  0.23493659461E+02  0.00000000000E+00 0.  1.
         23    2    1    2    0    0  0.79603820733E+01 -0.13493732876E+02  0.71527960374E+02  0.11673350693E+03  0.90912122487E+02 0.  0.
         11    1    3    3    0    0  0.20935809114E+02 -0.37905999219E+01 -0.16689191433E+02  0.27040818437E+02  0.00000000000E+00 0.  1.
        -11    1    3    3    0    0 -0.12975427041E+02 -0.97031329544E+01  0.88217151807E+02  0.89692688492E+02  0.00000000000E+00 0. -1.
         22    1    1    2    0    0 -0.79603820733E+01  0.13493732876E+02  0.67986742146E+02  0.69768514513E+02  0.00000000000E+00 0. -1.
<mgrwt>
<rscale>  0 0.59221239E+02</rscale>
<asrwt>0</asrwt>
<pdfrwt beam="1">  1        1 0.36144093E-02 0.92252168E+02</pdfrwt>
<pdfrwt beam="2">  1       -1 0.25078209E-01 0.92252168E+02</pdfrwt>
<totfact> 0.31741211E+04</totfact>
</mgrwt>
</event>
<event>
 6    1  0.2995420E-002  0.9545046E+02  0.7546771E-02  0.1359340E+00
          1   -1    0    0  501    0  0.00000000000E+00  0.00000000000E+00  0.29408636229E+02  0.29408636229E+02  0.00000000000E+00 0. -1.
         -1   -1    0    0    0  501 -0.00000000000E+00 -0.00000000000E+00 -0.17033629695E+03  0.17033629695E+03  0.00000000000E+00 0.  1.
         23    2    1    2    0    0 -0.17986023016E+02  0.21408851831E+02 -0.56754182206E+02  0.11104876389E+03  0.91263107571E+02 0.  0.
         13    1    3    3    0    0 -0.53806125388E+02  0.21465601717E+02 -0.24683014525E+02  0.62969217816E+02  0.00000000000E+00 0. -1.
        -13    1    3    3    0    0  0.35820102372E+02 -0.56749885734E-01 -0.32071167680E+02  0.48079546076E+02  0.00000000000E+00 0.  1.
         22    1    1    2    0    0  0.17986023016E+02 -0.21408851831E+02 -0.84173478512E+02  0.88696169283E+02  0.00000000000E+00 0.  1.
<mgrwt>
<rscale>  0 0.70221966E+02</rscale>
<asrwt>0</asrwt>
<pdfrwt beam="1">  1        1 0.45244056E-02 0.95450462E+02</pdfrwt>
<pdfrwt beam="2">  1       -1 0.26205584E-01 0.95450462E+02</pdfrwt>
<totfact> 0.21858562E+04</totfact>
</mgrwt>
</event>
<event>
 6    1  0.2995420E-002  0.9389454E+02  0.7546771E-02  0.1397936E+00
          1   -1    0    0  501    0  0.00000000000E+00  0.00000000000E+00  0.16796352345E+02  0.16796352345E+02  0.00000000000E+00 0. -1.
         -1   -1    0    0    0  501 -0.00000000000E+00 -0.00000000000E+00 -0.19106793102E+03  0.19106793102E+03  0.00000000000E+00 0.  1.
         23    2    1    2    0    0 -0.10686013757E+02 -0.11406834911E+02 -0.12608198688E+03  0.15720321814E+03  0.92584434999E+02 0.  0.
         13    1    3    3    0    0  0.46213219404E+01 -0.24920840731E+02  0.38852184475E+01  0.25641759721E+02  0.00000000000E+00 0. -1.
        -13    1    3    3    0    0 -0.15307335698E+02  0.13514005820E+02 -0.12996720533E+03  0.13156145842E+03  0.00000000000E+00 0.  1.
         22    1    1    2    0    0  0.10686013757E+02  0.11406834911E+02 -0.48189591787E+02  0.50661065221E+02  0.00000000000E+00 0. -1.
<mgrwt>
<rscale>  0 0.59975267E+02</rscale>
<asrwt>0</asrwt>
<pdfrwt beam="1">  1        1 0.25840544E-02 0.93894539E+02</pdfrwt>
<pdfrwt beam="2">  1       -1 0.29395065E-01 0.93894539E+02</pdfrwt>
<totfact> 0.38809267E+04</totfact>
</mgrwt>
</event>
<event>
 6    1  0.2995420E-002  0.9374012E+02  0.7546771E-02  0.1398505E+00
         -3   -1    0    0    0  501 -0.00000000000E+00  0.00000000000E+00  0.20477490647E+02  0.20477490647E+02  0.00000000000E+00 0.  1.
          3   -1    0    0  501    0  0.00000000000E+00 -0.00000000000E+00 -0.15752462993E+03  0.15752462993E+03  0.00000000000E+00 0. -1.
         23    2    1    2    0    0  0.71868923143E+01 -0.13807829204E+02 -0.13147002068E+03  0.16146695138E+03  0.92438641711E+02 0.  0.
         13    1    3    3    0    0  0.43952528974E+02  0.84857806188E+01 -0.38528456870E+02  0.59061622605E+02  0.00000000000E+00 0.  1.
        -13    1    3    3    0    0 -0.36765636659E+02 -0.22293609823E+02 -0.92941563808E+02  0.10240532877E+03  0.00000000000E+00 0. -1.
         22    1    1    2    0    0 -0.71868923143E+01  0.13807829204E+02 -0.55771186007E+01  0.16535169196E+02  0.00000000000E+00 0.  1.
<mgrwt>
<rscale>  0 0.59839782E+02</rscale>
<asrwt>0</asrwt>
<pdfrwt beam="1">  1        3 0.24234559E-01 0.93740120E+02</pdfrwt>
<pdfrwt beam="2">  1       -3 0.31503831E-02 0.93740120E+02</pdfrwt>
<totfact> 0.15515328E+04</totfact>
</mgrwt>
</event>
<event>
 6    1  0.2995420E-002  0.9039144E+02  0.7546771E-02  0.1393096E+00
          2   -1    0    0  501    0  0.00000000000E+00  0.00000000000E+00  0.13007819367E+03  0.13007819367E+03  0.00000000000E+00 0.  1.
         -2   -1    0    0    0  501 -0.00000000000E+00 -0.00000000000E+00 -0.26241699657E+02  0.26241699657E+02  0.00000000000E+00 0. -1.
         23    2    1    2    0    0  0.18158212435E+02 -0.53284022212E+01  0.10347020610E+03  0.13739248685E+03  0.88388343925E+02 0.  0.
         11    1    3    3    0    0  0.37539802328E+02 -0.13041648468E+01  0.11024645538E+03  0.11646981810E+03  0.00000000000E+00 0.  1.
        -11    1    3    3    0    0 -0.19381589893E+02 -0.40242373744E+01 -0.67762492755E+01  0.20922668746E+02  0.00000000000E+00 0. -1.
         22    1    1    2    0    0 -0.18158212435E+02  0.53284022212E+01  0.36628790611E+00  0.18927406476E+02  0.00000000000E+00 0. -1.
<mgrwt>
<rscale>  0 0.61143164E+02</rscale>
<asrwt>0</asrwt>
<pdfrwt beam="1">  1        2 0.20012029E-01 0.90391437E+02</pdfrwt>
<pdfrwt beam="2">  1       -2 0.40371846E-02 0.90391437E+02</pdfrwt>
<totfact> 0.64614569E+04</totfact>
</mgrwt>
</event>
<event>
 6    1  0.2995420E-002  0.9202404E+02  0.7546771E-02  0.1425806E+00
          2   -1    0    0  501    0  0.00000000000E+00  0.00000000000E+00  0.11008872690E+04  0.11008872690E+04  0.00000000000E+00 0. -1.
         -2   -1    0    0    0  501 -0.00000000000E+00 -0.00000000000E+00 -0.30461324225E+01  0.30461324225E+01  0.00000000000E+00 0.  1.
         23    2    1    2    0    0  0.89761614097E+01  0.59323066167E+01  0.10719898165E+04  0.10759324285E+04  0.91392889569E+02 0.  0.
         11    1    3    3    0    0 -0.67589958327E+01  0.32193316297E+02  0.15597002851E+03  0.15940120273E+03  0.00000000000E+00 0.  1.
        -11    1    3    3    0    0  0.15735157242E+02 -0.26261009681E+02  0.91601978798E+03  0.91653122575E+03  0.00000000000E+00 0. -1.
         22    1    1    2    0    0 -0.89761614097E+01 -0.59323066167E+01  0.25851320100E+02  0.28000972954E+02  0.00000000000E+00 0.  1.
<mgrwt>
<rscale>  0 0.53811183E+02</rscale>
<asrwt>0</asrwt>
<pdfrwt beam="1">  1        2 0.16936696E+00 0.92024040E+02</pdfrwt>
<pdfrwt beam="2">  1       -2 0.46863663E-03 0.92024040E+02</pdfrwt>
<totfact> 0.12844297E+05</totfact>
</mgrwt>
</event>
<event>
 6    1  0.2995420E-002  0.9403169E+02  0.7546771E-02  0.1400878E+00
          2   -1    0    0  501    0  0.00000000000E+00  0.00000000000E+00  0.78615520433E+03  0.78615520433E+03  0.00000000000E+00 0. -1.
         -2   -1    0    0    0  501 -0.00000000000E+00 -0.00000000000E+00 -0.35062967382E+02  0.35062967382E+02  0.00000000000E+00 0.  1.
         23    2    1    2    0    0  0.41587577959E+01  0.14258762885E+02  0.78162690267E+03  0.78726270976E+03  0.92851233744E+02 0.  0.
         13    1    3    3    0    0  0.17572205973E+02  0.70390843337E+01  0.29944924991E+02  0.35426397838E+02  0.00000000000E+00 0.  1.
        -13    1    3    3    0    0 -0.13413448177E+02  0.72196785508E+01  0.75168197768E+03  0.75183631192E+03  0.00000000000E+00 0. -1.
         22    1    1    2    0    0 -0.41587577959E+01 -0.14258762885E+02 -0.30534665727E+02  0.33955461953E+02  0.00000000000E+00 0.  1.
<mgrwt>
<rscale>  0 0.59280007E+02</rscale>
<asrwt>0</asrwt>
<pdfrwt beam="1">  1        2 0.12094694E+00 0.94031692E+02</pdfrwt>
<pdfrwt beam="2">  1       -2 0.53943033E-02 0.94031692E+02</pdfrwt>
<totfact> 0.60047761E+03</totfact>
</mgrwt>
</event>
<event>
 6    1  0.2995420E-002  0.9207901E+02  0.7546771E-02  0.1373204E+00
         -2   -1    0    0    0  501 -0.00000000000E+00  0.00000000000E+00  0.54008127751E+01  0.54008127751E+01  0.00000000000E+00 0.  1.
          2   -1    0    0  501    0  0.00000000000E+00 -0.00000000000E+00 -0.74545433079E+03  0.74545433079E+03  0.00000000000E+00 0. -1.
         23    2    1    2    0    0  0.24063025945E+02  0.56908849898E+01 -0.67516585803E+03  0.68141579011E+03  0.88696830701E+02 0.  0.
         13    1    3    3    0    0  0.22105906105E+02 -0.19005645916E+02 -0.62283626937E+03  0.62351816662E+03  0.00000000000E+00 0. -1.
        -13    1    3    3    0    0  0.19571198395E+01  0.24696530906E+02 -0.52329588654E+02  0.57897623488E+02  0.00000000000E+00 0.  1.
         22    1    1    2    0    0 -0.24063025945E+02 -0.56908849898E+01 -0.64887659990E+02  0.69439353457E+02  0.00000000000E+00 0. -1.
<mgrwt>
<rscale>  0 0.66284580E+02</rscale>
<asrwt>0</asrwt>
<pdfrwt beam="1">  1        2 0.11468526E+00 0.92079005E+02</pdfrwt>
<pdfrwt beam="2">  1       -2 0.83089446E-03 0.92079005E+02</pdfrwt>
<totfact> 0.95106361E+04</totfact>
</mgrwt>
</event>
<event>
 6    1  0.2995420E-002  0.9449372E+02  0.7546771E-02  0.1357901E+00
         -4   -1    0    0    0  501 -0.00000000000E+00  0.00000000000E+00  0.13886934943E+03  0.13886934943E+03  0.00000000000E+00 0.  1.
          4   -1    0    0  501    0  0.00000000000E+00 -0.00000000000E+00 -0.31467101180E+02  0.31467101180E+02  0.00000000000E+00 0. -1.
         23    2    1    2    0    0 -0.28146920851E+02  0.89184937662E+01  0.52754842404E+02  0.10822262244E+03  0.89762319075E+02 0.  0.
         13    1    3    3    0    0 -0.18030015074E+02  0.21428935012E+01 -0.24231486656E+02  0.30279339189E+02  0.00000000000E+00 0. -1.
        -13    1    3    3    0    0 -0.10116905777E+02  0.67756002650E+01  0.76986329060E+02  0.77943283249E+02  0.00000000000E+00 0.  1.
         22    1    1    2    0    0  0.28146920851E+02 -0.89184937662E+01  0.54647405843E+02  0.62113828169E+02  0.00000000000E+00 0. -1.
<mgrwt>
<rscale>  0 0.70648607E+02</rscale>
<asrwt>0</asrwt>
<pdfrwt beam="1">  1        4 0.48410926E-02 0.94493717E+02</pdfrwt>
<pdfrwt beam="2">  1       -4 0.21364515E-01 0.94493717E+02</pdfrwt>
<totfact> 0.74335963E+03</totfact>
</mgrwt>
</event>
<event>
 6    1  0.2995420E-002  0.1005483E+03  0.7546771E-02  0.1373997E+00
          2   -1    0    0  501    0  0.00000000000E+00  0.00000000000E+00  0.13809814965E+02  0.13809814965E+02  0.00000000000E+00 0. -1.
         -2   -1    0    0    0  501 -0.00000000000E+00 -0.00000000000E+00 -0.27978710764E+03  0.27978710764E+03  0.00000000000E+00 0.  1.
         23    2    1    2    0    0  0.14145581022E+02  0.12297126836E+02 -0.18584254414E+03  0.21129932413E+03  0.98785810607E+02 0.  0.
         11    1    3    3    0    0  0.26350047428E+02 -0.35301064966E+02 -0.12818867526E+03  0.13554640037E+03  0.00000000000E+00 0. -1.
        -11    1    3    3    0    0 -0.12204466406E+02  0.47598191801E+02 -0.57653868876E+02  0.75752923768E+02  0.00000000000E+00 0.  1.
         22    1    1    2    0    0 -0.14145581022E+02 -0.12297126836E+02 -0.80134748542E+02  0.82297598475E+02  0.00000000000E+00 0. -1.
<mgrwt>
<rscale>  0 0.66068324E+02</rscale>
<asrwt>0</asrwt>
<pdfrwt beam="1">  1        2 0.21245869E-02 0.10054826E+03</pdfrwt>
<pdfrwt beam="2">  1       -2 0.43044170E-01 0.10054826E+03</pdfrwt>
<totfact> 0.23137617E+04</totfact>
</mgrwt>
</event>
<event>
 6    1  0.2995420E-002  0.9104025E+02  0.7546771E-02  0.1432048E+00
         -4   -1    0    0    0  501 -0.00000000000E+00  0.00000000000E+00  0.27320513323E+01  0.27320513323E+01  0.00000000000E+00 0.  1.
          4   -1    0    0  501    0  0.00000000000E+00 -0.00000000000E+00 -0.21180261192E+04  0.21180261192E+04  0.00000000000E+00 0. -1.
         23    2    1    2    0    0 -0.74498292025E+01 -0.68302594646E+01 -0.21024222847E+04  0.21043924991E+04  0.90477481497E+02 0.  0.
         13    1    3    3    0    0  0.37189650929E+02 -0.20237765840E+02 -0.77906092161E+03  0.78021058496E+03  0.00000000000E+00 0.  1.
        -13    1    3    3    0    0 -0.44639480132E+02  0.13407506375E+02 -0.13233613631E+04  0.13241819142E+04  0.00000000000E+00 0. -1.
         22    1    1    2    0    0  0.74498292025E+01  0.68302594646E+01 -0.12871783157E+02  0.16365671424E+02  0.00000000000E+00 0.  1.
<mgrwt>
<rscale>  0 0.52551020E+02</rscale>
<asrwt>0</asrwt>
<pdfrwt beam="1">  1        4 0.32584967E+00 0.91040250E+02</pdfrwt>
<pdfrwt beam="2">  1       -4 0.42031623E-03 0.91040250E+02</pdfrwt>
<totfact> 0.44878400E+02</totfact>
</mgrwt>
</event>
<event>
 6    1  0.2995420E-002  0.9497467E+02  0.7546771E-02  0.1370611E+00
          1   -1    0    0  501    0  0.00000000000E+00  0.00000000000E+00  0.44118069763E+03  0.44118069763E+03  0.00000000000E+00 0. -1.
         -1   -1    0    0    0  501 -0.00000000000E+00 -0.00000000000E+00 -0.10481718908E+02  0.10481718908E+02  0.00000000000E+00 0.  1.
         23    2    1    2    0    0  0.17137011964E+02  0.16107714442E+02  0.40824167114E+03  0.41914370950E+03  0.92016582834E+02 0.  0.
         11    1    3    3    0    0 -0.35106039946E+02 -0.89221494408E+01  0.13106927499E+03  0.13598232840E+03  0.00000000000E+00 0.  1.
        -11    1    3    3    0    0  0.52243051909E+02  0.25029863883E+02  0.27717239615E+03  0.28316138110E+03  0.00000000000E+00 0. -1.
         22    1    1    2    0    0 -0.17137011964E+02 -0.16107714442E+02  0.22457307586E+02  0.32518707041E+02  0.00000000000E+00 0.  1.
<mgrwt>
<rscale>  0 0.66997683E+02</rscale>
<asrwt>0</asrwt>
<pdfrwt beam="1">  1        1 0.67873939E-01 0.94974666E+02</pdfrwt>
<pdfrwt beam="2">  1       -1 0.16125725E-02 0.94974666E+02</pdfrwt>
<totfact> 0.44482972E+04</totfact>
</mgrwt>
</event>
<event>
 6    1  0.2995420E-002  0.8658547E+02  0.7546771E-02  0.1432451E+00
         -2   -1    0    0    0  501 -0.00000000000E+00  0.00000000000E+00  0.53144258899E+02  0.53144258899E+02  0.00000000000E+00 0.  1.
          2   -1    0    0  501    0  0.00000000000E+00 -0.00000000000E+00 -0.45563635460E+02  0.45563635460E+02  0.00000000000E+00 0. -1.
         23    2    1    2    0    0 -0.65562047696E+01  0.96632301541E+01  0.48836071671E+01  0.86723081688E+02  0.85794413808E+02 0.  0.
         11    1    3    3    0    0 -0.62687598925E+01  0.47404764113E+02  0.93308777452E+01  0.48719342060E+02  0.00000000000E+00 0.  1.
        -11    1    3    3    0    0 -0.28744487714E+00 -0.37741533959E+02 -0.44472705781E+01  0.38003739629E+02  0.00000000000E+00 0. -1.
         22    1    1    2    0    0  0.65562047696E+01 -0.96632301541E+01  0.26970162715E+01  0.11984812671E+02  0.00000000000E+00 0. -1.
<mgrwt>
<rscale>  0 0.52471123E+02</rscale>
<asrwt>0</asrwt>
<pdfrwt beam="1">  1        2 0.70097900E-02 0.86585468E+02</pdfrwt>
<pdfrwt beam="2">  1       -2 0.81760399E-02 0.86585468E+02</pdfrwt>
<totfact> 0.77547718E+04</totfact>
</mgrwt>
</event>
<event>
 6    1  0.2995420E-002  0.9183007E+02  0.7546771E-02  0.1381334E+00
         -1   -1    0    0    0  501 -0.00000000000E+00  0.00000000000E+00  0.88361153303E+01  0.88361153303E+01  0.00000000000E+00 0.  1.
          1   -1    0    0  501    0  0.00000000000E+00 -0.00000000000E+00 -0.54041028261E+03  0.54041028261E+03  0.00000000000E+00 0. -1.
         23    2    1    2    0    0 -0.25808670457E+01 -0.21667489634E+02 -0.51123345816E+03  0.51941545044E+03  0.89199890270E+02 0.  0.
         13    1    3    3    0    0 -0.43912993775E+02 -0.13494193032E+02 -0.33925251865E+03  0.34234882164E+03  0.00000000000E+00 0. -1.
        -13    1    3    3    0    0  0.41332126729E+02 -0.81732966016E+01 -0.17198093951E+03  0.17706662879E+03  0.00000000000E+00 0.  1.
         22    1    1    2    0    0  0.25808670457E+01  0.21667489634E+02 -0.20340709121E+02  0.29830947509E+02  0.00000000000E+00 0.  1.
<mgrwt>
<rscale>  0 0.64114406E+02</rscale>
<asrwt>0</asrwt>
<pdfrwt beam="1">  1        1 0.83140016E-01 0.91830068E+02</pdfrwt>
<pdfrwt beam="2">  1       -1 0.13594028E-02 0.91830068E+02</pdfrwt>
<totfact> 0.43537159E+04</totfact>
</mgrwt>
</event>
<event>
 6    1  0.2995420E-002  0.9154019E+02  0.7546771E-02  0.1415701E+00
          2   -1    0    0  501    0  0.00000000000E+00  0.00000000000E+00  0.14829545944E+02  0.14829545944E+02  0.00000000000E+00 0. -1.
         -2   -1    0    0    0  501 -0.00000000000E+00 -0.00000000000E+00 -0.18914320523E+03  0.18914320523E+03  0.00000000000E+00 0.  1.
         23    2    1    2    0    0 -0.12578155728E+02 -0.21862852649E+01 -0.13912191675E+03  0.16653682474E+03  0.90645553845E+02 0.  0.
         13    1    3    3    0    0 -0.81191086194E+01 -0.38207311493E+02 -0.24036779156E+02  0.45863769235E+02  0.00000000000E+00 0. -1.
        -13    1    3    3    0    0 -0.44590471087E+01  0.36021026228E+02 -0.11508513759E+03  0.12067305551E+03  0.00000000000E+00 0.  1.
         22    1    1    2    0    0  0.12578155728E+02  0.21862852649E+01 -0.35191742542E+02  0.37435926434E+02  0.00000000000E+00 0. -1.
<mgrwt>
<rscale>  0 0.55940832E+02</rscale>
<asrwt>0</asrwt>
<pdfrwt beam="1">  1        2 0.22814688E-02 0.91540189E+02</pdfrwt>
<pdfrwt beam="2">  1       -2 0.29098952E-01 0.91540189E+02</pdfrwt>
<totfact> 0.42610553E+04</totfact>
</mgrwt>
</event>
<event>
 6    1  0.2995420E-002  0.9594882E+02  0.7546771E-02  0.1395351E+00
          2   -1    0    0  501    0  0.00000000000E+00  0.00000000000E+00  0.18650040315E+03  0.18650040315E+03  0.00000000000E+00 0.  1.
         -2   -1    0    0    0  501 -0.00000000000E+00 -0.00000000000E+00 -0.24083069037E+02  0.24083069037E+02  0.00000000000E+00 0. -1.
         23    2    1    2    0    0  0.11954462314E+02  0.94890739251E+01  0.16870100196E+03  0.19407783149E+03  0.94727107640E+02 0.  0.
         13    1    3    3    0    0 -0.27996205712E+02  0.88463745615E+01  0.14430792499E+03  0.14726446650E+03  0.00000000000E+00 0. -1.
        -13    1    3    3    0    0  0.39950668027E+02  0.64269936359E+00  0.24393076965E+02  0.46813364994E+02  0.00000000000E+00 0.  1.
         22    1    1    2    0    0 -0.11954462314E+02 -0.94890739251E+01 -0.62836678441E+01  0.16505640695E+02  0.00000000000E+00 0.  1.
<mgrwt>
<rscale>  0 0.60595165E+02</rscale>
<asrwt>0</asrwt>
<pdfrwt beam="1">  1        2 0.28692369E-01 0.95948823E+02</pdfrwt>
<pdfrwt beam="2">  1       -2 0.37050877E-02 0.95948823E+02</pdfrwt>
<totfact> 0.49800205E+04</totfact>
</mgrwt>
</event>
<event>
 6    1  0.2995420E-002  0.1023781E+03  0.7546771E-02  0.1319127E+00
          2   -1    0    0  501    0  0.00000000000E+00  0.00000000000E+00  0.27245821192E+04  0.27245821192E+04  0.00000000000E+00 0. -1.
         -2   -1    0    0    0  501 -0.00000000000E+00 -0.00000000000E+00 -0.84121642858E+01  0.84121642858E+01  0.00000000000E+00 0.  1.
         23    2    1    2    0    0 -0.19432517141E+02 -0.41170521946E+02  0.26538108559E+04  0.26557848810E+04  0.91698640446E+02 0.  0.
         11    1    3    3    0    0 -0.13674513937E+02 -0.19043139376E+02  0.25145691764E+04  0.25146784638E+04  0.00000000000E+00 0. -1.
        -11    1    3    3    0    0 -0.57580032046E+01 -0.22127382570E+02  0.13924167953E+03  0.14110641722E+03  0.00000000000E+00 0.  1.
         22    1    1    2    0    0  0.19432517141E+02  0.41170521946E+02  0.62359098931E+02  0.77209402401E+02  0.00000000000E+00 0.  1.
<mgrwt>
<rscale>  0 0.83602765E+02</rscale>
<asrwt>0</asrwt>
<pdfrwt beam="1">  1        2 0.41916578E+00 0.10237810E+03</pdfrwt>
<pdfrwt beam="2">  1       -2 0.12941813E-02 0.10237810E+03</pdfrwt>
<totfact> 0.44309227E+03</totfact>
</mgrwt>
</event>
<event>
 6    1  0.2995420E-002  0.9146568E+02  0.7546771E-02  0.1416770E+00
         -2   -1    0    0    0  501 -0.00000000000E+00  0.00000000000E+00  0.33810807922E+03  0.33810807922E+03  0.00000000000E+00 0.  1.
          2   -1    0    0  501    0  0.00000000000E+00 -0.00000000000E+00 -0.82972506378E+01  0.82972506378E+01  0.00000000000E+00 0. -1.
         23    2    1    2    0    0  0.16130469223E+01 -0.12484374341E+02  0.26384809509E+03  0.27925219343E+03  0.90595301902E+02 0.  0.
         13    1    3    3    0    0  0.53730981455E+01  0.14118785026E+01  0.26476855364E+03  0.26482683131E+03  0.00000000000E+00 0.  1.
        -13    1    3    3    0    0 -0.37600512232E+01 -0.13896252844E+02 -0.92045854738E+00  0.14425362118E+02  0.00000000000E+00 0. -1.
         22    1    1    2    0    0 -0.16130469223E+01  0.12484374341E+02  0.65962733489E+02  0.67153136430E+02  0.00000000000E+00 0.  1.
<mgrwt>
<rscale>  0 0.55710120E+02</rscale>
<asrwt>0</asrwt>
<pdfrwt beam="1">  1        2 0.12765004E-02 0.91465678E+02</pdfrwt>
<pdfrwt beam="2">  1       -2 0.52016617E-01 0.91465678E+02</pdfrwt>
<totfact> 0.31572050E+04</totfact>
</mgrwt>
</event>
<event>
 6    1  0.2995420E-002  0.9414435E+02  0.7546771E-02  0.1377896E+00
          1   -1    0    0  501    0  0.00000000000E+00  0.00000000000E+00  0.64273526742E+03  0.64273526742E+03  0.00000000000E+00 0. -1.
         -1   -1    0    0    0  501 -0.00000000000E+00 -0.00000000000E+00 -0.54378686860E+01  0.54378686860E+01  0.00000000000E+00 0.  1.
         23    2    1    2    0    0  0.18946535476E+02 -0.99910516560E+01  0.56425356010E+03  0.57205352837E+03  0.91675334269E+02 0.  0.
         13    1    3    3    0    0  0.39433600462E+02 -0.29381483603E+02  0.17496818176E+03  0.18174747605E+03  0.00000000000E+00 0.  1.
        -13    1    3    3    0    0 -0.20487064985E+02  0.19390431947E+02  0.38928537834E+03  0.39030605232E+03  0.00000000000E+00 0. -1.
         22    1    1    2    0    0 -0.18946535476E+02  0.99910516560E+01  0.73043838631E+02  0.76119607735E+02  0.00000000000E+00 0.  1.
<mgrwt>
<rscale>  0 0.65020114E+02</rscale>
<asrwt>0</asrwt>
<pdfrwt beam="1">  1        1 0.98882289E-01 0.94144353E+02</pdfrwt>
<pdfrwt beam="2">  1       -1 0.83659569E-03 0.94144353E+02</pdfrwt>
<totfact> 0.68783019E+04</totfact>
</mgrwt>
</event>
<event>
 6    1  0.2995420E-002  0.9406364E+02  0.7546771E-02  0.1413273E+00
         -3   -1    0    0    0  501 -0.00000000000E+00  0.00000000000E+00  0.59961881371E+02  0.59961881371E+02  0.00000000000E+00 0.  1.
          3   -1    0    0  501    0  0.00000000000E+00 -0.00000000000E+00 -0.83541130546E+02  0.83541130546E+02  0.00000000000E+00 0. -1.
         23    2    1    2    0    0 -0.11396379106E+02 -0.44046250163E+01 -0.55574525655E+02  0.10925427624E+03  0.93266772203E+02 0.  0.
         11    1    3    3    0    0 -0.16722937300E+02 -0.29943772200E+01 -0.81243391785E+02  0.83000672501E+02  0.00000000000E+00 0. -1.
        -11    1    3    3    0    0  0.53265581943E+01 -0.14102477962E+01  0.25668866129E+02  0.26253603742E+02  0.00000000000E+00 0.  1.
         22    1    1    2    0    0  0.11396379106E+02  0.44046250163E+01  0.31995276481E+02  0.34248735675E+02  0.00000000000E+00 0.  1.
<mgrwt>
<rscale>  0 0.56469753E+02</rscale>
<asrwt>0</asrwt>
<pdfrwt beam="1">  1        3 0.12852482E-01 0.94063643E+02</pdfrwt>
<pdfrwt beam="2">  1       -3 0.92249049E-02 0.94063643E+02</pdfrwt>
<totfact> 0.85159096E+03</totfact>
</mgrwt>
</event>
<event>
 6    1  0.2995420E-002  0.9419181E+02  0.7546771E-02  0.1379504E+00
          2   -1    0    0  501    0  0.00000000000E+00  0.00000000000E+00  0.81557258242E+03  0.81557258242E+03  0.00000000000E+00 0. -1.
         -2   -1    0    0    0  501 -0.00000000000E+00 -0.00000000000E+00 -0.57366165612E+01  0.57366165612E+01  0.00000000000E+00 0.  1.
         23    2    1    2    0    0 -0.36979246543E+01  0.20501520594E+02  0.77512201122E+03  0.78082407035E+03  0.91859183380E+02 0.  0.
         11    1    3    3    0    0 -0.35453497479E+02  0.41865252408E+02  0.51249662399E+03  0.51542452352E+03  0.00000000000E+00 0. -1.
        -11    1    3    3    0    0  0.31755572825E+02 -0.21363731814E+02  0.26262538723E+03  0.26539954683E+03  0.00000000000E+00 0.  1.
         22    1    1    2    0    0  0.36979246543E+01 -0.20501520594E+02  0.34713954639E+02  0.40485128629E+02  0.00000000000E+00 0.  1.
<mgrwt>
<rscale>  0 0.64594336E+02</rscale>
<asrwt>0</asrwt>
<pdfrwt beam="1">  1        2 0.12547261E+00 0.94191807E+02</pdfrwt>
<pdfrwt beam="2">  1       -2 0.88255704E-03 0.94191807E+02</pdfrwt>
<totfact> 0.78556373E+04</totfact>
</mgrwt>
</event>
<event>
 6    1  0.2995420E-002  0.9381772E+02  0.7546771E-02  0.1366929E+00
          2   -1    0    0  501    0  0.00000000000E+00  0.00000000000E+00  0.19482699272E+03  0.19482699272E+03  0.00000000000E+00 0.  1.
         -2   -1    0    0    0  501 -0.00000000000E+00 -0.00000000000E+00 -0.20317703857E+02  0.20317703857E+02  0.00000000000E+00 0. -1.
         23    2    1    2    0    0 -0.11968493680E+02 -0.23009761721E+02  0.10424042474E+03  0.14024204481E+03  0.90161360954E+02 0.  0.
         13    1    3    3    0    0 -0.49339408115E+02 -0.19305486529E+02  0.78525219021E+02  0.94727445999E+02  0.00000000000E+00 0. -1.
        -13    1    3    3    0    0  0.37370914434E+02 -0.37042751920E+01  0.25715205716E+02  0.45514598816E+02  0.00000000000E+00 0.  1.
         22    1    1    2    0    0  0.11968493680E+02  0.23009761721E+02  0.70268864128E+02  0.74902651764E+02  0.00000000000E+00 0. -1.
<mgrwt>
<rscale>  0 0.68028494E+02</rscale>
<asrwt>0</asrwt>
<pdfrwt beam="1">  1        2 0.29973382E-01 0.93817722E+02</pdfrwt>
<pdfrwt beam="2">  1       -2 0.31258007E-02 0.93817722E+02</pdfrwt>
<totfact> 0.60753065E+04</totfact>
</mgrwt>
</event>
<event>
 6    1  0.2995420E-002  0.9228567E+02  0.7546771E-02  0.1392525E+00
         -2   -1    0    0    0  501 -0.00000000000E+00  0.00000000000E+00  0.27622839263E+01  0.27622839263E+01  0.00000000000E+00 0.  1.
          2   -1    0    0  501    0  0.00000000000E+00 -0.00000000000E+00 -0.15695200171E+04  0.15695200171E+04  0.00000000000E+00 0. -1.
         23    2    1    2    0    0 -0.17907075709E+02 -0.11772847297E+01 -0.15085692817E+04  0.15113894013E+04  0.90524003023E+02 0.  0.
         13    1    3    3    0    0 -0.84970886602E+01 -0.41099798688E+02 -0.43069462398E+03  0.43273462202E+03  0.00000000000E+00 0.  1.
        -13    1    3    3    0    0 -0.94099870489E+01  0.39922513958E+02 -0.10778746577E+04  0.10786547792E+04  0.00000000000E+00 0. -1.
         22    1    1    2    0    0  0.17907075709E+02  0.11772847297E+01 -0.58188451466E+02  0.60892899781E+02  0.00000000000E+00 0.  1.
<mgrwt>
<rscale>  0 0.61283139E+02</rscale>
<asrwt>0</asrwt>
<pdfrwt beam="1">  1        2 0.24146436E+00 0.92285668E+02</pdfrwt>
<pdfrwt beam="2">  1       -2 0.42496722E-03 0.92285668E+02</pdfrwt>
<totfact> 0.83312310E+04</totfact>
</mgrwt>
</event>
<event>
 6    1  0.2995420E-002  0.1103857E+03  0.7546771E-02  0.1287213E+00
          2   -1    0    0  501    0  0.00000000000E+00  0.00000000000E+00  0.13590620983E+03  0.13590620983E+03  0.00000000000E+00 0. -1.
         -2   -1    0    0    0  501 -0.00000000000E+00 -0.00000000000E+00 -0.66311420317E+02  0.66311420317E+02  0.00000000000E+00 0.  1.
         23    2    1    2    0    0 -0.60573288930E+02  0.24199747409E+02  0.51235269462E+01  0.11050451874E+03  0.89051934440E+02 0.  0.
         13    1    3    3    0    0 -0.29223143939E+02  0.24983749618E+01  0.46032339746E+02  0.54582142882E+02  0.00000000000E+00 0. -1.
        -13    1    3    3    0    0 -0.31350144990E+02  0.21701372448E+02 -0.40908812800E+02  0.55922375859E+02  0.00000000000E+00 0.  1.
         22    1    1    2    0    0  0.60573288930E+02 -0.24199747409E+02  0.64471262562E+02  0.91713111401E+02  0.00000000000E+00 0. -1.
<mgrwt>
<rscale>  0 0.96781828E+02</rscale>
<asrwt>0</asrwt>
<pdfrwt beam="1">  1        2 0.20908648E-01 0.11038568E+03</pdfrwt>
<pdfrwt beam="2">  1       -2 0.10201757E-01 0.11038568E+03</pdfrwt>
<totfact> 0.15503377E+04</totfact>
</mgrwt>
</event>
<event>
 6    1  0.2995420E-002  0.8982903E+02  0.7546771E-02  0.1430074E+00
          2   -1    0    0  501    0  0.00000000000E+00  0.00000000000E+00  0.82388226822E+03  0.82388226822E+03  0.00000000000E+00 0. -1.
         -2   -1    0    0    0  501 -0.00000000000E+00 -0.00000000000E+00 -0.82958522528E+01  0.82958522528E+01  0.00000000000E+00 0.  1.
         23    2    1    2    0    0 -0.84901863671E+01 -0.67406937834E+01  0.81638113601E+03  0.82130835519E+03  0.89172500573E+02 0.  0.
         13    1    3    3    0    0 -0.24534909095E+02 -0.29655755938E+02  0.16918294897E+03  0.17350589571E+03  0.00000000000E+00 0.  1.
        -13    1    3    3    0    0  0.16044722728E+02  0.22915062155E+02  0.64719818704E+03  0.64780245948E+03  0.00000000000E+00 0. -1.
         22    1    1    2    0    0  0.84901863671E+01  0.67406937834E+01 -0.79472004609E+00  0.10869765277E+02  0.00000000000E+00 0.  1.
<mgrwt>
<rscale>  0 0.52945203E+02</rscale>
<asrwt>0</asrwt>
<pdfrwt beam="1">  1        2 0.12675105E+00 0.89829032E+02</pdfrwt>
<pdfrwt beam="2">  1       -2 0.12762856E-02 0.89829032E+02</pdfrwt>
<totfact> 0.45729431E+04</totfact>
</mgrwt>
</event>
<event>
 6    1  0.2995420E-002  0.9055257E+02  0.7546771E-02  0.1423226E+00
          1   -1    0    0  501    0  0.00000000000E+00  0.00000000000E+00  0.49954710541E+03  0.49954710541E+03  0.00000000000E+00 0. -1.
         -1   -1    0    0    0  501 -0.00000000000E+00 -0.00000000000E+00 -0.55859682935E+01  0.55859682935E+01  0.00000000000E+00 0.  1.
         23    2    1    2    0    0 -0.11238969060E+02 -0.34155692657E+01  0.46739341690E+03  0.47608441975E+03  0.89787460312E+02 0.  0.
         13    1    3    3    0    0 -0.24570895001E+02 -0.18484069145E+02  0.44467863863E+03  0.44574037438E+03  0.00000000000E+00 0. -1.
        -13    1    3    3    0    0  0.13331925941E+02  0.15068499879E+02  0.22714778265E+02  0.30344045372E+02  0.00000000000E+00 0.  1.
         22    1    1    2    0    0  0.11238969060E+02  0.34155692657E+01  0.26567720215E+02  0.29048653951E+02  0.00000000000E+00 0.  1.
<mgrwt>
<rscale>  0 0.54344153E+02</rscale>
<asrwt>0</asrwt>
<pdfrwt beam="1">  1        1 0.76853366E-01 0.90552574E+02</pdfrwt>
<pdfrwt beam="2">  1       -1 0.85938013E-03 0.90552574E+02</pdfrwt>
<totfact> 0.91946375E+04</totfact>
</mgrwt>
</event>
<event>
 6    1  0.2995420E-002  0.9112424E+02  0.7546771E-02  0.1427662E+00
          2   -1    0    0  501    0  0.00000000000E+00  0.00000000000E+00  0.60889042513E+03  0.60889042513E+03  0.00000000000E+00 0. -1.
         -2   -1    0    0    0  501 -0.00000000000E+00 -0.00000000000E+00 -0.47831310556E+01  0.47831310556E+01  0.00000000000E+00 0.  1.
         23    2    1    2    0    0 -0.72388567358E+01 -0.79775315841E+01  0.58189712378E+03  0.58898887022E+03  0.90485272369E+02 0.  0.
         11    1    3    3    0    0 -0.67919889268E+01 -0.91727978325E+01  0.58527072016E+03  0.58538200110E+03  0.00000000000E+00 0. -1.
        -11    1    3    3    0    0 -0.44686780899E+00  0.11952662485E+01 -0.33735963827E+01  0.36068691128E+01  0.00000000000E+00 0.  1.
         22    1    1    2    0    0  0.72388567358E+01  0.79775315841E+01  0.22210170296E+02  0.24684685973E+02  0.00000000000E+00 0.  1.
<mgrwt>
<rscale>  0 0.53432114E+02</rscale>
<asrwt>0</asrwt>
<pdfrwt beam="1">  1        2 0.93675389E-01 0.91124237E+02</pdfrwt>
<pdfrwt beam="2">  1       -2 0.73586680E-03 0.91124237E+02</pdfrwt>
<totfact> 0.14238164E+05</totfact>
</mgrwt>
</event>
<event>
 6    1  0.2995420E-002  0.9686153E+02  0.7546771E-02  0.1342385E+00
         -2   -1    0    0    0  501 -0.00000000000E+00  0.00000000000E+00  0.41029417011E+03  0.41029417011E+03  0.00000000000E+00 0.  1.
          2   -1    0    0  501    0  0.00000000000E+00 -0.00000000000E+00 -0.11365461958E+02  0.11365461958E+02  0.00000000000E+00 0. -1.
         23    2    1    2    0    0 -0.30971068371E+02 -0.17797440887E+02  0.24089600953E+03  0.25964022024E+03  0.90034441057E+02 0.  0.
         13    1    3    3    0    0  0.13105081326E+02 -0.31733028786E+02  0.36612144334E+02  0.50191407484E+02  0.00000000000E+00 0. -1.
        -13    1    3    3    0    0 -0.44076149696E+02  0.13935587899E+02  0.20428386520E+03  0.20944881275E+03  0.00000000000E+00 0.  1.
         22    1    1    2    0    0  0.30971068371E+02  0.17797440887E+02  0.15803269862E+03  0.16201941183E+03  0.00000000000E+00 0. -1.
<mgrwt>
<rscale>  0 0.75481925E+02</rscale>
<asrwt>0</asrwt>
<pdfrwt beam="1">  1        2 0.17485329E-02 0.96861533E+02</pdfrwt>
<pdfrwt beam="2">  1       -2 0.63122169E-01 0.96861533E+02</pdfrwt>
<totfact> 0.14028474E+04</totfact>
</mgrwt>
</event>
<event>
 6    1  0.2995420E-002  0.9513611E+02  0.7546771E-02  0.1368840E+00
         -1   -1    0    0    0  501 -0.00000000000E+00  0.00000000000E+00  0.11388165837E+02  0.11388165837E+02  0.00000000000E+00 0.  1.
          1   -1    0    0  501    0  0.00000000000E+00 -0.00000000000E+00 -0.33487208219E+03  0.33487208219E+03  0.00000000000E+00 0. -1.
         23    2    1    2    0    0  0.12053071547E+02 -0.20864588659E+02 -0.28849737467E+03  0.30377889103E+03  0.92034079816E+02 0.  0.
         11    1    3    3    0    0  0.11090975985E+02 -0.18221860117E+02 -0.29548111776E+03  0.29625012555E+03  0.00000000000E+00 0. -1.
        -11    1    3    3    0    0  0.96209556233E+00 -0.26427285425E+01  0.69837430917E+01  0.75287654759E+01  0.00000000000E+00 0.  1.
         22    1    1    2    0    0 -0.12053071547E+02  0.20864588659E+02 -0.34986541680E+02  0.42481356998E+02  0.00000000000E+00 0.  1.
<mgrwt>
<rscale>  0 0.67490770E+02</rscale>
<asrwt>0</asrwt>
<pdfrwt beam="1">  1        1 0.51518783E-01 0.95136110E+02</pdfrwt>
<pdfrwt beam="2">  1       -1 0.17520255E-02 0.95136110E+02</pdfrwt>
<totfact> 0.55676412E+04</totfact>
</mgrwt>
</event>
<event>
 6    1  0.2995420E-002  0.9074964E+02  0.7546771E-02  0.1428757E+00
          2   -1    0    0  501    0  0.00000000000E+00  0.00000000000E+00  0.54589354049E+02  0.54589354049E+02  0.00000000000E+00 0. -1.
         -2   -1    0    0    0  501 -0.00000000000E+00 -0.00000000000E+00 -0.47610429600E+02  0.47610429600E+02  0.00000000000E+00 0.  1.
         23    2    1    2    0    0  0.95011989961E+01  0.49778711027E+01  0.93011649456E+01  0.91225049757E+02  0.90113517581E+02 0.  0.
         11    1    3    3    0    0 -0.55458433976E+01  0.43692625180E+02  0.19942128142E+02  0.48347599205E+02  0.00000000000E+00 0. -1.
        -11    1    3    3    0    0  0.15047042394E+02 -0.38714754077E+02 -0.10640963196E+02  0.42877450552E+02  0.00000000000E+00 0.  1.
         22    1    1    2    0    0 -0.95011989961E+01 -0.49778711027E+01 -0.23222404961E+01  0.10974733892E+02  0.00000000000E+00 0. -1.
<mgrwt>
<rscale>  0 0.53210270E+02</rscale>
<asrwt>0</asrwt>
<pdfrwt beam="1">  1        2 0.83983622E-02 0.90749645E+02</pdfrwt>
<pdfrwt beam="2">  1       -2 0.73246814E-02 0.90749645E+02</pdfrwt>
<totfact> 0.73770210E+04</totfact>
</mgrwt>
</event>
<event>
 6    1  0.2995420E-002  0.9271338E+02  0.7546771E-02  0.1396882E+00
          1   -1    0    0  501    0  0.00000000000E+00  0.00000000000E+00  0.62064628245E+02  0.62064628245E+02  0.00000000000E+00 0. -1.
         -1   -1    0    0    0  501 -0.00000000000E+00 -0.00000000000E+00 -0.48107645802E+02  0.48107645802E+02  0.00000000000E+00 0.  1.
         23    2    1    2    0    0  0.57144863281E+01  0.15488970474E+02  0.13169137426E+02  0.93643987380E+02  0.91231609826E+02 0.  0.
         11    1    3    3    0    0  0.32784255222E+01 -0.23931664253E+01 -0.38603328597E+02  0.38816134509E+02  0.00000000000E+00 0.  1.
        -11    1    3    3    0    0  0.24360608059E+01  0.17882136900E+02  0.51772466023E+02  0.54827852871E+02  0.00000000000E+00 0. -1.
         22    1    1    2    0    0 -0.57144863281E+01 -0.15488970474E+02  0.78784501698E+00  0.16528286666E+02  0.00000000000E+00 0. -1.
<mgrwt>
<rscale>  0 0.60226867E+02</rscale>
<asrwt>0</asrwt>
<pdfrwt beam="1">  1        1 0.95484044E-02 0.92713377E+02</pdfrwt>
<pdfrwt beam="2">  1       -1 0.74011763E-02 0.92713377E+02</pdfrwt>
<totfact> 0.56888687E+04</totfact>
</mgrwt>
</event>
<event>
 6    1  0.2995420E-002  0.9080005E+02  0.7546771E-02  0.1417543E+00
          2   -1    0    0  501    0  0.00000000000E+00  0.00000000000E+00  0.40700431530E+02  0.40700431530E+02  0.00000000000E+00 0.  1.
         -2   -1    0    0    0  501 -0.00000000000E+00 -0.00000000000E+00 -0.67836947138E+02  0.67836947138E+02  0.00000000000E+00 0. -1.
         23    2    1    2    0    0 -0.12713783623E+02 -0.12865362117E+00 -0.17232717451E+02  0.92420863422E+02  0.89905464790E+02 0.  0.
         13    1    3    3    0    0 -0.22169133824E+02  0.14512573430E+02 -0.49273729196E+02  0.55946274862E+02  0.00000000000E+00 0. -1.
        -13    1    3    3    0    0  0.94553502015E+01 -0.14641227051E+02  0.32041011745E+02  0.36474588560E+02  0.00000000000E+00 0.  1.
         22    1    1    2    0    0  0.12713783623E+02  0.12865362117E+00 -0.99037981560E+01  0.16116515246E+02  0.00000000000E+00 0. -1.
<mgrwt>
<rscale>  0 0.55544215E+02</rscale>
<asrwt>0</asrwt>
<pdfrwt beam="1">  1        2 0.62616049E-02 0.90800052E+02</pdfrwt>
<pdfrwt beam="2">  1       -2 0.10436453E-01 0.90800052E+02</pdfrwt>
<totfact> 0.61777557E+04</totfact>
</mgrwt>
</event>
<event>
 6    1  0.2995420E-002  0.9093830E+02  0.7546771E-02  0.1417104E+00
         -2   -1    0    0    0  501 -0.00000000000E+00  0.00000000000E+00  0.20626684578E+03  0.20626684578E+03  0.00000000000E+00 0.  1.
          2   -1    0    0  501    0  0.00000000000E+00 -0.00000000000E+00 -0.14846990195E+02  0.14846990195E+02  0.00000000000E+00 0. -1.
         23    2    1    2    0    0 -0.11384430217E+02  0.57243715232E+01  0.13167532463E+03  0.16002551745E+03  0.90041109717E+02 0.  0.
         11    1    3    3    0    0  0.33242405273E+02  0.10190876347E+02  0.21026987907E+02  0.40633061532E+02  0.00000000000E+00 0. -1.
        -11    1    3    3    0    0 -0.44626835490E+02 -0.44665048238E+01  0.11064833672E+03  0.11939245592E+03  0.00000000000E+00 0.  1.
         22    1    1    2    0    0  0.11384430217E+02 -0.57243715232E+01  0.59744530955E+02  0.61088318521E+02  0.00000000000E+00 0.  1.
<mgrwt>
<rscale>  0 0.55638395E+02</rscale>
<asrwt>0</asrwt>
<pdfrwt beam="1">  1        2 0.22841525E-02 0.90938304E+02</pdfrwt>
<pdfrwt beam="2">  1       -2 0.31733359E-01 0.90938304E+02</pdfrwt>
<totfact> 0.36407113E+04</totfact>
</mgrwt>
</event>
<event>
 6    1  0.2995420E-002  0.9461154E+02  0.7546771E-02  0.1366149E+00
          2   -1    0    0  501    0  0.00000000000E+00  0.00000000000E+00  0.11469385418E+04  0.11469385418E+04  0.00000000000E+00 0. -1.
         -2   -1    0    0    0  501 -0.00000000000E+00 -0.00000000000E+00 -0.35947005069E+01  0.35947005069E+01  0.00000000000E+00 0.  1.
         23    2    1    2    0    0 -0.12436679965E+02  0.22397974162E+02  0.10297017593E+04  0.10340391950E+04  0.91076909603E+02 0.  0.
         13    1    3    3    0    0 -0.26927538499E+01  0.70172000392E+01  0.46764442197E+01  0.88521833593E+01  0.00000000000E+00 0.  1.
        -13    1    3    3    0    0 -0.97439261147E+01  0.15380774122E+02  0.10250253150E+04  0.10251870116E+04  0.00000000000E+00 0. -1.
         22    1    1    2    0    0  0.12436679965E+02 -0.22397974162E+02  0.11364208199E+03  0.11649404729E+03  0.00000000000E+00 0.  1.
<mgrwt>
<rscale>  0 0.68249460E+02</rscale>
<asrwt>0</asrwt>
<pdfrwt beam="1">  1        2 0.17645179E+00 0.94611541E+02</pdfrwt>
<pdfrwt beam="2">  1       -2 0.55303176E-03 0.94611541E+02</pdfrwt>
<totfact> 0.96318952E+04</totfact>
</mgrwt>
</event>
<event>
 6    1  0.2995420E-002  0.9301430E+02  0.7546771E-02  0.1396371E+00
          1   -1    0    0  501    0  0.00000000000E+00  0.00000000000E+00  0.96456578925E+03  0.96456578925E+03  0.00000000000E+00 0. -1.
         -1   -1    0    0    0  501 -0.00000000000E+00 -0.00000000000E+00 -0.34596167070E+02  0.34596167070E+02  0.00000000000E+00 0.  1.
         23    2    1    2    0    0 -0.29728451613E+01 -0.16213100219E+02  0.96021874466E+03  0.96471327219E+03  0.91542107954E+02 0.  0.
         11    1    3    3    0    0 -0.43788351018E+02 -0.25411778376E+02  0.47319410229E+03  0.47589477472E+03  0.00000000000E+00 0.  1.
        -11    1    3    3    0    0  0.40815505857E+02  0.91986781571E+01  0.48702464237E+03  0.48881849747E+03  0.00000000000E+00 0. -1.
         22    1    1    2    0    0  0.29728451613E+01  0.16213100219E+02 -0.30249122479E+02  0.34448684123E+02  0.00000000000E+00 0.  1.
<mgrwt>
<rscale>  0 0.60349542E+02</rscale>
<asrwt>0</asrwt>
<pdfrwt beam="1">  1        1 0.14839472E+00 0.93014300E+02</pdfrwt>
<pdfrwt beam="2">  1       -1 0.53224880E-02 0.93014300E+02</pdfrwt>
<totfact> 0.26587795E+03</totfact>
</mgrwt>
</event>
<event>
 6    1  0.2995420E-002  0.9400434E+02  0.7546771E-02  0.1410898E+00
          2   -1    0    0  501    0  0.00000000000E+00  0.00000000000E+00  0.76181032159E+02  0.76181032159E+02  0.00000000000E+00 0. -1.
         -2   -1    0    0    0  501 -0.00000000000E+00 -0.00000000000E+00 -0.38331547285E+02  0.38331547285E+02  0.00000000000E+00 0.  1.
         23    2    1    2    0    0  0.53303814228E+01  0.11529437441E+02  0.38968697302E+02  0.10176136263E+03  0.93142228128E+02 0.  0.
         13    1    3    3    0    0  0.38428397432E+02  0.12638609028E+02  0.52250875848E+02  0.66080482702E+02  0.00000000000E+00 0. -1.
        -13    1    3    3    0    0 -0.33098016009E+02 -0.11091715864E+01 -0.13282178546E+02  0.35680879926E+02  0.00000000000E+00 0.  1.
         22    1    1    2    0    0 -0.53303814228E+01 -0.11529437441E+02 -0.11192124274E+01  0.12751216816E+02  0.00000000000E+00 0.  1.
<mgrwt>
<rscale>  0 0.56993979E+02</rscale>
<asrwt>0</asrwt>
<pdfrwt beam="1">  1        2 0.11720159E-01 0.94004338E+02</pdfrwt>
<pdfrwt beam="2">  1       -2 0.58971611E-02 0.94004338E+02</pdfrwt>
<totfact> 0.68644509E+04</totfact>
</mgrwt>
</event>
<event>
 6    1  0.2995420E-002  0.9246724E+02  0.7546771E-02  0.1383263E+00
         -2   -1    0    0    0  501 -0.00000000000E+00  0.00000000000E+00  0.66745421683E+02  0.66745421683E+02  0.00000000000E+00 0.  1.
          2   -1    0    0  501    0  0.00000000000E+00 -0.00000000000E+00 -0.48082168283E+02  0.48082168283E+02  0.00000000000E+00 0. -1.
         23    2    1    2    0    0 -0.20132459679E+02  0.48686149677E+01  0.17285674747E+02  0.94069047932E+02  0.90117544812E+02 0.  0.
         11    1    3    3    0    0  0.20838667451E+02  0.28544327856E+02  0.28543252843E+02  0.45428471213E+02  0.00000000000E+00 0.  1.
        -11    1    3    3    0    0 -0.40971127129E+02 -0.23675712888E+02 -0.11257578096E+02  0.48640576719E+02  0.00000000000E+00 0. -1.
         22    1    1    2    0    0  0.20132459679E+02 -0.48686149677E+01  0.13775786525E+01  0.20758542034E+02  0.00000000000E+00 0.  1.
<mgrwt>
<rscale>  0 0.63613684E+02</rscale>
<asrwt>0</asrwt>
<pdfrwt beam="1">  1        2 0.73972567E-02 0.92467244E+02</pdfrwt>
<pdfrwt beam="2">  1       -2 0.10268526E-01 0.92467244E+02</pdfrwt>
<totfact> 0.51503004E+04</totfact>
</mgrwt>
</event>
<event>
 6    1  0.2995420E-002  0.9335290E+02  0.7546771E-02  0.1404735E+00
         -4   -1    0    0    0  501 -0.00000000000E+00  0.00000000000E+00  0.44751019748E+01  0.44751019748E+01  0.00000000000E+00 0.  1.
          4   -1    0    0  501    0  0.00000000000E+00 -0.00000000000E+00 -0.93145594232E+03  0.93145594232E+03  0.00000000000E+00 0. -1.
         23    2    1    2    0    0  0.98358047686E+01  0.10357487935E+02 -0.90444432727E+03  0.90924930834E+03  0.92253688174E+02 0.  0.
         13    1    3    3    0    0  0.14322791470E+02 -0.14180415266E+02 -0.43486388720E+02  0.47930079663E+02  0.00000000000E+00 0.  1.
        -13    1    3    3    0    0 -0.44869867019E+01  0.24537903201E+02 -0.86095793855E+03  0.86131922868E+03  0.00000000000E+00 0. -1.
         22    1    1    2    0    0 -0.98358047686E+01 -0.10357487935E+02 -0.22536513078E+02  0.26681735954E+02  0.00000000000E+00 0.  1.
<mgrwt>
<rscale>  0 0.58385514E+02</rscale>
<asrwt>0</asrwt>
<pdfrwt beam="1">  1        4 0.14330098E+00 0.93352898E+02</pdfrwt>
<pdfrwt beam="2">  1       -4 0.68847689E-03 0.93352898E+02</pdfrwt>
<totfact> 0.27759002E+03</totfact>
</mgrwt>
</event>
<event>
 6    1  0.2995420E-002  0.8860774E+02  0.7546771E-02  0.1436402E+00
          2   -1    0    0  501    0  0.00000000000E+00  0.00000000000E+00  0.17360451057E+04  0.17360451057E+04  0.00000000000E+00 0.  1.
         -2   -1    0    0    0  501 -0.00000000000E+00 -0.00000000000E+00 -0.21045039371E+01  0.21045039371E+01  0.00000000000E+00 0. -1.
         23    2    1    2    0    0 -0.96299055665E+01  0.35583948992E+01  0.17073232758E+04  0.17096210398E+04  0.88010990184E+02 0.  0.
         13    1    3    3    0    0 -0.12317359037E+02  0.34533012827E+02  0.14444935868E+04  0.14449588121E+04  0.00000000000E+00 0.  1.
        -13    1    3    3    0    0  0.26874534706E+01 -0.30974617928E+02  0.26282968894E+03  0.26466222766E+03  0.00000000000E+00 0. -1.
         22    1    1    2    0    0  0.96299055665E+01 -0.35583948992E+01  0.26617325993E+02  0.28528569864E+02  0.00000000000E+00 0. -1.
<mgrwt>
<rscale>  0 0.51696056E+02</rscale>
<asrwt>0</asrwt>
<pdfrwt beam="1">  1        2 0.26708272E+00 0.88607740E+02</pdfrwt>
<pdfrwt beam="2">  1       -2 0.32377122E-03 0.88607740E+02</pdfrwt>
<totfact> 0.99933051E+04</totfact>
</mgrwt>
</event>
<event>
 6    1  0.2995420E-002  0.9061900E+02  0.7546771E-02  0.1396269E+00
          1   -1    0    0  501    0  0.00000000000E+00  0.00000000000E+00  0.30342381791E+03  0.30342381791E+03  0.00000000000E+00 0. -1.
         -1   -1    0    0    0  501 -0.00000000000E+00 -0.00000000000E+00 -0.11835242336E+02  0.11835242336E+02  0.00000000000E+00 0.  1.
         23    2    1    2    0    0  0.49823236679E+00  0.17847350732E+02  0.27917339834E+03  0.29351250214E+03  0.88842705993E+02 0.  0.
         13    1    3    3    0    0  0.39788655512E+02  0.94622030421E+01  0.75023285900E+02  0.85446847929E+02  0.00000000000E+00 0.  1.
        -13    1    3    3    0    0 -0.39290423145E+02  0.83851476901E+01  0.20415011244E+03  0.20806565421E+03  0.00000000000E+00 0. -1.
         22    1    1    2    0    0 -0.49823236679E+00 -0.17847350732E+02  0.12415177232E+02  0.21746558103E+02  0.00000000000E+00 0.  1.
<mgrwt>
<rscale>  0 0.60374030E+02</rscale>
<asrwt>0</asrwt>
<pdfrwt beam="1">  1        1 0.46680581E-01 0.90618997E+02</pdfrwt>
<pdfrwt beam="2">  1       -1 0.18208067E-02 0.90618997E+02</pdfrwt>
<totfact> 0.59084800E+04</totfact>
</mgrwt>
</event>
<event>
 6    1  0.2995420E-002  0.9587326E+02  0.7546771E-02  0.1343105E+00
          2   -1    0    0  501    0  0.00000000000E+00  0.00000000000E+00  0.65639371433E+03  0.65639371433E+03  0.00000000000E+00 0.  1.
         -2   -1    0    0    0  501 -0.00000000000E+00 -0.00000000000E+00 -0.90251761827E+01  0.90251761827E+01  0.00000000000E+00 0. -1.
         23    2    1    2    0    0 -0.22217811369E+02  0.28810012941E+02  0.58818244603E+03  0.59594485589E+03  0.88701935985E+02 0.  0.
         13    1    3    3    0    0 -0.16555768800E+02 -0.71634409643E+01  0.50276580669E+03  0.50308932084E+03  0.00000000000E+00 0.  1.
        -13    1    3    3    0    0 -0.56620425696E+01  0.35973453905E+02  0.85416639346E+02  0.92855535048E+02  0.00000000000E+00 0. -1.
         22    1    1    2    0    0  0.22217811369E+02 -0.28810012941E+02  0.59186092118E+02  0.69474034631E+02  0.00000000000E+00 0. -1.
<mgrwt>
<rscale>  0 0.75247950E+02</rscale>
<asrwt>0</asrwt>
<pdfrwt beam="1">  1        2 0.10098361E+00 0.95873257E+02</pdfrwt>
<pdfrwt beam="2">  1       -2 0.13884892E-02 0.95873257E+02</pdfrwt>
<totfact> 0.53536334E+04</totfact>
</mgrwt>
</event>
<event>
 6    1  0.2995420E-002  0.9384646E+02  0.7546771E-02  0.1390495E+00
         -2   -1    0    0    0  501 -0.00000000000E+00  0.00000000000E+00  0.63518435237E+01  0.63518435237E+01  0.00000000000E+00 0.  1.
          2   -1    0    0  501    0  0.00000000000E+00 -0.00000000000E+00 -0.54135266720E+03  0.54135266720E+03  0.00000000000E+00 0. -1.
         23    2    1    2    0    0  0.17151522358E+02 -0.40781844292E+01 -0.49740114924E+03  0.50617690755E+03  0.92175659298E+02 0.  0.
         11    1    3    3    0    0  0.46587164911E+02 -0.67875495311E+01 -0.43011501323E+03  0.43268390237E+03  0.00000000000E+00 0. -1.
        -11    1    3    3    0    0 -0.29435642553E+02  0.27093651020E+01 -0.67286136005E+02  0.73493005179E+02  0.00000000000E+00 0.  1.
         22    1    1    2    0    0 -0.17151522358E+02  0.40781844292E+01 -0.37599674440E+02  0.41527603175E+02  0.00000000000E+00 0.  1.
<mgrwt>
<rscale>  0 0.61783806E+02</rscale>
<asrwt>0</asrwt>
<pdfrwt beam="1">  1        2 0.83285043E-01 0.93846462E+02</pdfrwt>
<pdfrwt beam="2">  1       -2 0.97720649E-03 0.93846462E+02</pdfrwt>
<totfact> 0.10913429E+05</totfact>
</mgrwt>
</event>
<event>
 6    1  0.2995420E-002  0.9096938E+02  0.7546771E-02  0.1408886E+00
          2   -1    0    0  501    0  0.00000000000E+00  0.00000000000E+00  0.12491987095E+04  0.12491987095E+04  0.00000000000E+00 0. -1.
         -2   -1    0    0    0  501 -0.00000000000E+00 -0.00000000000E+00 -0.66678267983E+01  0.66678267983E+01  0.00000000000E+00 0.  1.
         23    2    1    2    0    0  0.11507287469E+02 -0.87618575817E+01  0.12370643448E+04  0.12404046202E+04  0.89812253061E+02 0.  0.
         11    1    3    3    0    0  0.35916117643E+02 -0.38273700233E+02  0.75383135797E+03  0.75565637686E+03  0.00000000000E+00 0. -1.
        -11    1    3    3    0    0 -0.24408830174E+02  0.29511842651E+02  0.48323298682E+03  0.48474824332E+03  0.00000000000E+00 0.  1.
         22    1    1    2    0    0 -0.11507287469E+02  0.87618575817E+01  0.54665379047E+01  0.15461916111E+02  0.00000000000E+00 0.  1.
<mgrwt>
<rscale>  0 0.57443181E+02</rscale>
<asrwt>0</asrwt>
<pdfrwt beam="1">  1        2 0.19218423E+00 0.90969383E+02</pdfrwt>
<pdfrwt beam="2">  1       -2 0.10258205E-02 0.90969383E+02</pdfrwt>
<totfact> 0.35308641E+04</totfact>
</mgrwt>
</event>
<event>
 6    1  0.2995420E-002  0.7607150E+02  0.7546771E-02  0.1446731E+00
         -2   -1    0    0    0  501 -0.00000000000E+00  0.00000000000E+00  0.15399989553E+02  0.15399989553E+02  0.00000000000E+00 0.  1.
          2   -1    0    0  501    0  0.00000000000E+00 -0.00000000000E+00 -0.54394440104E+03  0.54394440104E+03  0.00000000000E+00 0. -1.
         23    2    1    2    0    0  0.10064951328E+02  0.95988361413E+01 -0.53746457330E+03  0.54282137067E+03  0.74789250590E+02 0.  0.
         11    1    3    3    0    0  0.15567429122E+02 -0.17510910865E+02 -0.57920270781E+02  0.62479873689E+02  0.00000000000E+00 0.  1.
        -11    1    3    3    0    0 -0.55024777940E+01  0.27109747007E+02 -0.47954430252E+03  0.48034149698E+03  0.00000000000E+00 0. -1.
         22    1    1    2    0    0 -0.10064951328E+02 -0.95988361413E+01  0.89201618139E+01  0.16523019921E+02  0.00000000000E+00 0.  1.
<mgrwt>
<rscale>  0 0.49743349E+02</rscale>
<asrwt>0</asrwt>
<pdfrwt beam="1">  1        2 0.83683763E-01 0.76071499E+02</pdfrwt>
<pdfrwt beam="2">  1       -2 0.23692289E-02 0.76071499E+02</pdfrwt>
<totfact> 0.29913519E+04</totfact>
</mgrwt>
</event>
<event>
 6    1  0.2995420E-002  0.8314132E+02  0.7546771E-02  0.1449574E+00
         -2   -1    0    0    0  501 -0.00000000000E+00  0.00000000000E+00  0.10345436080E+02  0.10345436080E+02  0.00000000000E+00 0.  1.
          2   -1    0    0  501    0  0.00000000000E+00 -0.00000000000E+00 -0.40141139747E+03  0.40141139747E+03  0.00000000000E+00 0. -1.
         23    2    1    2    0    0 -0.42965811585E+01  0.92677433867E+01 -0.39270612108E+03  0.40141073279E+03  0.82511376113E+02 0.  0.
         13    1    3    3    0    0  0.17199034267E+01  0.24863194226E+01  0.37691636319E+01  0.48318160719E+01  0.00000000000E+00 0.  1.
        -13    1    3    3    0    0 -0.60164845851E+01  0.67814239640E+01 -0.39647528471E+03  0.39657891672E+03  0.00000000000E+00 0. -1.
         22    1    1    2    0    0  0.42965811585E+01 -0.92677433867E+01  0.16401596906E+01  0.10346100760E+02  0.00000000000E+00 0.  1.
<mgrwt>
<rscale>  0 0.49223797E+02</rscale>
<asrwt>0</asrwt>
<pdfrwt beam="1">  1        2 0.61755609E-01 0.83141319E+02</pdfrwt>
<pdfrwt beam="2">  1       -2 0.15916053E-02 0.83141319E+02</pdfrwt>
<totfact> 0.73882734E+04</totfact>
</mgrwt>
</event>
<event>
 6    1  0.2995420E-002  0.1098890E+03  0.7546771E-02  0.1306090E+00
         -2   -1    0    0    0  501 -0.00000000000E+00  0.00000000000E+00  0.55581687639E+03  0.55581687639E+03  0.00000000000E+00 0.  1.
          2   -1    0    0  501    0  0.00000000000E+00 -0.00000000000E+00 -0.11365387512E+02  0.11365387512E+02  0.00000000000E+00 0. -1.
         23    2    1    2    0    0  0.31043891424E+02  0.34750956856E+02  0.33321701037E+03  0.35086916419E+03  0.99520059193E+02 0.  0.
         13    1    3    3    0    0  0.21516076279E+02  0.18900683049E+02  0.33100751880E+03  0.33224411938E+03  0.00000000000E+00 0.  1.
        -13    1    3    3    0    0  0.95278151453E+01  0.15850273807E+02  0.22094915677E+01  0.18625044811E+02  0.00000000000E+00 0. -1.
         22    1    1    2    0    0 -0.31043891424E+02 -0.34750956856E+02  0.21123447851E+03  0.21631309972E+03  0.00000000000E+00 0. -1.
<mgrwt>
<rscale>  0 0.88676180E+02</rscale>
<asrwt>0</asrwt>
<pdfrwt beam="1">  1        2 0.17485216E-02 0.10988901E+03</pdfrwt>
<pdfrwt beam="2">  1       -2 0.85510268E-01 0.10988901E+03</pdfrwt>
<totfact> 0.74434154E+03</totfact>
</mgrwt>
</event>
<event>
 6    1  0.2995420E-002  0.9579871E+02  0.7546771E-02  0.1388475E+00
         -2   -1    0    0    0  501 -0.00000000000E+00  0.00000000000E+00  0.51696247278E+01  0.51696247278E+01  0.00000000000E+00 0.  1.
          2   -1    0    0  501    0  0.00000000000E+00 -0.00000000000E+00 -0.79058893420E+03  0.79058893420E+03  0.00000000000E+00 0. -1.
         23    2    1    2    0    0 -0.13818266131E+02  0.10108266827E+02 -0.75324624274E+03  0.75931369975E+03  0.94256410387E+02 0.  0.
         11    1    3    3    0    0 -0.30950658026E+02  0.24087350038E+02 -0.70664603365E+03  0.70773353781E+03  0.00000000000E+00 0. -1.
        -11    1    3    3    0    0  0.17132391894E+02 -0.13979083211E+02 -0.46600209086E+02  0.51580161946E+02  0.00000000000E+00 0.  1.
         22    1    1    2    0    0  0.13818266131E+02 -0.10108266827E+02 -0.32173066741E+02  0.36444859180E+02  0.00000000000E+00 0.  1.
<mgrwt>
<rscale>  0 0.62287472E+02</rscale>
<asrwt>0</asrwt>
<pdfrwt beam="1">  1        2 0.12162912E+00 0.95798708E+02</pdfrwt>
<pdfrwt beam="2">  1       -2 0.79532653E-03 0.95798708E+02</pdfrwt>
<totfact> 0.94745620E+04</totfact>
</mgrwt>
</event>
<event>
 6    1  0.2995420E-002  0.9233943E+02  0.7546771E-02  0.1423480E+00
          2   -1    0    0  501    0  0.00000000000E+00  0.00000000000E+00  0.43285515922E+02  0.43285515922E+02  0.00000000000E+00 0. -1.
         -2   -1    0    0    0  501 -0.00000000000E+00 -0.00000000000E+00 -0.65514831993E+02  0.65514831993E+02  0.00000000000E+00 0.  1.
         23    2    1    2    0    0 -0.10269266148E+01 -0.10986826032E+02 -0.10892192307E+02  0.92979624171E+02  0.91677727575E+02 0.  0.
         11    1    3    3    0    0  0.44747641984E+02  0.13675288859E+01 -0.80115416764E+01  0.45479736130E+02  0.00000000000E+00 0.  1.
        -11    1    3    3    0    0 -0.45774568599E+02 -0.12354354918E+02 -0.28806506301E+01  0.47499888041E+02  0.00000000000E+00 0. -1.
         22    1    1    2    0    0  0.10269266148E+01  0.10986826032E+02 -0.11337123764E+02  0.15820723744E+02  0.00000000000E+00 0. -1.
<mgrwt>
<rscale>  0 0.54291354E+02</rscale>
<asrwt>0</asrwt>
<pdfrwt beam="1">  1        2 0.66593102E-02 0.92339432E+02</pdfrwt>
<pdfrwt beam="2">  1       -2 0.10079205E-01 0.92339432E+02</pdfrwt>
<totfact> 0.60486072E+04</totfact>
</mgrwt>
</event>
<event>
 6    1  0.2995420E-002  0.9136453E+02  0.7546771E-02  0.1416437E+00
         -3   -1    0    0    0  501 -0.00000000000E+00  0.00000000000E+00  0.98563389417E+02  0.98563389417E+02  0.00000000000E+00 0.  1.
          3   -1    0    0  501    0  0.00000000000E+00 -0.00000000000E+00 -0.28013415343E+02  0.28013415343E+02  0.00000000000E+00 0. -1.
         23    2    1    2    0    0  0.10021135339E+02  0.77938122141E+01  0.55553351355E+02  0.10692825888E+03  0.90478235159E+02 0.  0.
         11    1    3    3    0    0  0.12825390428E+02  0.89645739543E+01  0.80393869443E+02  0.81902554721E+02  0.00000000000E+00 0.  1.
        -11    1    3    3    0    0 -0.28042550897E+01 -0.11707617402E+01 -0.24840518088E+02  0.25025704157E+02  0.00000000000E+00 0. -1.
         22    1    1    2    0    0 -0.10021135339E+02 -0.77938122141E+01  0.14996622719E+02  0.19648545882E+02  0.00000000000E+00 0.  1.
<mgrwt>
<rscale>  0 0.55781813E+02</rscale>
<asrwt>0</asrwt>
<pdfrwt beam="1">  1        3 0.43097563E-02 0.91364532E+02</pdfrwt>
<pdfrwt beam="2">  1       -3 0.15163598E-01 0.91364532E+02</pdfrwt>
<totfact> 0.21457885E+04</totfact>
</mgrwt>
</event>
<event>
 6    1  0.2995420E-002  0.9227290E+02  0.7546771E-02  0.1412140E+00
          2   -1    0    0  501    0  0.00000000000E+00  0.00000000000E+00  0.73554618785E+02  0.73554618785E+02  0.00000000000E+00 0.  1.
         -2   -1    0    0    0  501 -0.00000000000E+00 -0.00000000000E+00 -0.38796167176E+02  0.38796167176E+02  0.00000000000E+00 0. -1.
         23    2    1    2    0    0  0.65288055889E+01  0.11441586168E+02  0.36155744540E+02  0.99103611772E+02  0.91327722005E+02 0.  0.
         13    1    3    3    0    0  0.46662950998E+02  0.71947316263E+01  0.37823782770E+01  0.47365615634E+02  0.00000000000E+00 0.  1.
        -13    1    3    3    0    0 -0.40134145409E+02  0.42468545416E+01  0.32373366263E+02  0.51737996138E+02  0.00000000000E+00 0. -1.
         22    1    1    2    0    0 -0.65288055889E+01 -0.11441586168E+02 -0.13972929308E+01  0.13247174189E+02  0.00000000000E+00 0. -1.
<mgrwt>
<rscale>  0 0.56719066E+02</rscale>
<asrwt>0</asrwt>
<pdfrwt beam="1">  1        2 0.11316095E-01 0.92272900E+02</pdfrwt>
<pdfrwt beam="2">  1       -2 0.59686411E-02 0.92272900E+02</pdfrwt>
<totfact> 0.70110334E+04</totfact>
</mgrwt>
</event>
<event>
 6    1  0.2995420E-002  0.9223226E+02  0.7546771E-02  0.1418634E+00
          2   -1    0    0  501    0  0.00000000000E+00  0.00000000000E+00  0.13346693535E+03  0.13346693535E+03  0.00000000000E+00 0. -1.
         -2   -1    0    0    0  501 -0.00000000000E+00 -0.00000000000E+00 -0.29009014284E+02  0.29009014284E+02  0.00000000000E+00 0.  1.
         23    2    1    2    0    0 -0.88669300333E+01 -0.79795546219E+01  0.11439842505E+03  0.14694825310E+03  0.91457605990E+02 0.  0.
         11    1    3    3    0    0 -0.38341827578E+01  0.26020146703E+02  0.10903479580E+03  0.11216209559E+03  0.00000000000E+00 0. -1.
        -11    1    3    3    0    0 -0.50327472754E+01 -0.33999701325E+02  0.53636292521E+01  0.34786157507E+02  0.00000000000E+00 0.  1.
         22    1    1    2    0    0  0.88669300333E+01  0.79795546219E+01 -0.99405039879E+01  0.15527696536E+02  0.00000000000E+00 0.  1.
<mgrwt>
<rscale>  0 0.55310950E+02</rscale>
<asrwt>0</asrwt>
<pdfrwt beam="1">  1        2 0.20533374E-01 0.92232258E+02</pdfrwt>
<pdfrwt beam="2">  1       -2 0.44629254E-02 0.92232258E+02</pdfrwt>
<totfact> 0.54313394E+04</totfact>
</mgrwt>
</event>
<event>
 6    1  0.2995420E-002  0.9954998E+02  0.7546771E-02  0.1362745E+00
         -2   -1    0    0    0  501 -0.00000000000E+00  0.00000000000E+00  0.31984547242E+01  0.31984547242E+01  0.00000000000E+00 0.  1.
          2   -1    0    0  501    0  0.00000000000E+00 -0.00000000000E+00 -0.18246770279E+04  0.18246770279E+04  0.00000000000E+00 0. -1.
         23    2    1    2    0    0 -0.21067577685E+02 -0.99013055768E+01 -0.17472224133E+04  0.17500561023E+04  0.96790086371E+02 0.  0.
         11    1    3    3    0    0  0.67727802223E+01 -0.43906449493E+02 -0.47451076569E+03  0.47658589322E+03  0.00000000000E+00 0.  1.
        -11    1    3    3    0    0 -0.27840357908E+02  0.34005143916E+02 -0.12727116476E+04  0.12734702091E+04  0.00000000000E+00 0. -1.
         22    1    1    2    0    0  0.21067577685E+02  0.99013055768E+01 -0.74256159884E+02  0.77819380378E+02  0.00000000000E+00 0.  1.
<mgrwt>
<rscale>  0 0.69225907E+02</rscale>
<asrwt>0</asrwt>
<pdfrwt beam="1">  1        2 0.28071945E+00 0.99549985E+02</pdfrwt>
<pdfrwt beam="2">  1       -2 0.49207013E-03 0.99549985E+02</pdfrwt>
<totfact> 0.50807326E+04</totfact>
</mgrwt>
</event>
<event>
 6    1  0.2995420E-002  0.9230472E+02  0.7546771E-02  0.1423195E+00
          2   -1    0    0  501    0  0.00000000000E+00  0.00000000000E+00  0.46454513301E+03  0.46454513301E+03  0.00000000000E+00 0.  1.
         -2   -1    0    0    0  501 -0.00000000000E+00 -0.00000000000E+00 -0.60147962978E+01  0.60147962978E+01  0.00000000000E+00 0. -1.
         23    2    1    2    0    0  0.10966094146E+01 -0.11041140670E+02  0.43289354356E+03  0.44262510332E+03  0.91635433644E+02 0.  0.
         13    1    3    3    0    0  0.24737864999E+02 -0.22044765931E+02  0.57783819998E+02  0.66610085747E+02  0.00000000000E+00 0. -1.
        -13    1    3    3    0    0 -0.23641255584E+02  0.11003625262E+02  0.37510972356E+03  0.37601501758E+03  0.00000000000E+00 0.  1.
         22    1    1    2    0    0 -0.10966094146E+01  0.11041140670E+02  0.25636793155E+02  0.27934825984E+02  0.00000000000E+00 0.  1.
<mgrwt>
<rscale>  0 0.54350597E+02</rscale>
<asrwt>0</asrwt>
<pdfrwt beam="1">  1        2 0.71468454E-01 0.92304724E+02</pdfrwt>
<pdfrwt beam="2">  1       -2 0.92535364E-03 0.92304724E+02</pdfrwt>
<totfact> 0.13879044E+05</totfact>
</mgrwt>
</event>
<event>
 6    1  0.2995420E-002  0.9011094E+02  0.7546771E-02  0.1384360E+00
         -2   -1    0    0    0  501 -0.00000000000E+00  0.00000000000E+00  0.66492165948E+02  0.66492165948E+02  0.00000000000E+00 0.  1.
          2   -1    0    0  501    0  0.00000000000E+00 -0.00000000000E+00 -0.62983073472E+02  0.62983073472E+02  0.00000000000E+00 0. -1.
         23    2    1    2    0    0 -0.99462495888E+01 -0.19607552252E+02 -0.24960820121E+02  0.93504141168E+02  0.87387630064E+02 0.  0.
         11    1    3    3    0    0 -0.17661075208E+02 -0.52558724621E+02 -0.21562070735E+02  0.59491646520E+02  0.00000000000E+00 0.  1.
        -11    1    3    3    0    0  0.77148256189E+01  0.32951172369E+02 -0.33987493859E+01  0.34012494648E+02  0.00000000000E+00 0. -1.
         22    1    1    2    0    0  0.99462495888E+01  0.19607552252E+02  0.28469912597E+02  0.35971098253E+02  0.00000000000E+00 0.  1.
<mgrwt>
<rscale>  0 0.63331486E+02</rscale>
<asrwt>0</asrwt>
<pdfrwt beam="1">  1        2 0.96897036E-02 0.90110942E+02</pdfrwt>
<pdfrwt beam="2">  1       -2 0.10229564E-01 0.90110942E+02</pdfrwt>
<totfact> 0.37009297E+04</totfact>
</mgrwt>
</event>
<event>
 6    1  0.2995420E-002  0.9596240E+02  0.7546771E-02  0.1367135E+00
          4   -1    0    0  501    0  0.00000000000E+00  0.00000000000E+00  0.13485132708E+02  0.13485132708E+02  0.00000000000E+00 0. -1.
         -4   -1    0    0    0  501 -0.00000000000E+00 -0.00000000000E+00 -0.31911992400E+03  0.31911992400E+03  0.00000000000E+00 0.  1.
         23    2    1    2    0    0 -0.12629039403E+02 -0.20587925227E+02 -0.17339991659E+03  0.19818252367E+03  0.92873173267E+02 0.  0.
         13    1    3    3    0    0 -0.10475044756E+02 -0.46192985116E+01 -0.18029348845E+03  0.18065659816E+03  0.00000000000E+00 0.  1.
        -13    1    3    3    0    0 -0.21539946471E+01 -0.15968626715E+02  0.68935718556E+01  0.17525925512E+02  0.00000000000E+00 0. -1.
         22    1    1    2    0    0  0.12629039403E+02  0.20587925227E+02 -0.13223487469E+03  0.13442253303E+03  0.00000000000E+00 0.  1.
<mgrwt>
<rscale>  0 0.67970030E+02</rscale>
<asrwt>0</asrwt>
<pdfrwt beam="1">  1        4 0.20746356E-02 0.95962397E+02</pdfrwt>
<pdfrwt beam="2">  1       -4 0.49095377E-01 0.95962397E+02</pdfrwt>
<totfact> 0.57663774E+03</totfact>
</mgrwt>
</event>
<event>
 6    1  0.2995420E-002  0.8499050E+02  0.7546771E-02  0.1419620E+00
         -2   -1    0    0    0  501 -0.00000000000E+00  0.00000000000E+00  0.54049202448E+02  0.54049202448E+02  0.00000000000E+00 0.  1.
          2   -1    0    0  501    0  0.00000000000E+00 -0.00000000000E+00 -0.46418847717E+02  0.46418847717E+02  0.00000000000E+00 0. -1.
         23    2    1    2    0    0 -0.40701434713E+01  0.14453426912E+02  0.43711426722E+01  0.85102827075E+02  0.83653551452E+02 0.  0.
         13    1    3    3    0    0  0.28886594610E+02 -0.17153316381E+01  0.28943825465E+02  0.40928263380E+02  0.00000000000E+00 0.  1.
        -13    1    3    3    0    0 -0.32956738081E+02  0.16168758550E+02 -0.24572682793E+02  0.44174563695E+02  0.00000000000E+00 0. -1.
         22    1    1    2    0    0  0.40701434713E+01 -0.14453426912E+02  0.32592120578E+01  0.15365223090E+02  0.00000000000E+00 0.  1.
<mgrwt>
<rscale>  0 0.55101484E+02</rscale>
<asrwt>0</asrwt>
<pdfrwt beam="1">  1        2 0.71413612E-02 0.84990495E+02</pdfrwt>
<pdfrwt beam="2">  1       -2 0.83152619E-02 0.84990495E+02</pdfrwt>
<totfact> 0.73617306E+04</totfact>
</mgrwt>
</event>
<event>
 6    1  0.2995420E-002  0.1329429E+03  0.7546771E-02  0.1238387E+00
         -2   -1    0    0    0  501 -0.00000000000E+00  0.00000000000E+00  0.14690538254E+03  0.14690538254E+03  0.00000000000E+00 0. -1.
          2   -1    0    0  501    0  0.00000000000E+00 -0.00000000000E+00 -0.90063251349E+02  0.90063251349E+02  0.00000000000E+00 0.  1.
         23    2    1    2    0    0 -0.89229277673E+02  0.38299020825E+02  0.33691217510E+02  0.13714557145E+03  0.90802701731E+02 0.  0.
         13    1    3    3    0    0 -0.66279543938E+02  0.65019312761E+02  0.40457803506E+02  0.10127844213E+03  0.00000000000E+00 0. -1.
        -13    1    3    3    0    0 -0.22949733735E+02 -0.26720291935E+02 -0.67665859959E+01  0.35867129320E+02  0.00000000000E+00 0.  1.
         22    1    1    2    0    0  0.89229277673E+02 -0.38299020825E+02  0.23150913685E+02  0.99823062439E+02  0.00000000000E+00 0.  1.
<mgrwt>
<rscale>  0 0.12290093E+03</rscale>
<asrwt>0</asrwt>
<pdfrwt beam="1">  1        2 0.13855885E-01 0.13294288E+03</pdfrwt>
<pdfrwt beam="2">  1       -2 0.22600828E-01 0.13294288E+03</pdfrwt>
<totfact> 0.68831992E+03</totfact>
</mgrwt>
</event>
<event>
 6    1  0.2995420E-002  0.9353117E+02  0.7546771E-02  0.1414815E+00
          1   -1    0    0  501    0  0.00000000000E+00  0.00000000000E+00  0.10923140100E+04  0.10923140100E+04  0.00000000000E+00 0. -1.
         -1   -1    0    0    0  501 -0.00000000000E+00 -0.00000000000E+00 -0.47558828157E+01  0.47558828157E+01  0.00000000000E+00 0.  1.
         23    2    1    2    0    0  0.47132909037E+01  0.11181290973E+02  0.10767969658E+04  0.10808514165E+04  0.92740728240E+02 0.  0.
         13    1    3    3    0    0  0.13540129671E+02 -0.25209123181E+02  0.88336309280E+03  0.88382644717E+03  0.00000000000E+00 0. -1.
        -13    1    3    3    0    0 -0.88268387672E+01  0.36390414154E+02  0.19343387299E+03  0.19702496934E+03  0.00000000000E+00 0.  1.
         22    1    1    2    0    0 -0.47132909037E+01 -0.11181290973E+02  0.10761161402E+02  0.16218476305E+02  0.00000000000E+00 0.  1.
<mgrwt>
<rscale>  0 0.56133116E+02</rscale>
<asrwt>0</asrwt>
<pdfrwt beam="1">  1        1 0.16804811E+00 0.93531166E+02</pdfrwt>
<pdfrwt beam="2">  1       -1 0.73167515E-03 0.93531166E+02</pdfrwt>
<totfact> 0.36868447E+04</totfact>
</mgrwt>
</event>
<event>
 6    1  0.2995420E-002  0.9145950E+02  0.7546771E-02  0.1431072E+00
          2   -1    0    0  501    0  0.00000000000E+00  0.00000000000E+00  0.16459083474E+03  0.16459083474E+03  0.00000000000E+00 0. -1.
         -2   -1    0    0    0  501 -0.00000000000E+00 -0.00000000000E+00 -0.17903204723E+02  0.17903204723E+02  0.00000000000E+00 0.  1.
         23    2    1    2    0    0  0.66804037981E+01  0.75978080553E+01  0.14609228986E+03  0.17235949891E+03  0.90898213548E+02 0.  0.
         13    1    3    3    0    0 -0.24315449320E+02  0.25015857475E+02  0.17669017319E+02  0.39105349683E+02  0.00000000000E+00 0.  1.
        -13    1    3    3    0    0  0.30995853118E+02 -0.17418049420E+02  0.12842327254E+03  0.13325414923E+03  0.00000000000E+00 0. -1.
         22    1    1    2    0    0 -0.66804037981E+01 -0.75978080553E+01  0.59534014954E+00  0.10134540544E+02  0.00000000000E+00 0.  1.
<mgrwt>
<rscale>  0 0.52745446E+02</rscale>
<asrwt>0</asrwt>
<pdfrwt beam="1">  1        2 0.25321666E-01 0.91459498E+02</pdfrwt>
<pdfrwt beam="2">  1       -2 0.27543393E-02 0.91459498E+02</pdfrwt>
<totfact> 0.87275421E+04</totfact>
</mgrwt>
</event>
<event>
 6    1  0.2995420E-002  0.9559400E+02  0.7546771E-02  0.1344537E+00
          3   -1    0    0  501    0  0.00000000000E+00  0.00000000000E+00  0.21791767192E+03  0.21791767192E+03  0.00000000000E+00 0. -1.
         -3   -1    0    0    0  501 -0.00000000000E+00 -0.00000000000E+00 -0.23243412606E+02  0.23243412606E+02  0.00000000000E+00 0.  1.
         23    2    1    2    0    0  0.16628361265E+02 -0.31712248342E+02  0.17714731253E+03  0.20129426929E+03  0.88634324157E+02 0.  0.
         11    1    3    3    0    0  0.33190580971E+01 -0.36060176230E+02  0.18268345442E+03  0.18623801163E+03  0.00000000000E+00 0. -1.
        -11    1    3    3    0    0  0.13309303167E+02  0.43479278875E+01 -0.55361418901E+01  0.15056257661E+02  0.00000000000E+00 0.  1.
         22    1    1    2    0    0 -0.16628361265E+02  0.31712248342E+02  0.17526946777E+02  0.39866815230E+02  0.00000000000E+00 0.  1.
<mgrwt>
<rscale>  0 0.74785282E+02</rscale>
<asrwt>0</asrwt>
<pdfrwt beam="1">  1        3 0.33525794E-01 0.95593998E+02</pdfrwt>
<pdfrwt beam="2">  1       -3 0.35759098E-02 0.95593998E+02</pdfrwt>
<totfact> 0.70999001E+03</totfact>
</mgrwt>
</event>
<event>
 6    1  0.2995420E-002  0.9705930E+02  0.7546771E-02  0.1352695E+00
         -2   -1    0    0    0  501 -0.00000000000E+00  0.00000000000E+00  0.19528548981E+02  0.19528548981E+02  0.00000000000E+00 0.  1.
          2   -1    0    0  501    0  0.00000000000E+00 -0.00000000000E+00 -0.24215835248E+03  0.24215835248E+03  0.00000000000E+00 0. -1.
         23    2    1    2    0    0 -0.26238139610E+02  0.14034671357E+02 -0.20570752455E+03  0.22745569501E+03  0.92385580944E+02 0.  0.
         11    1    3    3    0    0 -0.55143814657E+02  0.16991093849E+02 -0.81272515733E+02  0.99673263108E+02  0.00000000000E+00 0.  1.
        -11    1    3    3    0    0  0.28905675046E+02 -0.29564224925E+01 -0.12443500882E+03  0.12778243190E+03  0.00000000000E+00 0. -1.
         22    1    1    2    0    0  0.26238139610E+02 -0.14034671357E+02 -0.16922278952E+02  0.34231206453E+02  0.00000000000E+00 0.  1.
<mgrwt>
<rscale>  0 0.72222254E+02</rscale>
<asrwt>0</asrwt>
<pdfrwt beam="1">  1        2 0.37255133E-01 0.97059299E+02</pdfrwt>
<pdfrwt beam="2">  1       -2 0.30043920E-02 0.97059299E+02</pdfrwt>
<totfact> 0.51316170E+04</totfact>
</mgrwt>
</event>
<event>
 6    1  0.2995420E-002  0.1180266E+03  0.7546771E-02  0.1269896E+00
          2   -1    0    0  501    0  0.00000000000E+00  0.00000000000E+00  0.18595987894E+04  0.18595987894E+04  0.00000000000E+00 0. -1.
         -2   -1    0    0    0  501 -0.00000000000E+00 -0.00000000000E+00 -0.63730250208E+01  0.63730250208E+01  0.00000000000E+00 0.  1.
         23    2    1    2    0    0  0.29231956111E+02  0.68254175803E+02  0.15199253320E+04  0.15245009987E+04  0.91744974675E+02 0.  0.
         13    1    3    3    0    0  0.18181186385E+02  0.75529868048E+02  0.14868404593E+04  0.14888686537E+04  0.00000000000E+00 0. -1.
        -13    1    3    3    0    0  0.11050769727E+02 -0.72756922452E+01  0.33084872705E+02  0.35632345013E+02  0.00000000000E+00 0.  1.
         22    1    1    2    0    0 -0.29231956111E+02 -0.68254175803E+02  0.33330043243E+03  0.34147081578E+03  0.00000000000E+00 0.  1.
<mgrwt>
<rscale>  0 0.10511382E+03</rscale>
<asrwt>0</asrwt>
<pdfrwt beam="1">  1        2 0.28609169E+00 0.11802661E+03</pdfrwt>
<pdfrwt beam="2">  1       -2 0.98046687E-03 0.11802661E+03</pdfrwt>
<totfact> 0.18619708E+04</totfact>
</mgrwt>
</event>
<event>
 6    1  0.2995420E-002  0.9194361E+02  0.7546771E-02  0.1424853E+00
         -2   -1    0    0    0  501 -0.00000000000E+00  0.00000000000E+00  0.36503742739E+02  0.36503742739E+02  0.00000000000E+00 0.  1.
          2   -1    0    0  501    0  0.00000000000E+00 -0.00000000000E+00 -0.12304712408E+03  0.12304712408E+03  0.00000000000E+00 0. -1.
         23    2    1    2    0    0  0.36330530670E+01  0.10325228767E+02 -0.10408223616E+03  0.13887670778E+03  0.91289751100E+02 0.  0.
         13    1    3    3    0    0  0.25628430880E+02  0.35246478198E+02 -0.94844763348E+02  0.10437748718E+03  0.00000000000E+00 0. -1.
        -13    1    3    3    0    0 -0.21995377813E+02 -0.24921249431E+02 -0.92374728146E+01  0.34499220605E+02  0.00000000000E+00 0.  1.
         22    1    1    2    0    0 -0.36330530670E+01 -0.10325228767E+02  0.17538854819E+02  0.20674159041E+02  0.00000000000E+00 0.  1.
<mgrwt>
<rscale>  0 0.54007310E+02</rscale>
<asrwt>0</asrwt>
<pdfrwt beam="1">  1        2 0.18930327E-01 0.91943614E+02</pdfrwt>
<pdfrwt beam="2">  1       -2 0.56159603E-02 0.91943614E+02</pdfrwt>
<totfact> 0.42255344E+04</totfact>
</mgrwt>
</event>
<event>
 6    1  0.2995420E-002  0.9432717E+02  0.7546771E-02  0.1409396E+00
          2   -1    0    0  501    0  0.00000000000E+00  0.00000000000E+00  0.30357642015E+02  0.30357642015E+02  0.00000000000E+00 0. -1.
         -2   -1    0    0    0  501 -0.00000000000E+00 -0.00000000000E+00 -0.14660414610E+03  0.14660414610E+03  0.00000000000E+00 0.  1.
         23    2    1    2    0    0  0.12614006749E+02  0.25548818156E+01 -0.44908184721E+02  0.10447181366E+03  0.93445033075E+02 0.  0.
         13    1    3    3    0    0  0.18149594928E+02  0.13560757893E+02 -0.71586619434E+02  0.75086257282E+02  0.00000000000E+00 0.  1.
        -13    1    3    3    0    0 -0.55355881792E+01 -0.11005876077E+02  0.26678434713E+02  0.29385556374E+02  0.00000000000E+00 0. -1.
         22    1    1    2    0    0 -0.12614006749E+02 -0.25548818156E+01 -0.71338319368E+02  0.72489974462E+02  0.00000000000E+00 0.  1.
<mgrwt>
<rscale>  0 0.57328878E+02</rscale>
<asrwt>0</asrwt>
<pdfrwt beam="1">  1        2 0.46704064E-02 0.94327169E+02</pdfrwt>
<pdfrwt beam="2">  1       -2 0.22554484E-01 0.94327169E+02</pdfrwt>
<totfact> 0.25833419E+04</totfact>
</mgrwt>
</event>
<event>
 6    1  0.2995420E-002  0.9239809E+02  0.7546771E-02  0.1387716E+00
          2   -1    0    0  501    0  0.00000000000E+00  0.00000000000E+00  0.29655272302E+02  0.29655272302E+02  0.00000000000E+00 0. -1.
         -2   -1    0    0    0  501 -0.00000000000E+00 -0.00000000000E+00 -0.14750169662E+03  0.14750169662E+03  0.00000000000E+00 0.  1.
         23    2    1    2    0    0  0.17651083879E+02 -0.78461686797E+01 -0.46883689339E+02  0.10361220105E+03  0.90356431737E+02 0.  0.
         13    1    3    3    0    0  0.39112842114E+02 -0.22507044510E+02  0.51787387758E+01  0.45422470278E+02  0.00000000000E+00 0. -1.
        -13    1    3    3    0    0 -0.21461758235E+02  0.14660875830E+02 -0.52062428114E+02  0.58189730776E+02  0.00000000000E+00 0.  1.
         22    1    1    2    0    0 -0.17651083879E+02  0.78461686797E+01 -0.70962734978E+02  0.73544767867E+02  0.00000000000E+00 0.  1.
<mgrwt>
<rscale>  0 0.62478239E+02</rscale>
<asrwt>0</asrwt>
<pdfrwt beam="1">  1        2 0.45623497E-02 0.92398095E+02</pdfrwt>
<pdfrwt beam="2">  1       -2 0.22692568E-01 0.92398095E+02</pdfrwt>
<totfact> 0.26286002E+04</totfact>
</mgrwt>
</event>
<event>
 6    1  0.2995420E-002  0.9711363E+02  0.7546771E-02  0.1343501E+00
         -2   -1    0    0    0  501 -0.00000000000E+00  0.00000000000E+00  0.71202665891E+02  0.71202665891E+02  0.00000000000E+00 0. -1.
          2   -1    0    0  501    0  0.00000000000E+00 -0.00000000000E+00 -0.77882460162E+02  0.77882460162E+02  0.00000000000E+00 0.  1.
         23    2    1    2    0    0  0.26124469837E+02  0.22941188896E+02 -0.36033534184E+02  0.10358316874E+03  0.90676740064E+02 0.  0.
         11    1    3    3    0    0 -0.32227788739E+02 -0.43601008771E+01 -0.14993699791E+02  0.35811337312E+02  0.00000000000E+00 0. -1.
        -11    1    3    3    0    0  0.58352258576E+02  0.27301289773E+02 -0.21039834393E+02  0.67771831430E+02  0.00000000000E+00 0.  1.
         22    1    1    2    0    0 -0.26124469837E+02 -0.22941188896E+02  0.29353739913E+02  0.45501957311E+02  0.00000000000E+00 0. -1.
<mgrwt>
<rscale>  0 0.75119696E+02</rscale>
<asrwt>0</asrwt>
<pdfrwt beam="1">  1        2 0.11981917E-01 0.97113631E+02</pdfrwt>
<pdfrwt beam="2">  1       -2 0.10954256E-01 0.97113631E+02</pdfrwt>
<totfact> 0.25996333E+04</totfact>
</mgrwt>
</event>
<event>
 6    1  0.2995420E-002  0.9145432E+02  0.7546771E-02  0.1417291E+00
          2   -1    0    0  501    0  0.00000000000E+00  0.00000000000E+00  0.11486720432E+03  0.11486720432E+03  0.00000000000E+00 0. -1.
         -2   -1    0    0    0  501 -0.00000000000E+00 -0.00000000000E+00 -0.24478999017E+02  0.24478999017E+02  0.00000000000E+00 0.  1.
         23    2    1    2    0    0  0.56167495444E+01  0.11158088898E+02  0.87400330794E+02  0.12650181868E+03  0.90597138377E+02 0.  0.
         11    1    3    3    0    0  0.13803205002E+02  0.42474358856E+01  0.10495083665E+03  0.10593982865E+03  0.00000000000E+00 0. -1.
        -11    1    3    3    0    0 -0.81864554580E+01  0.69106530121E+01 -0.17550505858E+02  0.20561990028E+02  0.00000000000E+00 0.  1.
         22    1    1    2    0    0 -0.56167495444E+01 -0.11158088898E+02  0.29878745114E+01  0.12844384664E+02  0.00000000000E+00 0. -1.
<mgrwt>
<rscale>  0 0.55598288E+02</rscale>
<asrwt>0</asrwt>
<pdfrwt beam="1">  1        2 0.17671877E-01 0.91454318E+02</pdfrwt>
<pdfrwt beam="2">  1       -2 0.37659999E-02 0.91454318E+02</pdfrwt>
<totfact> 0.82451061E+04</totfact>
</mgrwt>
</event>
<event>
 6    1  0.2995420E-002  0.1018650E+03  0.7546771E-02  0.1332511E+00
          2   -1    0    0  501    0  0.00000000000E+00  0.00000000000E+00  0.32770864330E+03  0.32770864330E+03  0.00000000000E+00 0. -1.
         -2   -1    0    0    0  501 -0.00000000000E+00 -0.00000000000E+00 -0.16904077456E+02  0.16904077456E+02  0.00000000000E+00 0.  1.
         23    2    1    2    0    0  0.19476995737E+02  0.30828085570E+02  0.27602241840E+03  0.29421905049E+03  0.95114404719E+02 0.  0.
         13    1    3    3    0    0  0.27380067530E+02  0.56172024333E+02  0.24744396632E+03  0.25521261898E+03  0.00000000000E+00 0. -1.
        -13    1    3    3    0    0 -0.79030717932E+01 -0.25343938763E+02  0.28578452081E+02  0.39006431510E+02  0.00000000000E+00 0.  1.
         22    1    1    2    0    0 -0.19476995737E+02 -0.30828085570E+02  0.34782147445E+02  0.50393670274E+02  0.00000000000E+00 0.  1.
<mgrwt>
<rscale>  0 0.78793225E+02</rscale>
<asrwt>0</asrwt>
<pdfrwt beam="1">  1        2 0.50416710E-01 0.10186498E+03</pdfrwt>
<pdfrwt beam="2">  1       -2 0.26006275E-02 0.10186498E+03</pdfrwt>
<totfact> 0.46353181E+04</totfact>
</mgrwt>
</event>
<event>
 6    1  0.2995420E-002  0.9503922E+02  0.7546771E-02  0.1377145E+00
          2   -1    0    0  501    0  0.00000000000E+00  0.00000000000E+00  0.58286449181E+02  0.58286449181E+02  0.00000000000E+00 0.  1.
         -2   -1    0    0    0  501 -0.00000000000E+00 -0.00000000000E+00 -0.88844439428E+02  0.88844439428E+02  0.00000000000E+00 0. -1.
         23    2    1    2    0    0  0.16945635659E+02  0.12534347212E+02  0.15671946360E+02  0.96322705541E+02  0.92672483900E+02 0.  0.
         13    1    3    3    0    0 -0.16884511038E+02  0.26951888430E+02 -0.25757817721E+02  0.40926228469E+02  0.00000000000E+00 0. -1.
        -13    1    3    3    0    0  0.33830146696E+02 -0.14417541218E+02  0.41429764081E+02  0.55396477072E+02  0.00000000000E+00 0.  1.
         22    1    1    2    0    0 -0.16945635659E+02 -0.12534347212E+02 -0.46229936607E+02  0.50808183067E+02  0.00000000000E+00 0. -1.
<mgrwt>
<rscale>  0 0.65220233E+02</rscale>
<asrwt>0</asrwt>
<pdfrwt beam="1">  1        2 0.89671461E-02 0.95039222E+02</pdfrwt>
<pdfrwt beam="2">  1       -2 0.13668375E-01 0.95039222E+02</pdfrwt>
<totfact> 0.25912531E+04</totfact>
</mgrwt>
</event>
<event>
 6    1  0.2995420E-002  0.9919761E+02  0.7546771E-02  0.1335152E+00
          2   -1    0    0  501    0  0.00000000000E+00  0.00000000000E+00  0.10721868973E+04  0.10721868973E+04  0.00000000000E+00 0. -1.
         -2   -1    0    0    0  501 -0.00000000000E+00 -0.00000000000E+00 -0.45260400296E+01  0.45260400296E+01  0.00000000000E+00 0.  1.
         23    2    1    2    0    0  0.26806886855E+02  0.26514610331E+02  0.85502357170E+03  0.86075866217E+03  0.91752561816E+02 0.  0.
         11    1    3    3    0    0 -0.43429324183E+01 -0.32113312116E+01  0.81125094209E+00  0.54618530035E+01  0.00000000000E+00 0.  1.
        -11    1    3    3    0    0  0.31149819274E+02  0.29725941542E+02  0.85421232076E+03  0.85529680917E+03  0.00000000000E+00 0. -1.
         22    1    1    2    0    0 -0.26806886855E+02 -0.26514610331E+02  0.21263728561E+03  0.21595427520E+03  0.00000000000E+00 0. -1.
<mgrwt>
<rscale>  0 0.77888687E+02</rscale>
<asrwt>0</asrwt>
<pdfrwt beam="1">  1        2 0.16495163E+00 0.99197613E+02</pdfrwt>
<pdfrwt beam="2">  1       -2 0.69631470E-03 0.99197613E+02</pdfrwt>
<totfact> 0.77143031E+04</totfact>
</mgrwt>
</event>
<event>
 6    1  0.2995420E-002  0.8134995E+02  0.7546771E-02  0.1435272E+00
         -2   -1    0    0    0  501 -0.00000000000E+00  0.00000000000E+00  0.72289119652E+01  0.72289119652E+01  0.00000000000E+00 0. -1.
          2   -1    0    0  501    0  0.00000000000E+00 -0.00000000000E+00 -0.33875054573E+03  0.33875054573E+03  0.00000000000E+00 0.  1.
         23    2    1    2    0    0  0.12659261695E+02 -0.46720470325E+01 -0.31065572538E+03  0.32113049267E+03  0.80222993467E+02 0.  0.
         13    1    3    3    0    0  0.14628106450E+02  0.17107465592E+02 -0.21428649641E+02  0.31077868375E+02  0.00000000000E+00 0. -1.
        -13    1    3    3    0    0 -0.19688447548E+01 -0.21779512624E+02 -0.28922707574E+03  0.29005262429E+03  0.00000000000E+00 0.  1.
         22    1    1    2    0    0 -0.12659261695E+02  0.46720470325E+01 -0.20865908390E+02  0.24848965031E+02  0.00000000000E+00 0. -1.
<mgrwt>
<rscale>  0 0.51916117E+02</rscale>
<asrwt>0</asrwt>
<pdfrwt beam="1">  1        2 0.52115473E-01 0.81349945E+02</pdfrwt>
<pdfrwt beam="2">  1       -2 0.11121402E-02 0.81349945E+02</pdfrwt>
<totfact> 0.14622617E+05</totfact>
</mgrwt>
</event>
<event>
 6    1  0.2995420E-002  0.9447798E+02  0.7546771E-02  0.1384364E+00
         -4   -1    0    0    0  501 -0.00000000000E+00  0.00000000000E+00  0.27406593379E+02  0.27406593379E+02  0.00000000000E+00 0.  1.
          4   -1    0    0  501    0  0.00000000000E+00 -0.00000000000E+00 -0.11762696860E+03  0.11762696860E+03  0.00000000000E+00 0. -1.
         23    2    1    2    0    0  0.22590812812E+00  0.19073415870E+02 -0.75488984813E+02  0.12093252278E+03  0.92532383571E+02 0.  0.
         11    1    3    3    0    0 -0.10167071209E+02 -0.36341464618E+02 -0.35494628459E+02  0.51806756673E+02  0.00000000000E+00 0. -1.
        -11    1    3    3    0    0  0.10392979337E+02  0.55414880489E+02 -0.39994356354E+02  0.69125766102E+02  0.00000000000E+00 0.  1.
         22    1    1    2    0    0 -0.22590812812E+00 -0.19073415870E+02 -0.14731390413E+02  0.24101039209E+02  0.00000000000E+00 0. -1.
<mgrwt>
<rscale>  0 0.63330465E+02</rscale>
<asrwt>0</asrwt>
<pdfrwt beam="1">  1        4 0.18096457E-01 0.94477978E+02</pdfrwt>
<pdfrwt beam="2">  1       -4 0.42163990E-02 0.94477978E+02</pdfrwt>
<totfact> 0.12439194E+04</totfact>
</mgrwt>
</event>
<event>
 6    1  0.2995420E-002  0.9151177E+02  0.7546771E-02  0.1357703E+00
          1   -1    0    0  501    0  0.00000000000E+00  0.00000000000E+00  0.12070711176E+03  0.12070711176E+03  0.00000000000E+00 0. -1.
         -1   -1    0    0    0  501 -0.00000000000E+00 -0.00000000000E+00 -0.54290549271E+02  0.54290549271E+02  0.00000000000E+00 0.  1.
         23    2    1    2    0    0  0.29216969698E+02  0.14498618973E+02  0.94798232297E+02  0.13176155978E+03  0.85501827580E+02 0.  0.
         13    1    3    3    0    0  0.31812089586E+02 -0.31889545764E+02  0.47490417364E+02  0.65454502628E+02  0.00000000000E+00 0. -1.
        -13    1    3    3    0    0 -0.25951198880E+01  0.46388164737E+02  0.47307814933E+02  0.66307057156E+02  0.00000000000E+00 0.  1.
         22    1    1    2    0    0 -0.29216969698E+02 -0.14498618973E+02 -0.28381669804E+02  0.43236101250E+02  0.00000000000E+00 0.  1.
<mgrwt>
<rscale>  0 0.70707799E+02</rscale>
<asrwt>0</asrwt>
<pdfrwt beam="1">  1        1 0.18570325E-01 0.91511769E+02</pdfrwt>
<pdfrwt beam="2">  1       -1 0.83523922E-02 0.91511769E+02</pdfrwt>
<totfact> 0.20127207E+04</totfact>
</mgrwt>
</event>
<event>
 6    1  0.2995420E-002  0.9034150E+02  0.7546771E-02  0.1430283E+00
          2   -1    0    0  501    0  0.00000000000E+00  0.00000000000E+00  0.98837354643E+02  0.98837354643E+02  0.00000000000E+00 0. -1.
         -2   -1    0    0    0  501 -0.00000000000E+00 -0.00000000000E+00 -0.28223428131E+02  0.28223428131E+02  0.00000000000E+00 0.  1.
         23    2    1    2    0    0 -0.92091708016E+01 -0.52962986532E+01  0.73027793298E+02  0.11616645585E+03  0.89714699266E+02 0.  0.
         11    1    3    3    0    0 -0.14112384129E+02  0.84717797540E+01 -0.17757201467E+02  0.24212571981E+02  0.00000000000E+00 0.  1.
        -11    1    3    3    0    0  0.49032133277E+01 -0.13768078407E+02  0.90784994765E+02  0.91953883868E+02  0.00000000000E+00 0. -1.
         22    1    1    2    0    0  0.92091708016E+01  0.52962986532E+01 -0.24138667861E+01  0.10894326925E+02  0.00000000000E+00 0.  1.
<mgrwt>
<rscale>  0 0.52903304E+02</rscale>
<asrwt>0</asrwt>
<pdfrwt beam="1">  1        2 0.15205747E-01 0.90341501E+02</pdfrwt>
<pdfrwt beam="2">  1       -2 0.43420659E-02 0.90341501E+02</pdfrwt>
<totfact> 0.79277984E+04</totfact>
</mgrwt>
</event>
<event>
 6    1  0.2995420E-002  0.9001733E+02  0.7546771E-02  0.1412830E+00
          2   -1    0    0  501    0  0.00000000000E+00  0.00000000000E+00  0.16452085781E+02  0.16452085781E+02  0.00000000000E+00 0.  1.
         -2   -1    0    0    0  501 -0.00000000000E+00 -0.00000000000E+00 -0.16512318837E+03  0.16512318837E+03  0.00000000000E+00 0. -1.
         23    2    1    2    0    0  0.39247470923E+01 -0.13477334586E+02 -0.12468895481E+03  0.15378704644E+03  0.88916129095E+02 0.  0.
         13    1    3    3    0    0 -0.20527253166E+02 -0.99397137136E+01  0.36449285302E+01  0.23096569772E+02  0.00000000000E+00 0.  1.
        -13    1    3    3    0    0  0.24452000258E+02 -0.35376208726E+01 -0.12833388334E+03  0.13069047666E+03  0.00000000000E+00 0. -1.
         22    1    1    2    0    0 -0.39247470923E+01  0.13477334586E+02 -0.23982147779E+02  0.27788227712E+02  0.00000000000E+00 0. -1.
<mgrwt>
<rscale>  0 0.56567177E+02</rscale>
<asrwt>0</asrwt>
<pdfrwt beam="1">  1        2 0.25310903E-02 0.90017333E+02</pdfrwt>
<pdfrwt beam="2">  1       -2 0.25403566E-01 0.90017333E+02</pdfrwt>
<totfact> 0.46927406E+04</totfact>
</mgrwt>
</event>
<event>
 6    1  0.2995420E-002  0.9255554E+02  0.7546771E-02  0.1428669E+00
         -2   -1    0    0    0  501 -0.00000000000E+00  0.00000000000E+00  0.37220649516E+02  0.37220649516E+02  0.00000000000E+00 0.  1.
          2   -1    0    0  501    0  0.00000000000E+00 -0.00000000000E+00 -0.74428135656E+02  0.74428135656E+02  0.00000000000E+00 0. -1.
         23    2    1    2    0    0 -0.83748066994E+01 -0.56886920374E+01 -0.40463433321E+02  0.10101394637E+03  0.92000159349E+02 0.  0.
         13    1    3    3    0    0 -0.16661270059E+02 -0.19678853230E+01  0.27625996040E+02  0.32321295609E+02  0.00000000000E+00 0.  1.
        -13    1    3    3    0    0  0.82864633594E+01 -0.37208067144E+01 -0.68089429361E+02  0.68692650759E+02  0.00000000000E+00 0. -1.
         22    1    1    2    0    0  0.83748066994E+01  0.56886920374E+01  0.32559471804E+01  0.10634838804E+02  0.00000000000E+00 0.  1.
<mgrwt>
<rscale>  0 0.53228173E+02</rscale>
<asrwt>0</asrwt>
<pdfrwt beam="1">  1        2 0.11450482E-01 0.92555540E+02</pdfrwt>
<pdfrwt beam="2">  1       -2 0.57262538E-02 0.92555540E+02</pdfrwt>
<totfact> 0.73591884E+04</totfact>
</mgrwt>
</event>
<event>
 6    1  0.2995420E-002  0.1008157E+03  0.7546771E-02  0.1409024E+00
         -2   -1    0    0    0  501 -0.00000000000E+00  0.00000000000E+00  0.34404869939E+01  0.34404869939E+01  0.00000000000E+00 0.  1.
          2   -1    0    0  501    0  0.00000000000E+00 -0.00000000000E+00 -0.10991663229E+04  0.10991663229E+04  0.00000000000E+00 0. -1.
         23    2    1    2    0    0 -0.10318940417E+02 -0.24379443758E+01 -0.10705873099E+04  0.10753236724E+04  0.10025661126E+03 0.  0.
         11    1    3    3    0    0 -0.18546171629E+02  0.46814673670E+02 -0.59237095121E+03  0.59450729011E+03  0.00000000000E+00 0.  1.
        -11    1    3    3    0    0  0.82272312126E+01 -0.49252618046E+02 -0.47821635873E+03  0.48081638229E+03  0.00000000000E+00 0. -1.
         22    1    1    2    0    0  0.10318940417E+02  0.24379443758E+01 -0.25138525959E+02  0.27283137493E+02  0.00000000000E+00 0.  1.
<mgrwt>
<rscale>  0 0.57412131E+02</rscale>
<asrwt>0</asrwt>
<pdfrwt beam="1">  1        2 0.16910270E+00 0.10081573E+03</pdfrwt>
<pdfrwt beam="2">  1       -2 0.52930509E-03 0.10081573E+03</pdfrwt>
<totfact> 0.10979642E+05</totfact>
</mgrwt>
</event>
<event>
 6    1  0.2995420E-002  0.9304218E+02  0.7546771E-02  0.1406425E+00
         -1   -1    0    0    0  501 -0.00000000000E+00  0.00000000000E+00  0.23329214084E+02  0.23329214084E+02  0.00000000000E+00 0.  1.
          1   -1    0    0  501    0  0.00000000000E+00 -0.00000000000E+00 -0.33844138496E+03  0.33844138496E+03  0.00000000000E+00 0. -1.
         23    2    1    2    0    0  0.97420169340E+01  0.10122952713E+02 -0.32906752596E+03  0.34196825067E+03  0.91975359509E+02 0.  0.
         11    1    3    3    0    0 -0.24667320436E+02 -0.23519376109E+02 -0.63430123644E+02  0.72007071427E+02  0.00000000000E+00 0.  1.
        -11    1    3    3    0    0  0.34409337370E+02  0.33642328822E+02 -0.26563740232E+03  0.26996117924E+03  0.00000000000E+00 0. -1.
         22    1    1    2    0    0 -0.97420169340E+01 -0.10122952713E+02  0.13955355086E+02  0.19802348375E+02  0.00000000000E+00 0.  1.
<mgrwt>
<rscale>  0 0.57999347E+02</rscale>
<asrwt>0</asrwt>
<pdfrwt beam="1">  1        1 0.52067906E-01 0.93042183E+02</pdfrwt>
<pdfrwt beam="2">  1       -1 0.35891098E-02 0.93042183E+02</pdfrwt>
<totfact> 0.19575132E+04</totfact>
</mgrwt>
</event>
<event>
 6    1  0.2995420E-002  0.9227126E+02  0.7546771E-02  0.1409995E+00
         -2   -1    0    0    0  501 -0.00000000000E+00  0.00000000000E+00  0.47288788912E+02  0.47288788912E+02  0.00000000000E+00 0.  1.
          2   -1    0    0  501    0  0.00000000000E+00 -0.00000000000E+00 -0.62502634516E+02  0.62502634516E+02  0.00000000000E+00 0. -1.
         23    2    1    2    0    0 -0.12208670232E+02 -0.60413579457E+01 -0.21571348932E+02  0.94759208580E+02  0.91260259046E+02 0.  0.
         11    1    3    3    0    0 -0.35008652508E+01  0.42352369169E+02 -0.46146419497E+01  0.42746627377E+02  0.00000000000E+00 0. -1.
        -11    1    3    3    0    0 -0.87078049811E+01 -0.48393727115E+02 -0.16956706983E+02  0.52012581203E+02  0.00000000000E+00 0.  1.
         22    1    1    2    0    0  0.12208670232E+02  0.60413579457E+01  0.63575033288E+01  0.15032214848E+02  0.00000000000E+00 0. -1.
<mgrwt>
<rscale>  0 0.57194904E+02</rscale>
<asrwt>0</asrwt>
<pdfrwt beam="1">  1        2 0.96157899E-02 0.92271255E+02</pdfrwt>
<pdfrwt beam="2">  1       -2 0.72751983E-02 0.92271255E+02</pdfrwt>
<totfact> 0.63291459E+04</totfact>
</mgrwt>
</event>
<event>
 6    1  0.2995420E-002  0.9207248E+02  0.7546771E-02  0.1420573E+00
          2   -1    0    0  501    0  0.00000000000E+00  0.00000000000E+00  0.43548745406E+03  0.43548745406E+03  0.00000000000E+00 0.  1.
         -2   -1    0    0    0  501 -0.00000000000E+00 -0.00000000000E+00 -0.62192409906E+01  0.62192409906E+01  0.00000000000E+00 0. -1.
         23    2    1    2    0    0  0.10587655815E+02 -0.48326757580E+01  0.36803547565E+03  0.37937771830E+03  0.91333940004E+02 0.  0.
         11    1    3    3    0    0  0.32804619715E+02 -0.27622997966E+02  0.91898346351E+02  0.10141242110E+03  0.00000000000E+00 0. -1.
        -11    1    3    3    0    0 -0.22216963900E+02  0.22790322208E+02  0.27613712930E+03  0.27796529720E+03  0.00000000000E+00 0.  1.
         22    1    1    2    0    0 -0.10587655815E+02  0.48326757580E+01  0.61232737417E+02  0.62328976746E+02  0.00000000000E+00 0.  1.
<mgrwt>
<rscale>  0 0.54899836E+02</rscale>
<asrwt>0</asrwt>
<pdfrwt beam="1">  1        2 0.66998046E-01 0.92072481E+02</pdfrwt>
<pdfrwt beam="2">  1       -2 0.95680665E-03 0.92072481E+02</pdfrwt>
<totfact> 0.14176061E+05</totfact>
</mgrwt>
</event>
<event>
 6    1  0.2995420E-002  0.6755007E+02  0.7546771E-02  0.1472351E+00
          1   -1    0    0  501    0  0.00000000000E+00  0.00000000000E+00  0.69363977770E+01  0.69363977770E+01  0.00000000000E+00 0. -1.
         -1   -1    0    0    0  501 -0.00000000000E+00 -0.00000000000E+00 -0.24503830983E+03  0.24503830983E+03  0.00000000000E+00 0.  1.
         23    2    1    2    0    0  0.31112673764E+01 -0.13328436723E+02 -0.21200513925E+03  0.22250661027E+03  0.66148963207E+02 0.  0.
         11    1    3    3    0    0 -0.26142995170E+02 -0.14927375731E+02 -0.54150272718E+02  0.61955909953E+02  0.00000000000E+00 0. -1.
        -11    1    3    3    0    0  0.29254262546E+02  0.15989390080E+01 -0.15785486653E+03  0.16055070031E+03  0.00000000000E+00 0.  1.
         22    1    1    2    0    0 -0.31112673764E+01  0.13328436723E+02 -0.26096772798E+02  0.29468097337E+02  0.00000000000E+00 0. -1.
<mgrwt>
<rscale>  0 0.45320478E+02</rscale>
<asrwt>0</asrwt>
<pdfrwt beam="1">  1        1 0.10671382E-02 0.67550074E+02</pdfrwt>
<pdfrwt beam="2">  1       -1 0.37698197E-01 0.67550074E+02</pdfrwt>
<totfact> 0.81794469E+04</totfact>
</mgrwt>
</event>
<event>
 6    1  0.2995420E-002  0.9883975E+02  0.7546771E-02  0.1318761E+00
          1   -1    0    0  501    0  0.00000000000E+00  0.00000000000E+00  0.31313940317E+02  0.31313940317E+02  0.00000000000E+00 0. -1.
         -1   -1    0    0    0  501 -0.00000000000E+00 -0.00000000000E+00 -0.18193351152E+03  0.18193351152E+03  0.00000000000E+00 0.  1.
         23    2    1    2    0    0  0.50079950120E+02  0.92439095350E+01 -0.86343103244E+02  0.13124186910E+03  0.84710362169E+02 0.  0.
         11    1    3    3    0    0  0.38520016071E+02  0.28054918279E+02 -0.61309008879E+01  0.48046415303E+02  0.00000000000E+00 0. -1.
        -11    1    3    3    0    0  0.11559934049E+02 -0.18811008744E+02 -0.80212202356E+02  0.83195453794E+02  0.00000000000E+00 0.  1.
         22    1    1    2    0    0 -0.50079950120E+02 -0.92439095350E+01 -0.64276467961E+02  0.82005582743E+02  0.00000000000E+00 0. -1.
<mgrwt>
<rscale>  0 0.83740105E+02</rscale>
<asrwt>0</asrwt>
<pdfrwt beam="1">  1        1 0.48175293E-02 0.98839753E+02</pdfrwt>
<pdfrwt beam="2">  1       -1 0.27989771E-01 0.98839753E+02</pdfrwt>
<totfact> 0.18087520E+04</totfact>
</mgrwt>
</event>
<event>
 6    1  0.2995420E-002  0.9923503E+02  0.7546771E-02  0.1337258E+00
          2   -1    0    0  501    0  0.00000000000E+00  0.00000000000E+00  0.24174076182E+04  0.24174076182E+04  0.00000000000E+00 0.  1.
         -2   -1    0    0    0  501 -0.00000000000E+00 -0.00000000000E+00 -0.26853385188E+02  0.26853385188E+02  0.00000000000E+00 0. -1.
         23    2    1    2    0    0  0.89104600823E+01  0.35194327030E+02  0.24036267606E+04  0.24056743745E+04  0.92355588367E+02 0.  0.
         11    1    3    3    0    0  0.15560483187E+02  0.31201588992E+02  0.23877462061E+04  0.23880007564E+04  0.00000000000E+00 0.  1.
        -11    1    3    3    0    0 -0.66500231045E+01  0.39927380374E+01  0.15880554510E+02  0.17673618076E+02  0.00000000000E+00 0. -1.
         22    1    1    2    0    0 -0.89104600823E+01 -0.35194327030E+02 -0.13072527593E+02  0.38586628923E+02  0.00000000000E+00 0. -1.
<mgrwt>
<rscale>  0 0.77177323E+02</rscale>
<asrwt>0</asrwt>
<pdfrwt beam="1">  1        2 0.37190869E+00 0.99235032E+02</pdfrwt>
<pdfrwt beam="2">  1       -2 0.41312919E-02 0.99235032E+02</pdfrwt>
<totfact> 0.12034046E+03</totfact>
</mgrwt>
</event>
<event>
 6    1  0.2995420E-002  0.9470225E+02  0.7546771E-02  0.1366068E+00
          2   -1    0    0  501    0  0.00000000000E+00  0.00000000000E+00  0.40763246251E+02  0.40763246251E+02  0.00000000000E+00 0. -1.
         -2   -1    0    0    0  501 -0.00000000000E+00 -0.00000000000E+00 -0.11001972914E+03  0.11001972914E+03  0.00000000000E+00 0.  1.
         23    2    1    2    0    0 -0.24746352249E+02  0.64784379517E+01 -0.22271463502E+02  0.97285833834E+02  0.91182033703E+02 0.  0.
         13    1    3    3    0    0  0.33989237473E+02 -0.63578598921E+01 -0.78591842351E+01  0.35460646120E+02  0.00000000000E+00 0.  1.
        -13    1    3    3    0    0 -0.58735589721E+02  0.12836297844E+02 -0.14412279266E+02  0.61825187714E+02  0.00000000000E+00 0. -1.
         22    1    1    2    0    0  0.24746352249E+02 -0.64784379517E+01 -0.46985019384E+02  0.53497141554E+02  0.00000000000E+00 0.  1.
<mgrwt>
<rscale>  0 0.68272632E+02</rscale>
<asrwt>0</asrwt>
<pdfrwt beam="1">  1        2 0.62712689E-02 0.94702246E+02</pdfrwt>
<pdfrwt beam="2">  1       -2 0.16926112E-01 0.94702246E+02</pdfrwt>
<totfact> 0.28620087E+04</totfact>
</mgrwt>
</event>
<event>
 6    1  0.2995420E-002  0.9339035E+02  0.7546771E-02  0.1378096E+00
          2   -1    0    0  501    0  0.00000000000E+00  0.00000000000E+00  0.10357298417E+04  0.10357298417E+04  0.00000000000E+00 0.  1.
         -2   -1    0    0    0  501 -0.00000000000E+00 -0.00000000000E+00 -0.72331356466E+01  0.72331356466E+01  0.00000000000E+00 0. -1.
         23    2    1    2    0    0  0.12411931815E+02  0.18007487762E+02  0.10100311179E+04  0.10143394973E+04  0.90793341602E+02 0.  0.
         11    1    3    3    0    0  0.36837038992E+02  0.73893050717E+01  0.17990422176E+03  0.18378546809E+03  0.00000000000E+00 0. -1.
        -11    1    3    3    0    0 -0.24425107178E+02  0.10618182691E+02  0.83012689615E+03  0.83055402917E+03  0.00000000000E+00 0.  1.
         22    1    1    2    0    0 -0.12411931815E+02 -0.18007487762E+02  0.18465588136E+02  0.28623480083E+02  0.00000000000E+00 0. -1.
<mgrwt>
<rscale>  0 0.64966870E+02</rscale>
<asrwt>0</asrwt>
<pdfrwt beam="1">  1        2 0.15934293E+00 0.93390345E+02</pdfrwt>
<pdfrwt beam="2">  1       -2 0.11127909E-02 0.93390345E+02</pdfrwt>
<totfact> 0.41425025E+04</totfact>
</mgrwt>
</event>
<event>
 6    1  0.2995420E-002  0.9379167E+02  0.7546771E-02  0.1388169E+00
          2   -1    0    0  501    0  0.00000000000E+00  0.00000000000E+00  0.13816048997E+04  0.13816048997E+04  0.00000000000E+00 0. -1.
         -2   -1    0    0    0  501 -0.00000000000E+00 -0.00000000000E+00 -0.25584034165E+01  0.25584034165E+01  0.00000000000E+00 0.  1.
         23    2    1    2    0    0  0.31096624918E+01  0.18068088504E+02  0.12801855570E+04  0.12836167411E+04  0.91982344962E+02 0.  0.
         13    1    3    3    0    0  0.25848066962E+02 -0.15674197531E+01  0.11378718945E+04  0.11381665202E+04  0.00000000000E+00 0. -1.
        -13    1    3    3    0    0 -0.22738404470E+02  0.19635508257E+02  0.14231366246E+03  0.14545022085E+03  0.00000000000E+00 0.  1.
         22    1    1    2    0    0 -0.31096624918E+01 -0.18068088504E+02  0.98860939278E+02  0.10054656204E+03  0.00000000000E+00 0.  1.
<mgrwt>
<rscale>  0 0.62364284E+02</rscale>
<asrwt>0</asrwt>
<pdfrwt beam="1">  1        2 0.21255400E+00 0.93791671E+02</pdfrwt>
<pdfrwt beam="2">  1       -2 0.39360163E-03 0.93791671E+02</pdfrwt>
<totfact> 0.11603785E+05</totfact>
</mgrwt>
</event>
<event>
 6    1  0.2995420E-002  0.9153609E+02  0.7546771E-02  0.1416219E+00
          2   -1    0    0  501    0  0.00000000000E+00  0.00000000000E+00  0.44572453984E+03  0.44572453984E+03  0.00000000000E+00 0. -1.
         -2   -1    0    0    0  501 -0.00000000000E+00 -0.00000000000E+00 -0.64609280285E+01  0.64609280285E+01  0.00000000000E+00 0.  1.
         23    2    1    2    0    0 -0.39501010798E+01 -0.12034838889E+02  0.41306179367E+03  0.42308261716E+03  0.90655473663E+02 0.  0.
         11    1    3    3    0    0  0.76629360105E+01 -0.50509225449E+02  0.24687233062E+03  0.25210285613E+03  0.00000000000E+00 0. -1.
        -11    1    3    3    0    0 -0.11613037090E+02  0.38474386560E+02  0.16618946305E+03  0.17097976103E+03  0.00000000000E+00 0.  1.
         22    1    1    2    0    0  0.39501010798E+01  0.12034838889E+02  0.26201818143E+02  0.29102850713E+02  0.00000000000E+00 0.  1.
<mgrwt>
<rscale>  0 0.55828835E+02</rscale>
<asrwt>0</asrwt>
<pdfrwt beam="1">  1        2 0.68572982E-01 0.91536089E+02</pdfrwt>
<pdfrwt beam="2">  1       -2 0.99398928E-03 0.91536089E+02</pdfrwt>
<totfact> 0.13092056E+05</totfact>
</mgrwt>
</event>
<event>
 6    1  0.2995420E-002  0.8778437E+02  0.7546771E-02  0.1412917E+00
         -2   -1    0    0    0  501 -0.00000000000E+00  0.00000000000E+00  0.32011147759E+01  0.32011147759E+01  0.00000000000E+00 0.  1.
          2   -1    0    0  501    0  0.00000000000E+00 -0.00000000000E+00 -0.87939219739E+03  0.87939219739E+03  0.00000000000E+00 0. -1.
         23    2    1    2    0    0 -0.56661540937E+01  0.14013221396E+02 -0.80757191664E+03  0.81232905657E+03  0.86473232383E+02 0.  0.
         11    1    3    3    0    0 -0.14971617393E+02 -0.17341961519E+02 -0.68751817880E+03  0.68789980312E+03  0.00000000000E+00 0. -1.
        -11    1    3    3    0    0  0.93054632992E+01  0.31355182915E+02 -0.12005373784E+03  0.12442925345E+03  0.00000000000E+00 0.  1.
         22    1    1    2    0    0  0.56661540937E+01 -0.14013221396E+02 -0.68619165974E+02  0.70264255600E+02  0.00000000000E+00 0.  1.
<mgrwt>
<rscale>  0 0.56548084E+02</rscale>
<asrwt>0</asrwt>
<pdfrwt beam="1">  1        2 0.13529103E+00 0.87784370E+02</pdfrwt>
<pdfrwt beam="2">  1       -2 0.49247948E-03 0.87784370E+02</pdfrwt>
<totfact> 0.16086005E+05</totfact>
</mgrwt>
</event>
<event>
 6    1  0.2995420E-002  0.9251709E+02  0.7546771E-02  0.1390499E+00
          4   -1    0    0  501    0  0.00000000000E+00  0.00000000000E+00  0.88920216590E+02  0.88920216590E+02  0.00000000000E+00 0. -1.
         -4   -1    0    0    0  501 -0.00000000000E+00 -0.00000000000E+00 -0.61468177533E+02  0.61468177533E+02  0.00000000000E+00 0.  1.
         23    2    1    2    0    0 -0.14308349334E+02 -0.11567696472E+02  0.61913620899E+02  0.11132253837E+03  0.90669016951E+02 0.  0.
         11    1    3    3    0    0 -0.27825534804E+02  0.32823825368E+02  0.15627677185E+02  0.45780871476E+02  0.00000000000E+00 0.  1.
        -11    1    3    3    0    0  0.13517185470E+02 -0.44391521840E+02  0.46285943715E+02  0.65541666898E+02  0.00000000000E+00 0. -1.
         22    1    1    2    0    0  0.14308349334E+02  0.11567696472E+02 -0.34461581842E+02  0.39065855749E+02  0.00000000000E+00 0.  1.
<mgrwt>
<rscale>  0 0.61782827E+02</rscale>
<asrwt>0</asrwt>
<pdfrwt beam="1">  1        4 0.13680033E-01 0.92517085E+02</pdfrwt>
<pdfrwt beam="2">  1       -4 0.94566427E-02 0.92517085E+02</pdfrwt>
<totfact> 0.54421655E+03</totfact>
</mgrwt>
</event>
<event>
 6    1  0.2995420E-002  0.9404756E+02  0.7546771E-02  0.1391545E+00
         -2   -1    0    0    0  501 -0.00000000000E+00  0.00000000000E+00  0.55293480351E+02  0.55293480351E+02  0.00000000000E+00 0.  1.
          2   -1    0    0  501    0  0.00000000000E+00 -0.00000000000E+00 -0.58301027986E+02  0.58301027986E+02  0.00000000000E+00 0. -1.
         23    2    1    2    0    0  0.40588081342E+01 -0.16739045900E+02  0.58442658974E+01  0.94228967190E+02  0.92456872285E+02 0.  0.
         13    1    3    3    0    0 -0.26906891952E+02 -0.44773280699E+02  0.18720000207E+01  0.52269798958E+02  0.00000000000E+00 0. -1.
        -13    1    3    3    0    0  0.30965700086E+02  0.28034234799E+02  0.39722658766E+01  0.41959168232E+02  0.00000000000E+00 0.  1.
         22    1    1    2    0    0 -0.40588081342E+01  0.16739045900E+02 -0.88518135326E+01  0.19365541147E+02  0.00000000000E+00 0. -1.
<mgrwt>
<rscale>  0 0.61524028E+02</rscale>
<asrwt>0</asrwt>
<pdfrwt beam="1">  1        2 0.89693888E-02 0.94047556E+02</pdfrwt>
<pdfrwt beam="2">  1       -2 0.85066894E-02 0.94047556E+02</pdfrwt>
<totfact> 0.54413949E+04</totfact>
</mgrwt>
</event>
<event>
 6    1  0.2995420E-002  0.9333445E+02  0.7546771E-02  0.1422263E+00
         -4   -1    0    0    0  501 -0.00000000000E+00  0.00000000000E+00  0.69361981365E+02  0.69361981365E+02  0.00000000000E+00 0.  1.
          4   -1    0    0  501    0  0.00000000000E+00 -0.00000000000E+00 -0.44329655939E+02  0.44329655939E+02  0.00000000000E+00 0. -1.
         23    2    1    2    0    0  0.97806258453E+01  0.47809172178E+01  0.82644248069E+01  0.93699631338E+02  0.92697369888E+02 0.  0.
         13    1    3    3    0    0 -0.46130831822E+01  0.14688899094E+02  0.47937219871E+02  0.50348995442E+02  0.00000000000E+00 0.  1.
        -13    1    3    3    0    0  0.14393709027E+02 -0.99079818763E+01 -0.39672795064E+02  0.43350635896E+02  0.00000000000E+00 0. -1.
         22    1    1    2    0    0 -0.97806258453E+01 -0.47809172178E+01  0.16767900619E+02  0.19992005966E+02  0.00000000000E+00 0. -1.
<mgrwt>
<rscale>  0 0.54544937E+02</rscale>
<asrwt>0</asrwt>
<pdfrwt beam="1">  1        4 0.68199471E-02 0.93334453E+02</pdfrwt>
<pdfrwt beam="2">  1       -4 0.10671074E-01 0.93334453E+02</pdfrwt>
<totfact> 0.14234161E+04</totfact>
</mgrwt>
</event>
<event>
 6    1  0.2995420E-002  0.1168260E+03  0.7546771E-02  0.1271728E+00
          2   -1    0    0  501    0  0.00000000000E+00  0.00000000000E+00  0.28154909935E+02  0.28154909935E+02  0.00000000000E+00 0. -1.
         -2   -1    0    0    0  501 -0.00000000000E+00 -0.00000000000E+00 -0.32304492256E+03  0.32304492256E+03  0.00000000000E+00 0.  1.
         23    2    1    2    0    0 -0.58164874973E+02 -0.45588395703E+02 -0.17879242725E+03  0.21357678271E+03  0.90481244279E+02 0.  0.
         13    1    3    3    0    0 -0.10349755118E+02 -0.54448932270E+02 -0.45557224444E+02  0.71744437801E+02  0.00000000000E+00 0. -1.
        -13    1    3    3    0    0 -0.47815119855E+02  0.88605365662E+01 -0.13323520281E+03  0.14183234491E+03  0.00000000000E+00 0.  1.
         22    1    1    2    0    0  0.58164874973E+02  0.45588395703E+02 -0.11609758538E+03  0.13762304979E+03  0.00000000000E+00 0.  1.
<mgrwt>
<rscale>  0 0.10418810E+03</rscale>
<asrwt>0</asrwt>
<pdfrwt beam="1">  1        2 0.43315247E-02 0.11682598E+03</pdfrwt>
<pdfrwt beam="2">  1       -2 0.49699218E-01 0.11682598E+03</pdfrwt>
<totfact> 0.68872212E+03</totfact>
</mgrwt>
</event>
<event>
 6    1  0.2995420E-002  0.9320659E+02  0.7546771E-02  0.1376696E+00
         -2   -1    0    0    0  501 -0.00000000000E+00  0.00000000000E+00  0.35021028891E+02  0.35021028891E+02  0.00000000000E+00 0.  1.
          2   -1    0    0  501    0  0.00000000000E+00 -0.00000000000E+00 -0.29082088092E+03  0.29082088092E+03  0.00000000000E+00 0. -1.
         23    2    1    2    0    0  0.15095188056E+02  0.16699022231E+02 -0.27861442324E+03  0.29379153219E+03  0.90447473729E+02 0.  0.
         13    1    3    3    0    0 -0.36590364631E+02  0.15055316194E+02 -0.92058623864E+02  0.10020133511E+03  0.00000000000E+00 0.  1.
        -13    1    3    3    0    0  0.51685552687E+02  0.16437060362E+01 -0.18655579938E+03  0.19359019708E+03  0.00000000000E+00 0. -1.
         22    1    1    2    0    0 -0.15095188056E+02 -0.16699022231E+02  0.22814571212E+02  0.32050377619E+02  0.00000000000E+00 0.  1.
<mgrwt>
<rscale>  0 0.65340307E+02</rscale>
<asrwt>0</asrwt>
<pdfrwt beam="1">  1        2 0.44741675E-01 0.93206585E+02</pdfrwt>
<pdfrwt beam="2">  1       -2 0.53878505E-02 0.93206585E+02</pdfrwt>
<totfact> 0.17826363E+04</totfact>
</mgrwt>
</event>
<event>
 6    1  0.2995420E-002  0.1048041E+03  0.7546771E-02  0.1309027E+00
          2   -1    0    0  501    0  0.00000000000E+00  0.00000000000E+00  0.35265213105E+03  0.35265213105E+03  0.00000000000E+00 0. -1.
         -2   -1    0    0    0  501 -0.00000000000E+00 -0.00000000000E+00 -0.11072424867E+03  0.11072424867E+03  0.00000000000E+00 0.  1.
         23    2    1    2    0    0  0.46663613925E+02 -0.20369992990E+02  0.33841895263E+03  0.35427571008E+03  0.91604922235E+02 0.  0.
         11    1    3    3    0    0 -0.20935250592E+02 -0.27177487819E+02  0.15306507611E+03  0.15686241770E+03  0.00000000000E+00 0.  1.
        -11    1    3    3    0    0  0.67598864517E+02  0.68074948295E+01  0.18535387652E+03  0.19741329239E+03  0.00000000000E+00 0. -1.
         22    1    1    2    0    0 -0.46663613925E+02  0.20369992990E+02 -0.96491070243E+02  0.10910066964E+03  0.00000000000E+00 0.  1.
<mgrwt>
<rscale>  0 0.87497764E+02</rscale>
<asrwt>0</asrwt>
<pdfrwt beam="1">  1        2 0.54254173E-01 0.10480406E+03</pdfrwt>
<pdfrwt beam="2">  1       -2 0.17034500E-01 0.10480406E+03</pdfrwt>
<totfact> 0.24420413E+03</totfact>
</mgrwt>
</event>
<event>
 6    1  0.2995420E-002  0.9327656E+02  0.7546771E-02  0.1408994E+00
         -2   -1    0    0    0  501 -0.00000000000E+00  0.00000000000E+00  0.56722361086E+02  0.56722361086E+02  0.00000000000E+00 0.  1.
          2   -1    0    0  501    0  0.00000000000E+00 -0.00000000000E+00 -0.55784363070E+02  0.55784363070E+02  0.00000000000E+00 0. -1.
         23    2    1    2    0    0 -0.12779052597E+02  0.40111068224E+01 -0.11803646017E+02  0.94020441244E+02  0.92309935268E+02 0.  0.
         11    1    3    3    0    0  0.84699674015E+01 -0.33509041634E+02  0.20461753176E+02  0.40165651520E+02  0.00000000000E+00 0. -1.
        -11    1    3    3    0    0 -0.21249019999E+02  0.37520148457E+02 -0.32265399193E+02  0.53854789724E+02  0.00000000000E+00 0.  1.
         22    1    1    2    0    0  0.12779052597E+02 -0.40111068224E+01  0.12741644033E+02  0.18486282911E+02  0.00000000000E+00 0.  1.
<mgrwt>
<rscale>  0 0.57418936E+02</rscale>
<asrwt>0</asrwt>
<pdfrwt beam="1">  1        2 0.85822097E-02 0.93276564E+02</pdfrwt>
<pdfrwt beam="2">  1       -2 0.87265171E-02 0.93276564E+02</pdfrwt>
<totfact> 0.55174767E+04</totfact>
</mgrwt>
</event>
<event>
 6    1  0.2995420E-002  0.9336094E+02  0.7546771E-02  0.1398996E+00
         -1   -1    0    0    0  501 -0.00000000000E+00  0.00000000000E+00  0.35049353255E+01  0.35049353255E+01  0.00000000000E+00 0.  1.
          1   -1    0    0  501    0  0.00000000000E+00 -0.00000000000E+00 -0.95564784421E+03  0.95564784421E+03  0.00000000000E+00 0. -1.
         23    2    1    2    0    0 -0.48885793794E+01 -0.14850552038E+02 -0.89671679129E+03  0.90156379087E+03  0.92042534289E+02 0.  0.
         13    1    3    3    0    0  0.22154943966E+02  0.31536690747E+02 -0.44531117249E+03  0.44697588833E+03  0.00000000000E+00 0. -1.
        -13    1    3    3    0    0 -0.27043523345E+02 -0.46387242785E+02 -0.45140561880E+03  0.45458790254E+03  0.00000000000E+00 0.  1.
         22    1    1    2    0    0  0.48885793794E+01  0.14850552038E+02 -0.55426117597E+02  0.57588988670E+02  0.00000000000E+00 0. -1.
<mgrwt>
<rscale>  0 0.59723439E+02</rscale>
<asrwt>0</asrwt>
<pdfrwt beam="1">  1        1 0.14702258E+00 0.93360941E+02</pdfrwt>
<pdfrwt beam="2">  1       -1 0.53922144E-03 0.93360941E+02</pdfrwt>
<totfact> 0.70831585E+04</totfact>
</mgrwt>
</event>
<event>
 6    1  0.2995420E-002  0.9678845E+02  0.7546771E-02  0.1367662E+00
         -2   -1    0    0    0  501 -0.00000000000E+00  0.00000000000E+00  0.86656395464E+01  0.86656395464E+01  0.00000000000E+00 0.  1.
          2   -1    0    0  501    0  0.00000000000E+00 -0.00000000000E+00 -0.42510085144E+03  0.42510085144E+03  0.00000000000E+00 0. -1.
         23    2    1    2    0    0 -0.13964895357E+02  0.18694281033E+02 -0.30803451791E+03  0.32288274600E+03  0.93933534991E+02 0.  0.
         13    1    3    3    0    0 -0.17601502197E+02 -0.25758057470E+02 -0.23673962041E+03  0.23878638629E+03  0.00000000000E+00 0. -1.
        -13    1    3    3    0    0  0.36366068396E+01  0.44452338503E+02 -0.71294897500E+02  0.84096359714E+02  0.00000000000E+00 0.  1.
         22    1    1    2    0    0  0.13964895357E+02 -0.18694281033E+02 -0.10840069399E+03  0.11088374499E+03  0.00000000000E+00 0.  1.
<mgrwt>
<rscale>  0 0.67821411E+02</rscale>
<asrwt>0</asrwt>
<pdfrwt beam="1">  1        2 0.65400138E-01 0.96788447E+02</pdfrwt>
<pdfrwt beam="2">  1       -2 0.13331752E-02 0.96788447E+02</pdfrwt>
<totfact> 0.91473640E+04</totfact>
</mgrwt>
</event>
<event>
 6    1  0.2995420E-002  0.9453441E+02  0.7546771E-02  0.1365240E+00
          1   -1    0    0  501    0  0.00000000000E+00  0.00000000000E+00  0.83823977668E+02  0.83823977668E+02  0.00000000000E+00 0. -1.
         -1   -1    0    0    0  501 -0.00000000000E+00 -0.00000000000E+00 -0.55435183559E+02  0.55435183559E+02  0.00000000000E+00 0.  1.
         23    2    1    2    0    0  0.22644244708E+02  0.12926098731E+02  0.48575476094E+02  0.10628420139E+03  0.90867534027E+02 0.  0.
         13    1    3    3    0    0 -0.23147802127E+02  0.36061681759E+02  0.26853807215E+02  0.50570669331E+02  0.00000000000E+00 0.  1.
        -13    1    3    3    0    0  0.45792046836E+02 -0.23135583027E+02  0.21721668879E+02  0.55713532057E+02  0.00000000000E+00 0. -1.
         22    1    1    2    0    0 -0.22644244708E+02 -0.12926098731E+02 -0.20186681986E+02  0.32974959839E+02  0.00000000000E+00 0. -1.
<mgrwt>
<rscale>  0 0.68508387E+02</rscale>
<asrwt>0</asrwt>
<pdfrwt beam="1">  1        1 0.12895996E-01 0.94534410E+02</pdfrwt>
<pdfrwt beam="2">  1       -1 0.85284898E-02 0.94534410E+02</pdfrwt>
<totfact> 0.31196441E+04</totfact>
</mgrwt>
</event>
<event>
 6    1  0.2995420E-002  0.9316643E+02  0.7546771E-02  0.1401354E+00
          2   -1    0    0  501    0  0.00000000000E+00  0.00000000000E+00  0.44035634827E+02  0.44035634827E+02  0.00000000000E+00 0. -1.
         -2   -1    0    0    0  501 -0.00000000000E+00 -0.00000000000E+00 -0.67112073274E+02  0.67112073274E+02  0.00000000000E+00 0.  1.
         23    2    1    2    0    0  0.13544302686E+02  0.68013108377E+01 -0.16455118075E+02  0.94608426138E+02  0.91925390514E+02 0.  0.
         11    1    3    3    0    0  0.18473390853E+02  0.27686278886E+02 -0.46808697337E+02  0.57435619215E+02  0.00000000000E+00 0.  1.
        -11    1    3    3    0    0 -0.49290881667E+01 -0.20884968048E+02  0.30353579262E+02  0.37172806923E+02  0.00000000000E+00 0. -1.
         22    1    1    2    0    0 -0.13544302686E+02 -0.68013108377E+01 -0.66213203723E+01  0.16539281963E+02  0.00000000000E+00 0.  1.
<mgrwt>
<rscale>  0 0.59168576E+02</rscale>
<asrwt>0</asrwt>
<pdfrwt beam="1">  1        2 0.67747131E-02 0.93166428E+02</pdfrwt>
<pdfrwt beam="2">  1       -2 0.10324934E-01 0.93166428E+02</pdfrwt>
<totfact> 0.57081792E+04</totfact>
</mgrwt>
</event>
<event>
 6    1  0.2995420E-002  0.9211613E+02  0.7546771E-02  0.1394447E+00
          1   -1    0    0  501    0  0.00000000000E+00  0.00000000000E+00  0.25298607703E+03  0.25298607703E+03  0.00000000000E+00 0. -1.
         -1   -1    0    0    0  501 -0.00000000000E+00 -0.00000000000E+00 -0.11917796254E+02  0.11917796254E+02  0.00000000000E+00 0.  1.
         23    2    1    2    0    0  0.88727640451E+01  0.15082542416E+02  0.19636321796E+03  0.21689604404E+03  0.90438772240E+02 0.  0.
         13    1    3    3    0    0 -0.30448621891E+02  0.22142964767E+01  0.15647638514E+03  0.15942672546E+03  0.00000000000E+00 0. -1.
        -13    1    3    3    0    0  0.39321385936E+02  0.12868245940E+02  0.39886832819E+02  0.57469318579E+02  0.00000000000E+00 0.  1.
         22    1    1    2    0    0 -0.88727640451E+01 -0.15082542416E+02  0.44705062809E+02  0.48007829239E+02  0.00000000000E+00 0.  1.
<mgrwt>
<rscale>  0 0.60814060E+02</rscale>
<asrwt>0</asrwt>
<pdfrwt beam="1">  1        1 0.38920931E-01 0.92116125E+02</pdfrwt>
<pdfrwt beam="2">  1       -1 0.18335073E-02 0.92116125E+02</pdfrwt>
<totfact> 0.73195981E+04</totfact>
</mgrwt>
</event>
<event>
 6    1  0.2995420E-002  0.9307262E+02  0.7546771E-02  0.1386529E+00
          2   -1    0    0  501    0  0.00000000000E+00  0.00000000000E+00  0.16967877641E+04  0.16967877641E+04  0.00000000000E+00 0. -1.
         -2   -1    0    0    0  501 -0.00000000000E+00 -0.00000000000E+00 -0.31212786977E+01  0.31212786977E+01  0.00000000000E+00 0.  1.
         23    2    1    2    0    0  0.15280410760E+01 -0.19204372860E+02  0.16440694852E+04  0.16467018508E+04  0.91056963268E+02 0.  0.
         13    1    3    3    0    0 -0.15399108811E+02 -0.48243151549E+02  0.13021169610E+04  0.13031013446E+04  0.00000000000E+00 0. -1.
        -13    1    3    3    0    0  0.16927149887E+02  0.29038778689E+02  0.34195252415E+03  0.34360050618E+03  0.00000000000E+00 0.  1.
         22    1    1    2    0    0 -0.15280410760E+01  0.19204372860E+02  0.49597000191E+02  0.53207191942E+02  0.00000000000E+00 0.  1.
<mgrwt>
<rscale>  0 0.62778236E+02</rscale>
<asrwt>0</asrwt>
<pdfrwt beam="1">  1        2 0.26104353E+00 0.93072624E+02</pdfrwt>
<pdfrwt beam="2">  1       -2 0.48019808E-03 0.93072624E+02</pdfrwt>
<totfact> 0.60601833E+04</totfact>
</mgrwt>
</event>
<event>
 6    1  0.2995420E-002  0.9568260E+02  0.7546771E-02  0.1413637E+00
         -4   -1    0    0    0  501 -0.00000000000E+00  0.00000000000E+00  0.98229986645E+01  0.98229986645E+01  0.00000000000E+00 0. -1.
          4   -1    0    0  501    0  0.00000000000E+00 -0.00000000000E+00 -0.92669882979E+03  0.92669882979E+03  0.00000000000E+00 0.  1.
         23    2    1    2    0    0 -0.58173556457E+01 -0.99696925391E+01 -0.91967944877E+03  0.92464341661E+03  0.94983803843E+02 0.  0.
         11    1    3    3    0    0 -0.34226555326E+02 -0.10081167213E+02 -0.14095158839E+03  0.14539751473E+03  0.00000000000E+00 0.  1.
        -11    1    3    3    0    0  0.28409199680E+02  0.11147467382E+00 -0.77872786038E+03  0.77924590188E+03  0.00000000000E+00 0. -1.
         22    1    1    2    0    0  0.58173556457E+01  0.99696925391E+01  0.28036176459E+01  0.11878411844E+02  0.00000000000E+00 0. -1.
<mgrwt>
<rscale>  0 0.56390062E+02</rscale>
<asrwt>0</asrwt>
<pdfrwt beam="1">  1        4 0.14256900E+00 0.95682597E+02</pdfrwt>
<pdfrwt beam="2">  1       -4 0.15112311E-02 0.95682597E+02</pdfrwt>
<totfact> 0.87268388E+02</totfact>
</mgrwt>
</event>
<event>
 6    1  0.2995420E-002  0.9490350E+02  0.7546771E-02  0.1379456E+00
         -3   -1    0    0    0  501 -0.00000000000E+00  0.00000000000E+00  0.52762023265E+02  0.52762023265E+02  0.00000000000E+00 0.  1.
          3   -1    0    0  501    0  0.00000000000E+00 -0.00000000000E+00 -0.63027633523E+02  0.63027633523E+02  0.00000000000E+00 0. -1.
         23    2    1    2    0    0 -0.14554965744E+02 -0.14269561597E+02 -0.97116968521E+01  0.95399113979E+02  0.92688761326E+02 0.  0.
         13    1    3    3    0    0 -0.44341631112E+02  0.19055420160E+02  0.45638065434E+01  0.48478011689E+02  0.00000000000E+00 0.  1.
        -13    1    3    3    0    0  0.29786665368E+02 -0.33324981757E+02 -0.14275503395E+02  0.46921102290E+02  0.00000000000E+00 0. -1.
         22    1    1    2    0    0  0.14554965744E+02  0.14269561597E+02 -0.55391340648E+00  0.20390542809E+02  0.00000000000E+00 0.  1.
<mgrwt>
<rscale>  0 0.64606883E+02</rscale>
<asrwt>0</asrwt>
<pdfrwt beam="1">  1        3 0.96965591E-02 0.94903498E+02</pdfrwt>
<pdfrwt beam="2">  1       -3 0.81172343E-02 0.94903498E+02</pdfrwt>
<totfact> 0.16730139E+04</totfact>
</mgrwt>
</event>
<event>
 6    1  0.2995420E-002  0.9345228E+02  0.7546771E-02  0.1372700E+00
          2   -1    0    0  501    0  0.00000000000E+00  0.00000000000E+00  0.15120565091E+04  0.15120565091E+04  0.00000000000E+00 0. -1.
         -2   -1    0    0    0  501 -0.00000000000E+00 -0.00000000000E+00 -0.42327898837E+01  0.42327898837E+01  0.00000000000E+00 0.  1.
         23    2    1    2    0    0 -0.18802468528E+02 -0.14672211445E+02  0.14586148030E+04  0.14616054435E+04  0.90357746860E+02 0.  0.
         13    1    3    3    0    0 -0.51646450763E+02  0.28490539106E+01  0.61563277307E+03  0.61780189726E+03  0.00000000000E+00 0.  1.
        -13    1    3    3    0    0  0.32843982235E+02 -0.17521265355E+02  0.84298202995E+03  0.84380354628E+03  0.00000000000E+00 0. -1.
         22    1    1    2    0    0  0.18802468528E+02  0.14672211445E+02  0.49208916166E+02  0.54683855402E+02  0.00000000000E+00 0. -1.
<mgrwt>
<rscale>  0 0.66422163E+02</rscale>
<asrwt>0</asrwt>
<pdfrwt beam="1">  1        2 0.23262365E+00 0.93452282E+02</pdfrwt>
<pdfrwt beam="2">  1       -2 0.65119965E-03 0.93452282E+02</pdfrwt>
<totfact> 0.49030766E+04</totfact>
</mgrwt>
</event>
<event>
 6    1  0.2995420E-002  0.9709546E+02  0.7546771E-02  0.1365954E+00
         -2   -1    0    0    0  501 -0.00000000000E+00  0.00000000000E+00  0.15028799705E+03  0.15028799705E+03  0.00000000000E+00 0. -1.
          2   -1    0    0  501    0  0.00000000000E+00 -0.00000000000E+00 -0.24758601003E+02  0.24758601003E+02  0.00000000000E+00 0.  1.
         23    2    1    2    0    0 -0.59330048053E+01 -0.23027813148E+02  0.90664396247E+02  0.13284412259E+03  0.94138448227E+02 0.  0.
         13    1    3    3    0    0 -0.12770597371E+02 -0.15330784575E+02  0.10954047740E+03  0.11134288168E+03  0.00000000000E+00 0. -1.
        -13    1    3    3    0    0  0.68375925657E+01 -0.76970285729E+01 -0.18876081149E+02  0.21501240906E+02  0.00000000000E+00 0.  1.
         22    1    1    2    0    0  0.59330048053E+01  0.23027813148E+02  0.34864999800E+02  0.42202475466E+02  0.00000000000E+00 0. -1.
<mgrwt>
<rscale>  0 0.68304830E+02</rscale>
<asrwt>0</asrwt>
<pdfrwt beam="1">  1        2 0.38090156E-02 0.97095459E+02</pdfrwt>
<pdfrwt beam="2">  1       -2 0.23121230E-01 0.97095459E+02</pdfrwt>
<totfact> 0.32435315E+04</totfact>
</mgrwt>
</event>
<event>
 6    1  0.2995420E-002  0.9421055E+02  0.7546771E-02  0.1408545E+00
          2   -1    0    0  501    0  0.00000000000E+00  0.00000000000E+00  0.59652548593E+03  0.59652548593E+03  0.00000000000E+00 0. -1.
         -2   -1    0    0    0  501 -0.00000000000E+00 -0.00000000000E+00 -0.48310583405E+01  0.48310583405E+01  0.00000000000E+00 0.  1.
         23    2    1    2    0    0  0.11559268671E+02  0.61447403274E+01  0.52604793571E+03  0.53441749422E+03  0.93296585871E+02 0.  0.
         13    1    3    3    0    0  0.33923594780E+02 -0.23879739534E+02  0.12671000761E+03  0.13332846009E+03  0.00000000000E+00 0.  1.
        -13    1    3    3    0    0 -0.22364326109E+02  0.30024479862E+02  0.39933792811E+03  0.40108903413E+03  0.00000000000E+00 0. -1.
         22    1    1    2    0    0 -0.11559268671E+02 -0.61447403274E+01  0.65646491878E+02  0.66939050051E+02  0.00000000000E+00 0. -1.
<mgrwt>
<rscale>  0 0.57519875E+02</rscale>
<asrwt>0</asrwt>
<pdfrwt beam="1">  1        2 0.91773093E-01 0.94210549E+02</pdfrwt>
<pdfrwt beam="2">  1       -2 0.74324022E-03 0.94210549E+02</pdfrwt>
<totfact> 0.14437741E+05</totfact>
</mgrwt>
</event>
<event>
 6    1  0.2995420E-002  0.9224963E+02  0.7546771E-02  0.1373676E+00
         -2   -1    0    0    0  501 -0.00000000000E+00  0.00000000000E+00  0.34689469433E+02  0.34689469433E+02  0.00000000000E+00 0.  1.
          2   -1    0    0  501    0  0.00000000000E+00 -0.00000000000E+00 -0.99242990882E+02  0.99242990882E+02  0.00000000000E+00 0. -1.
         23    2    1    2    0    0  0.24390141856E+02  0.66617740341E+00 -0.56786412100E+02  0.10832678126E+03  0.88964443050E+02 0.  0.
         11    1    3    3    0    0 -0.45033396128E+01  0.35053252711E+01 -0.74235156375E+02  0.74454186014E+02  0.00000000000E+00 0. -1.
        -11    1    3    3    0    0  0.28893481469E+02 -0.28391478677E+01  0.17448744276E+02  0.33872595248E+02  0.00000000000E+00 0.  1.
         22    1    1    2    0    0 -0.24390141856E+02 -0.66617740341E+00 -0.77671093495E+01  0.25605679053E+02  0.00000000000E+00 0. -1.
<mgrwt>
<rscale>  0 0.66155743E+02</rscale>
<asrwt>0</asrwt>
<pdfrwt beam="1">  1        2 0.15268152E-01 0.92249634E+02</pdfrwt>
<pdfrwt beam="2">  1       -2 0.53368415E-02 0.92249634E+02</pdfrwt>
<totfact> 0.58283417E+04</totfact>
</mgrwt>
</event>
<event>
 6    1  0.2995420E-002  0.9062116E+02  0.7546771E-02  0.1370953E+00
          2   -1    0    0  501    0  0.00000000000E+00  0.00000000000E+00  0.49240533121E+02  0.49240533121E+02  0.00000000000E+00 0. -1.
         -2   -1    0    0    0  501 -0.00000000000E+00 -0.00000000000E+00 -0.70406214630E+02  0.70406214630E+02  0.00000000000E+00 0.  1.
         23    2    1    2    0    0 -0.55350524179E+01 -0.26345790722E+02 -0.13239229375E+02  0.91583138976E+02  0.86530091045E+02 0.  0.
         13    1    3    3    0    0  0.88243964999E+01 -0.54758369522E+02 -0.20141029113E+02  0.59008559210E+02  0.00000000000E+00 0. -1.
        -13    1    3    3    0    0 -0.14359448918E+02  0.28412578800E+02  0.69017997380E+01  0.32574579766E+02  0.00000000000E+00 0.  1.
         22    1    1    2    0    0  0.55350524179E+01  0.26345790722E+02 -0.79264521337E+01  0.28063608775E+02  0.00000000000E+00 0.  1.
<mgrwt>
<rscale>  0 0.66902877E+02</rscale>
<asrwt>0</asrwt>
<pdfrwt beam="1">  1        2 0.75754666E-02 0.90621157E+02</pdfrwt>
<pdfrwt beam="2">  1       -2 0.10831725E-01 0.90621157E+02</pdfrwt>
<totfact> 0.45864518E+04</totfact>
</mgrwt>
</event>
<event>
 6    1  0.2995420E-002  0.9138962E+02  0.7546771E-02  0.1425128E+00
         -4   -1    0    0    0  501 -0.00000000000E+00  0.00000000000E+00  0.24142218267E+03  0.24142218267E+03  0.00000000000E+00 0.  1.
          4   -1    0    0  501    0  0.00000000000E+00 -0.00000000000E+00 -0.11597810274E+02  0.11597810274E+02  0.00000000000E+00 0. -1.
         23    2    1    2    0    0  0.92407329421E+01  0.61483797729E+01  0.17879743643E+03  0.20079986356E+03  0.90713109369E+02 0.  0.
         13    1    3    3    0    0  0.25149684254E+01 -0.38102190221E+02  0.41517046158E+02  0.56407154577E+02  0.00000000000E+00 0. -1.
        -13    1    3    3    0    0  0.67257645167E+01  0.44250569994E+02  0.13728039027E+03  0.14439270898E+03  0.00000000000E+00 0.  1.
         22    1    1    2    0    0 -0.92407329421E+01 -0.61483797729E+01  0.51026935967E+02  0.52220129388E+02  0.00000000000E+00 0. -1.
<mgrwt>
<rscale>  0 0.53950592E+02</rscale>
<asrwt>0</asrwt>
<pdfrwt beam="1">  1        4 0.17842787E-02 0.91389616E+02</pdfrwt>
<pdfrwt beam="2">  1       -4 0.37141870E-01 0.91389616E+02</pdfrwt>
<totfact> 0.12405707E+04</totfact>
</mgrwt>
</event>
<event>
 6    1  0.2995420E-002  0.9354265E+02  0.7546771E-02  0.1385535E+00
          3   -1    0    0  501    0  0.00000000000E+00  0.00000000000E+00  0.26858452543E+03  0.26858452543E+03  0.00000000000E+00 0. -1.
         -3   -1    0    0    0  501 -0.00000000000E+00 -0.00000000000E+00 -0.13990909511E+02  0.13990909511E+02  0.00000000000E+00 0.  1.
         23    2    1    2    0    0  0.71156101006E+01  0.17922789234E+02  0.24224100490E+03  0.25967466464E+03  0.91533429539E+02 0.  0.
         11    1    3    3    0    0  0.38992151072E+02  0.13518250677E+02  0.21038417238E+03  0.21439363548E+03  0.00000000000E+00 0. -1.
        -11    1    3    3    0    0 -0.31876540971E+02  0.44045385575E+01  0.31856832523E+02  0.45281029169E+02  0.00000000000E+00 0.  1.
         22    1    1    2    0    0 -0.71156101006E+01 -0.17922789234E+02  0.12352611018E+02  0.22900770293E+02  0.00000000000E+00 0. -1.
<mgrwt>
<rscale>  0 0.63031033E+02</rscale>
<asrwt>0</asrwt>
<pdfrwt beam="1">  1        3 0.41320692E-01 0.93542648E+02</pdfrwt>
<pdfrwt beam="2">  1       -3 0.21524478E-02 0.93542648E+02</pdfrwt>
<totfact> 0.10339449E+04</totfact>
</mgrwt>
</event>
<event>
 6    1  0.2995420E-002  0.9986432E+02  0.7546771E-02  0.1339460E+00
         -2   -1    0    0    0  501 -0.00000000000E+00  0.00000000000E+00  0.41322632103E+01  0.41322632103E+01  0.00000000000E+00 0.  1.
          2   -1    0    0  501    0  0.00000000000E+00 -0.00000000000E+00 -0.20573169098E+04  0.20573169098E+04  0.00000000000E+00 0. -1.
         23    2    1    2    0    0 -0.16915810834E+02  0.29822804321E+02 -0.19531612472E+04  0.19557125912E+04  0.93794122297E+02 0.  0.
         11    1    3    3    0    0 -0.37279241523E+02  0.20461383375E+02 -0.37681194333E+03  0.37920396977E+03  0.00000000000E+00 0.  1.
        -11    1    3    3    0    0  0.20363430688E+02  0.93614209454E+01 -0.15763493039E+04  0.15765086214E+04  0.00000000000E+00 0. -1.
         22    1    1    2    0    0  0.16915810834E+02 -0.29822804321E+02 -0.10002339936E+03  0.10573658181E+03  0.00000000000E+00 0.  1.
<mgrwt>
<rscale>  0 0.76442983E+02</rscale>
<asrwt>0</asrwt>
<pdfrwt beam="1">  1        2 0.31651049E+00 0.99864316E+02</pdfrwt>
<pdfrwt beam="2">  1       -2 0.63573241E-03 0.99864316E+02</pdfrwt>
<totfact> 0.27053403E+04</totfact>
</mgrwt>
</event>
<event>
 6    1  0.2995420E-002  0.9062896E+02  0.7546771E-02  0.1401212E+00
         -2   -1    0    0    0  501 -0.00000000000E+00  0.00000000000E+00  0.13077085126E+02  0.13077085126E+02  0.00000000000E+00 0. -1.
          2   -1    0    0  501    0  0.00000000000E+00 -0.00000000000E+00 -0.50577999109E+03  0.50577999109E+03  0.00000000000E+00 0.  1.
         23    2    1    2    0    0 -0.91344574324E+01  0.13743316608E+02 -0.49405601128E+03  0.50229966222E+03  0.89113923267E+02 0.  0.
         13    1    3    3    0    0 -0.21543093911E+02 -0.10332693528E+02 -0.34611207996E+02  0.42057165499E+02  0.00000000000E+00 0. -1.
        -13    1    3    3    0    0  0.12408636479E+02  0.24076010137E+02 -0.45944480329E+03  0.46024249673E+03  0.00000000000E+00 0.  1.
         22    1    1    2    0    0  0.91344574324E+01 -0.13743316608E+02  0.13531053243E+01  0.16557413989E+02  0.00000000000E+00 0. -1.
<mgrwt>
<rscale>  0 0.59201758E+02</rscale>
<asrwt>0</asrwt>
<pdfrwt beam="1">  1        2 0.77812304E-01 0.90628960E+02</pdfrwt>
<pdfrwt beam="2">  1       -2 0.20118593E-02 0.90628960E+02</pdfrwt>
<totfact> 0.41792679E+04</totfact>
</mgrwt>
</event>
<event>
 6    1  0.2995420E-002  0.1022775E+03  0.7546771E-02  0.1316495E+00
          2   -1    0    0  501    0  0.00000000000E+00  0.00000000000E+00  0.17466823119E+02  0.17466823119E+02  0.00000000000E+00 0. -1.
         -2   -1    0    0    0  501 -0.00000000000E+00 -0.00000000000E+00 -0.40329695280E+03  0.40329695280E+03  0.00000000000E+00 0.  1.
         23    2    1    2    0    0 -0.29608188831E+02 -0.37611768261E+02 -0.15985388074E+03  0.18977339724E+03  0.90384673224E+02 0.  0.
         11    1    3    3    0    0 -0.52544730618E+02  0.32706258911E+01 -0.10615042388E+03  0.11848864165E+03  0.00000000000E+00 0.  1.
        -11    1    3    3    0    0  0.22936541788E+02 -0.40882394152E+02 -0.53703456856E+02  0.71284755587E+02  0.00000000000E+00 0. -1.
         22    1    1    2    0    0  0.29608188831E+02  0.37611768261E+02 -0.22597624894E+03  0.23099037868E+03  0.00000000000E+00 0.  1.
<mgrwt>
<rscale>  0 0.84595052E+02</rscale>
<asrwt>0</asrwt>
<pdfrwt beam="1">  1        2 0.26872035E-02 0.10227746E+03</pdfrwt>
<pdfrwt beam="2">  1       -2 0.62045687E-01 0.10227746E+03</pdfrwt>
<totfact> 0.81937094E+03</totfact>
</mgrwt>
</event>
<event>
 6    1  0.2995420E-002  0.1007252E+03  0.7546771E-02  0.1353323E+00
         -2   -1    0    0    0  501 -0.00000000000E+00  0.00000000000E+00  0.94124851498E+01  0.94124851498E+01  0.00000000000E+00 0.  1.
          2   -1    0    0  501    0  0.00000000000E+00 -0.00000000000E+00 -0.45867289982E+03  0.45867289982E+03  0.00000000000E+00 0. -1.
         23    2    1    2    0    0 -0.27460682705E+01 -0.26197904788E+02 -0.39677820070E+03  0.40936355011E+03  0.97219877084E+02 0.  0.
         13    1    3    3    0    0 -0.25494761186E+02 -0.29258746386E+02 -0.37720950970E+03  0.37920056869E+03  0.00000000000E+00 0. -1.
        -13    1    3    3    0    0  0.22748692916E+02  0.30608415979E+01 -0.19568691009E+02  0.30162981425E+02  0.00000000000E+00 0.  1.
         22    1    1    2    0    0  0.27460682705E+01  0.26197904788E+02 -0.52482213961E+02  0.58721834853E+02  0.00000000000E+00 0. -1.
<mgrwt>
<rscale>  0 0.72030032E+02</rscale>
<asrwt>0</asrwt>
<pdfrwt beam="1">  1        2 0.70565059E-01 0.10072525E+03</pdfrwt>
<pdfrwt beam="2">  1       -2 0.14480747E-02 0.10072525E+03</pdfrwt>
<totfact> 0.75372279E+04</totfact>
</mgrwt>
</event>
<event>
 6    1  0.2995420E-002  0.9205683E+02  0.7546771E-02  0.1393408E+00
          2   -1    0    0  501    0  0.00000000000E+00  0.00000000000E+00  0.15878366184E+02  0.15878366184E+02  0.00000000000E+00 0. -1.
         -2   -1    0    0    0  501 -0.00000000000E+00 -0.00000000000E+00 -0.19346966944E+03  0.19346966944E+03  0.00000000000E+00 0.  1.
         23    2    1    2    0    0 -0.15633466159E+02 -0.85655027255E+01 -0.15798866074E+03  0.18285206056E+03  0.90314373313E+02 0.  0.
         13    1    3    3    0    0 -0.22735766513E+02 -0.45392814736E+02 -0.64239401116E+02  0.81878711301E+02  0.00000000000E+00 0. -1.
        -13    1    3    3    0    0  0.71023003539E+01  0.36827312010E+02 -0.93749259620E+02  0.10097334925E+03  0.00000000000E+00 0.  1.
         22    1    1    2    0    0  0.15633466159E+02  0.85655027255E+01 -0.19602642523E+02  0.26495975071E+02  0.00000000000E+00 0. -1.
<mgrwt>
<rscale>  0 0.61067007E+02</rscale>
<asrwt>0</asrwt>
<pdfrwt beam="1">  1        2 0.24428254E-02 0.92056826E+02</pdfrwt>
<pdfrwt beam="2">  1       -2 0.29764567E-01 0.92056826E+02</pdfrwt>
<totfact> 0.37377094E+04</totfact>
</mgrwt>
</event>
<event>
 6    1  0.2995420E-002  0.9982223E+02  0.7546771E-02  0.1326010E+00
         -2   -1    0    0    0  501 -0.00000000000E+00  0.00000000000E+00  0.27856404175E+02  0.27856404175E+02  0.00000000000E+00 0.  1.
          2   -1    0    0  501    0  0.00000000000E+00 -0.00000000000E+00 -0.21038570384E+03  0.21038570384E+03  0.00000000000E+00 0. -1.
         23    2    1    2    0    0 -0.25085186240E+02  0.35479399902E+02 -0.16176190317E+03  0.19008259033E+03  0.89868923687E+02 0.  0.
         13    1    3    3    0    0 -0.36198123704E+02 -0.19709583920E+02 -0.48852835593E+02  0.63916910152E+02  0.00000000000E+00 0.  1.
        -13    1    3    3    0    0  0.11112937465E+02  0.55188983822E+02 -0.11290906758E+03  0.12616568018E+03  0.00000000000E+00 0. -1.
         22    1    1    2    0    0  0.25085186240E+02 -0.35479399902E+02 -0.20767396495E+02  0.48159517681E+02  0.00000000000E+00 0. -1.
<mgrwt>
<rscale>  0 0.81081592E+02</rscale>
<asrwt>0</asrwt>
<pdfrwt beam="1">  1        2 0.32367032E-01 0.99822231E+02</pdfrwt>
<pdfrwt beam="2">  1       -2 0.42856006E-02 0.99822231E+02</pdfrwt>
<totfact> 0.35501352E+04</totfact>
</mgrwt>
</event>
<event>
 6    1  0.2995420E-002  0.9491113E+02  0.7546771E-02  0.1377644E+00
         -2   -1    0    0    0  501 -0.00000000000E+00  0.00000000000E+00  0.33134086341E+01  0.33134086341E+01  0.00000000000E+00 0.  1.
          2   -1    0    0  501    0  0.00000000000E+00 -0.00000000000E+00 -0.11321533966E+04  0.11321533966E+04  0.00000000000E+00 0. -1.
         23    2    1    2    0    0 -0.30618338249E+01 -0.20766210382E+02 -0.10332131803E+04  0.10375632983E+04  0.92560854429E+02 0.  0.
         11    1    3    3    0    0  0.23536201045E+02 -0.42165600842E+02 -0.32919740217E+03  0.33272033338E+03  0.00000000000E+00 0. -1.
        -11    1    3    3    0    0 -0.26598034870E+02  0.21399390460E+02 -0.70401577812E+03  0.70484296493E+03  0.00000000000E+00 0.  1.
         22    1    1    2    0    0  0.30618338249E+01  0.20766210382E+02 -0.95626807655E+02  0.97903506894E+02  0.00000000000E+00 0.  1.
<mgrwt>
<rscale>  0 0.65087064E+02</rscale>
<asrwt>0</asrwt>
<pdfrwt beam="1">  1        2 0.17417716E+00 0.94911127E+02</pdfrwt>
<pdfrwt beam="2">  1       -2 0.50975601E-03 0.94911127E+02</pdfrwt>
<totfact> 0.11009480E+05</totfact>
</mgrwt>
</event>
<event>
 6    1  0.2995420E-002  0.8940895E+02  0.7546771E-02  0.1419913E+00
          2   -1    0    0  501    0  0.00000000000E+00  0.00000000000E+00  0.42720690318E+03  0.42720690318E+03  0.00000000000E+00 0. -1.
         -2   -1    0    0    0  501 -0.00000000000E+00 -0.00000000000E+00 -0.99696561236E+01  0.99696561236E+01  0.00000000000E+00 0.  1.
         23    2    1    2    0    0 -0.12782718301E+02 -0.12059039951E+01  0.41451985720E+03  0.42405267652E+03  0.88482248849E+02 0.  0.
         13    1    3    3    0    0 -0.11011179245E+02  0.39212141330E+01  0.24442557746E+01  0.11941372406E+02  0.00000000000E+00 0.  1.
        -13    1    3    3    0    0 -0.17715390560E+01 -0.51271181281E+01  0.41207560143E+03  0.41211130412E+03  0.00000000000E+00 0. -1.
         22    1    1    2    0    0  0.12782718301E+02  0.12059039951E+01  0.27173898560E+01  0.13123882780E+02  0.00000000000E+00 0.  1.
<mgrwt>
<rscale>  0 0.55039256E+02</rscale>
<asrwt>0</asrwt>
<pdfrwt beam="1">  1        2 0.65724125E-01 0.89408951E+02</pdfrwt>
<pdfrwt beam="2">  1       -2 0.15337936E-02 0.89408951E+02</pdfrwt>
<totfact> 0.73689977E+04</totfact>
</mgrwt>
</event>
<event>
 6    1  0.2995420E-002  0.9282645E+02  0.7546771E-02  0.1414741E+00
         -1   -1    0    0    0  501 -0.00000000000E+00  0.00000000000E+00  0.11813803963E+02  0.11813803963E+02  0.00000000000E+00 0.  1.
          1   -1    0    0  501    0  0.00000000000E+00 -0.00000000000E+00 -0.44313945385E+03  0.44313945385E+03  0.00000000000E+00 0. -1.
         23    2    1    2    0    0 -0.63537959946E+01 -0.10679645951E+02 -0.43261304777E+03  0.44245994142E+03  0.91990896796E+02 0.  0.
         13    1    3    3    0    0 -0.14840478518E+02  0.33489829071E+02 -0.94207177320E+02  0.10107819108E+03  0.00000000000E+00 0.  1.
        -13    1    3    3    0    0  0.84866825233E+01 -0.44169475023E+02 -0.33840587045E+03  0.34138175033E+03  0.00000000000E+00 0. -1.
         22    1    1    2    0    0  0.63537959946E+01  0.10679645951E+02  0.12873978890E+01  0.12493316394E+02  0.00000000000E+00 0.  1.
<mgrwt>
<rscale>  0 0.56149219E+02</rscale>
<asrwt>0</asrwt>
<pdfrwt beam="1">  1        1 0.68175293E-01 0.92826454E+02</pdfrwt>
<pdfrwt beam="2">  1       -1 0.18175085E-02 0.92826454E+02</pdfrwt>
<totfact> 0.37204182E+04</totfact>
</mgrwt>
</event>
<event>
 6    1  0.2995420E-002  0.1068813E+03  0.7546771E-02  0.1302224E+00
          2   -1    0    0  501    0  0.00000000000E+00  0.00000000000E+00  0.59667094156E+02  0.59667094156E+02  0.00000000000E+00 0. -1.
         -2   -1    0    0    0  501 -0.00000000000E+00 -0.00000000000E+00 -0.12137663408E+03  0.12137663408E+03  0.00000000000E+00 0.  1.
         23    2    1    2    0    0  0.50929869647E+02  0.19000301171E+02 -0.12302766136E+02  0.10758699020E+03  0.92025753671E+02 0.  0.
         13    1    3    3    0    0  0.54465458159E+02 -0.84841624389E+01  0.25484176952E+02  0.60728168255E+02  0.00000000000E+00 0. -1.
        -13    1    3    3    0    0 -0.35355885119E+01  0.27484463610E+02 -0.37786943088E+02  0.46858821944E+02  0.00000000000E+00 0.  1.
         22    1    1    2    0    0 -0.50929869647E+02 -0.19000301171E+02 -0.49406773785E+02  0.73456738035E+02  0.00000000000E+00 0. -1.
<mgrwt>
<rscale>  0 0.90259583E+02</rscale>
<asrwt>0</asrwt>
<pdfrwt beam="1">  1        2 0.91795530E-02 0.10688125E+03</pdfrwt>
<pdfrwt beam="2">  1       -2 0.18673328E-01 0.10688125E+03</pdfrwt>
<totfact> 0.15322311E+04</totfact>
</mgrwt>
</event>
<event>
 6    1  0.2995420E-002  0.8893455E+02  0.7546771E-02  0.1432331E+00
         -1   -1    0    0    0  501 -0.00000000000E+00  0.00000000000E+00  0.46350413026E+02  0.46350413026E+02  0.00000000000E+00 0.  1.
          1   -1    0    0  501    0  0.00000000000E+00 -0.00000000000E+00 -0.56657319167E+02  0.56657319167E+02  0.00000000000E+00 0. -1.
         23    2    1    2    0    0  0.74692849820E+01  0.77948910139E+01 -0.16659593562E+02  0.90481472515E+02  0.88276861446E+02 0.  0.
         11    1    3    3    0    0 -0.96802751268E+01  0.30354202791E+02 -0.41828319784E+02  0.52580354597E+02  0.00000000000E+00 0. -1.
        -11    1    3    3    0    0  0.17149560109E+02 -0.22559311778E+02  0.25168726221E+02  0.37901117918E+02  0.00000000000E+00 0.  1.
         22    1    1    2    0    0 -0.74692849820E+01 -0.77948910139E+01  0.63526874205E+01  0.12526259678E+02  0.00000000000E+00 0. -1.
<mgrwt>
<rscale>  0 0.52494909E+02</rscale>
<asrwt>0</asrwt>
<pdfrwt beam="1">  1        1 0.87165107E-02 0.88934554E+02</pdfrwt>
<pdfrwt beam="2">  1       -1 0.71308327E-02 0.88934554E+02</pdfrwt>
<totfact> 0.67369455E+04</totfact>
</mgrwt>
</event>
<event>
 6    1  0.2995420E-002  0.1023326E+03  0.7546771E-02  0.1314568E+00
          2   -1    0    0  501    0  0.00000000000E+00  0.00000000000E+00  0.95118844559E+02  0.95118844559E+02  0.00000000000E+00 0.  1.
         -2   -1    0    0    0  501 -0.00000000000E+00 -0.00000000000E+00 -0.69099198173E+02  0.69099198173E+02  0.00000000000E+00 0. -1.
         23    2    1    2    0    0 -0.27494417226E+02  0.41133332913E+02  0.44250074118E+02  0.11149003736E+03  0.89577147287E+02 0.  0.
         13    1    3    3    0    0  0.27612144682E+02 -0.76555659175E+01  0.14368824735E+02  0.32054661872E+02  0.00000000000E+00 0. -1.
        -13    1    3    3    0    0 -0.55106561908E+02  0.48788898830E+02  0.29881249383E+02  0.79435375489E+02  0.00000000000E+00 0.  1.
         22    1    1    2    0    0  0.27494417226E+02 -0.41133332913E+02 -0.18230427731E+02  0.52728005371E+02  0.00000000000E+00 0. -1.
<mgrwt>
<rscale>  0 0.85331535E+02</rscale>
<asrwt>0</asrwt>
<pdfrwt beam="1">  1        2 0.14633668E-01 0.10233259E+03</pdfrwt>
<pdfrwt beam="2">  1       -2 0.10630646E-01 0.10233259E+03</pdfrwt>
<totfact> 0.21663964E+04</totfact>
</mgrwt>
</event>
<event>
 6    1  0.2995420E-002  0.9238350E+02  0.7546771E-02  0.1412340E+00
          2   -1    0    0  501    0  0.00000000000E+00  0.00000000000E+00  0.27937241776E+03  0.27937241776E+03  0.00000000000E+00 0. -1.
         -2   -1    0    0    0  501 -0.00000000000E+00 -0.00000000000E+00 -0.11838757659E+02  0.11838757659E+02  0.00000000000E+00 0.  1.
         23    2    1    2    0    0  0.10824979626E+02  0.73514440117E+01  0.26041202867E+03  0.27631347267E+03  0.91452099981E+02 0.  0.
         11    1    3    3    0    0 -0.54601939878E+01 -0.20961873792E+02  0.23204010375E+03  0.23304897258E+03  0.00000000000E+00 0. -1.
        -11    1    3    3    0    0  0.16285173614E+02  0.28313317804E+02  0.28371924919E+02  0.43264500093E+02  0.00000000000E+00 0.  1.
         22    1    1    2    0    0 -0.10824979626E+02 -0.73514440117E+01  0.71216314335E+01  0.14897702751E+02  0.00000000000E+00 0. -1.
<mgrwt>
<rscale>  0 0.56674977E+02</rscale>
<asrwt>0</asrwt>
<pdfrwt beam="1">  1        2 0.42980367E-01 0.92383497E+02</pdfrwt>
<pdfrwt beam="2">  1       -2 0.18213475E-02 0.92383497E+02</pdfrwt>
<totfact> 0.90381240E+04</totfact>
</mgrwt>
</event>
<event>
 6    1  0.2995420E-002  0.9025967E+02  0.7546771E-02  0.1425709E+00
          1   -1    0    0  501    0  0.00000000000E+00  0.00000000000E+00  0.52791506744E+03  0.52791506744E+03  0.00000000000E+00 0. -1.
         -1   -1    0    0    0  501 -0.00000000000E+00 -0.00000000000E+00 -0.49711913738E+01  0.49711913738E+01  0.00000000000E+00 0.  1.
         23    2    1    2    0    0  0.60400107413E+01  0.96915697829E+01  0.48207349730E+03  0.49045047067E+03  0.89534346092E+02 0.  0.
         11    1    3    3    0    0  0.37045727450E+01  0.11158835977E+01  0.48153033990E+03  0.48154588286E+03  0.00000000000E+00 0. -1.
        -11    1    3    3    0    0  0.23354379962E+01  0.85756861852E+01  0.54315740105E+00  0.89045878144E+01  0.00000000000E+00 0.  1.
         22    1    1    2    0    0 -0.60400107413E+01 -0.96915697829E+01  0.40870378773E+02  0.42435788147E+02  0.00000000000E+00 0.  1.
<mgrwt>
<rscale>  0 0.53831122E+02</rscale>
<asrwt>0</asrwt>
<pdfrwt beam="1">  1        1 0.81217659E-01 0.90259666E+02</pdfrwt>
<pdfrwt beam="2">  1       -1 0.76479909E-03 0.90259666E+02</pdfrwt>
<totfact> 0.10082672E+05</totfact>
</mgrwt>
</event>
<event>
 6    1  0.2995420E-002  0.9294039E+02  0.7546771E-02  0.1419285E+00
         -2   -1    0    0    0  501 -0.00000000000E+00  0.00000000000E+00  0.82505367396E+02  0.82505367396E+02  0.00000000000E+00 0.  1.
          2   -1    0    0  501    0  0.00000000000E+00 -0.00000000000E+00 -0.33185199501E+02  0.33185199501E+02  0.00000000000E+00 0. -1.
         23    2    1    2    0    0 -0.97487865844E+01  0.61788209247E+01  0.41746895477E+02  0.10188581688E+03  0.92220928924E+02 0.  0.
         13    1    3    3    0    0 -0.41781151130E+02 -0.11570645160E+02 -0.37103761439E+01  0.43512197258E+02  0.00000000000E+00 0. -1.
        -13    1    3    3    0    0  0.32032364545E+02  0.17749466084E+02  0.45457271621E+02  0.58373619623E+02  0.00000000000E+00 0.  1.
         22    1    1    2    0    0  0.97487865844E+01 -0.61788209247E+01  0.75732724181E+01  0.13804750016E+02  0.00000000000E+00 0.  1.
<mgrwt>
<rscale>  0 0.55172567E+02</rscale>
<asrwt>0</asrwt>
<pdfrwt beam="1">  1        2 0.51054154E-02 0.92940392E+02</pdfrwt>
<pdfrwt beam="2">  1       -2 0.12693133E-01 0.92940392E+02</pdfrwt>
<totfact> 0.59118785E+04</totfact>
</mgrwt>
</event>
<event>
 6    1  0.2995420E-002  0.9235094E+02  0.7546771E-02  0.1384424E+00
         -2   -1    0    0    0  501 -0.00000000000E+00  0.00000000000E+00  0.54100764992E+02  0.54100764992E+02  0.00000000000E+00 0.  1.
          2   -1    0    0  501    0  0.00000000000E+00 -0.00000000000E+00 -0.12799508199E+03  0.12799508199E+03  0.00000000000E+00 0. -1.
         23    2    1    2    0    0 -0.20147642915E+02  0.32206960417E+01 -0.10815562341E+03  0.14221931861E+03  0.90068836531E+02 0.  0.
         13    1    3    3    0    0 -0.42805928553E+02 -0.22027822320E+02 -0.93699237992E+02  0.10534286723E+03  0.00000000000E+00 0. -1.
        -13    1    3    3    0    0  0.22658285638E+02  0.25248518361E+02 -0.14456385414E+02  0.36876451385E+02  0.00000000000E+00 0.  1.
         22    1    1    2    0    0  0.20147642915E+02 -0.32206960417E+01  0.34261306409E+02  0.39876528370E+02  0.00000000000E+00 0. -1.
<mgrwt>
<rscale>  0 0.63315033E+02</rscale>
<asrwt>0</asrwt>
<pdfrwt beam="1">  1        2 0.19691551E-01 0.92350938E+02</pdfrwt>
<pdfrwt beam="2">  1       -2 0.83231948E-02 0.92350938E+02</pdfrwt>
<totfact> 0.22301488E+04</totfact>
</mgrwt>
</event>
<event>
 6    1  0.2995420E-002  0.9283847E+02  0.7546771E-02  0.1419102E+00
         -2   -1    0    0    0  501 -0.00000000000E+00  0.00000000000E+00  0.14262572835E+01  0.14262572835E+01  0.00000000000E+00 0.  1.
          2   -1    0    0  501    0  0.00000000000E+00 -0.00000000000E+00 -0.25162815795E+04  0.25162815795E+04  0.00000000000E+00 0. -1.
         23    2    1    2    0    0 -0.52703637842E+01 -0.10347780646E+02 -0.24539386624E+04  0.24556941871E+04  0.92109329839E+02 0.  0.
         11    1    3    3    0    0 -0.30582518418E+02  0.32323674532E+01 -0.30159265032E+03  0.30315650307E+03  0.00000000000E+00 0.  1.
        -11    1    3    3    0    0  0.25312154633E+02 -0.13580148099E+02 -0.21523460121E+04  0.21525376841E+04  0.00000000000E+00 0. -1.
         22    1    1    2    0    0  0.52703637842E+01  0.10347780646E+02 -0.60916659848E+02  0.62013649673E+02  0.00000000000E+00 0. -1.
<mgrwt>
<rscale>  0 0.55211391E+02</rscale>
<asrwt>0</asrwt>
<pdfrwt beam="1">  1        2 0.38711704E+00 0.92838472E+02</pdfrwt>
<pdfrwt beam="2">  1       -2 0.21942601E-03 0.92838472E+02</pdfrwt>
<totfact> 0.69142092E+04</totfact>
</mgrwt>
</event>
<event>
 6    1  0.2995420E-002  0.9447524E+02  0.7546771E-02  0.1395896E+00
          2   -1    0    0  501    0  0.00000000000E+00  0.00000000000E+00  0.17631001213E+03  0.17631001213E+03  0.00000000000E+00 0.  1.
         -2   -1    0    0    0  501 -0.00000000000E+00 -0.00000000000E+00 -0.17329093690E+02  0.17329093690E+02  0.00000000000E+00 0. -1.
         23    2    1    2    0    0 -0.10202871082E+01  0.15817014150E+02  0.14024440018E+03  0.16909779292E+03  0.93136205987E+02 0.  0.
         11    1    3    3    0    0  0.41872233025E+02 -0.13103560110E+00  0.99006318873E+02  0.10749675458E+03  0.00000000000E+00 0.  1.
        -11    1    3    3    0    0 -0.42892520133E+02  0.15948049751E+02  0.41238081305E+02  0.61601038335E+02  0.00000000000E+00 0. -1.
         22    1    1    2    0    0  0.10202871082E+01 -0.15817014150E+02  0.18736518258E+02  0.24541312899E+02  0.00000000000E+00 0. -1.
<mgrwt>
<rscale>  0 0.60463748E+02</rscale>
<asrwt>0</asrwt>
<pdfrwt beam="1">  1        2 0.27124616E-01 0.94475244E+02</pdfrwt>
<pdfrwt beam="2">  1       -2 0.26660145E-02 0.94475244E+02</pdfrwt>
<totfact> 0.85324859E+04</totfact>
</mgrwt>
</event>
<event>
 6    1  0.2995420E-002  0.1006028E+03  0.7546771E-02  0.1329117E+00
         -1   -1    0    0    0  501 -0.00000000000E+00  0.00000000000E+00  0.39123485620E+02  0.39123485620E+02  0.00000000000E+00 0.  1.
          1   -1    0    0  501    0  0.00000000000E+00 -0.00000000000E+00 -0.27030106009E+03  0.27030106009E+03  0.00000000000E+00 0. -1.
         23    2    1    2    0    0  0.28495183707E+02 -0.28329891270E+02 -0.24664156649E+03  0.26637000723E+03  0.92229931144E+02 0.  0.
         13    1    3    3    0    0  0.27098799182E+01  0.27059120173E+02 -0.14695647446E+03  0.14945147982E+03  0.00000000000E+00 0. -1.
        -13    1    3    3    0    0  0.25785303789E+02 -0.55389011443E+02 -0.99685092027E+02  0.11691852741E+03  0.00000000000E+00 0.  1.
         22    1    1    2    0    0 -0.28495183707E+02  0.28329891270E+02  0.15463992024E+02  0.43054538474E+02  0.00000000000E+00 0.  1.
<mgrwt>
<rscale>  0 0.79976830E+02</rscale>
<asrwt>0</asrwt>
<pdfrwt beam="1">  1        1 0.41584780E-01 0.10060278E+03</pdfrwt>
<pdfrwt beam="2">  1       -1 0.60189976E-02 0.10060278E+03</pdfrwt>
<totfact> 0.12194950E+04</totfact>
</mgrwt>
</event>
<event>
 6    1  0.2995420E-002  0.9323707E+02  0.7546771E-02  0.1419822E+00
          1   -1    0    0  501    0  0.00000000000E+00  0.00000000000E+00  0.25982122595E+03  0.25982122595E+03  0.00000000000E+00 0. -1.
         -1   -1    0    0    0  501 -0.00000000000E+00 -0.00000000000E+00 -0.10528552735E+02  0.10528552735E+02  0.00000000000E+00 0.  1.
         23    2    1    2    0    0  0.33244083196E+01 -0.10839635658E+02  0.22421516368E+03  0.24282831658E+03  0.92545136651E+02 0.  0.
         13    1    3    3    0    0  0.19760865010E+02 -0.34471557246E+02  0.20355243778E+03  0.20739425009E+03  0.00000000000E+00 0. -1.
        -13    1    3    3    0    0 -0.16436456690E+02  0.23631921588E+02  0.20662725904E+02  0.35434066494E+02  0.00000000000E+00 0.  1.
         22    1    1    2    0    0 -0.33244083196E+01  0.10839635658E+02  0.25077509538E+02  0.27521462107E+02  0.00000000000E+00 0. -1.
<mgrwt>
<rscale>  0 0.55058608E+02</rscale>
<asrwt>0</asrwt>
<pdfrwt beam="1">  1        1 0.39972491E-01 0.93237073E+02</pdfrwt>
<pdfrwt beam="2">  1       -1 0.16197775E-02 0.93237073E+02</pdfrwt>
<totfact> 0.84671607E+04</totfact>
</mgrwt>
</event>
<event>
 6    1  0.2995420E-002  0.9150670E+02  0.7546771E-02  0.1403945E+00
          2   -1    0    0  501    0  0.00000000000E+00  0.00000000000E+00  0.46821409978E+02  0.46821409978E+02  0.00000000000E+00 0.  1.
         -2   -1    0    0    0  501 -0.00000000000E+00 -0.00000000000E+00 -0.61887165940E+02  0.61887165940E+02  0.00000000000E+00 0. -1.
         23    2    1    2    0    0  0.12602585719E+02  0.87728272315E+01 -0.17489537928E+02  0.93163081926E+02  0.90209136082E+02 0.  0.
         13    1    3    3    0    0  0.64376560614E+01 -0.20390514378E+02 -0.46741136467E+02  0.51399905938E+02  0.00000000000E+00 0. -1.
        -13    1    3    3    0    0  0.61649296572E+01  0.29163341610E+02  0.29251598539E+02  0.41763175988E+02  0.00000000000E+00 0.  1.
         22    1    1    2    0    0 -0.12602585719E+02 -0.87728272315E+01  0.24237819662E+01  0.15545493992E+02  0.00000000000E+00 0.  1.
<mgrwt>
<rscale>  0 0.58567246E+02</rscale>
<asrwt>0</asrwt>
<pdfrwt beam="1">  1        2 0.72032939E-02 0.91506699E+02</pdfrwt>
<pdfrwt beam="2">  1       -2 0.95211024E-02 0.91506699E+02</pdfrwt>
<totfact> 0.59791818E+04</totfact>
</mgrwt>
</event>
<event>
 6    1  0.2995420E-002  0.9757552E+02  0.7546771E-02  0.1338166E+00
         -2   -1    0    0    0  501 -0.00000000000E+00  0.00000000000E+00  0.23429449305E+03  0.23429449305E+03  0.00000000000E+00 0.  1.
          2   -1    0    0  501    0  0.00000000000E+00 -0.00000000000E+00 -0.20598061175E+02  0.20598061175E+02  0.00000000000E+00 0. -1.
         23    2    1    2    0    0  0.27006730717E+02  0.26147795908E+02  0.17833242689E+03  0.20328166794E+03  0.90043940957E+02 0.  0.
         11    1    3    3    0    0 -0.78055199982E+01  0.33516749594E+02  0.17591415451E+02  0.38649146735E+02  0.00000000000E+00 0. -1.
        -11    1    3    3    0    0  0.34812250715E+02 -0.73689536857E+01  0.16074101144E+03  0.16463252120E+03  0.00000000000E+00 0.  1.
         22    1    1    2    0    0 -0.27006730717E+02 -0.26147795908E+02  0.35364004982E+02  0.51610886286E+02  0.00000000000E+00 0. -1.
<mgrwt>
<rscale>  0 0.76873409E+02</rscale>
<asrwt>0</asrwt>
<pdfrwt beam="1">  1        2 0.31689326E-02 0.97575520E+02</pdfrwt>
<pdfrwt beam="2">  1       -2 0.36045305E-01 0.97575520E+02</pdfrwt>
<totfact> 0.18818333E+04</totfact>
</mgrwt>
</event>
<event>
 6    1  0.2995420E-002  0.1030099E+03  0.7546771E-02  0.1380977E+00
         -2   -1    0    0    0  501 -0.00000000000E+00  0.00000000000E+00  0.82077444578E+01  0.82077444578E+01  0.00000000000E+00 0.  1.
          2   -1    0    0  501    0  0.00000000000E+00 -0.00000000000E+00 -0.42823259854E+03  0.42823259854E+03  0.00000000000E+00 0. -1.
         23    2    1    2    0    0  0.14701938395E+02 -0.50627074167E+01 -0.36274243911E+03  0.37708503099E+03  0.10182959031E+03 0.  0.
         11    1    3    3    0    0 -0.68676136755E+01  0.19265054969E+02 -0.98550661152E+01  0.22703056813E+02  0.00000000000E+00 0.  1.
        -11    1    3    3    0    0  0.21569552071E+02 -0.24327762385E+02 -0.35288737300E+03  0.35438197418E+03  0.00000000000E+00 0. -1.
         22    1    1    2    0    0 -0.14701938395E+02  0.50627074167E+01 -0.57282414965E+02  0.59355312005E+02  0.00000000000E+00 0.  1.
<mgrwt>
<rscale>  0 0.64207592E+02</rscale>
<asrwt>0</asrwt>
<pdfrwt beam="1">  1        2 0.65881965E-01 0.10300992E+03</pdfrwt>
<pdfrwt beam="2">  1       -2 0.12627294E-02 0.10300992E+03</pdfrwt>
<totfact> 0.98931390E+04</totfact>
</mgrwt>
</event>
<event>
 6    1  0.2995420E-002  0.9158915E+02  0.7546771E-02  0.1423712E+00
         -2   -1    0    0    0  501 -0.00000000000E+00  0.00000000000E+00  0.75934814564E+01  0.75934814564E+01  0.00000000000E+00 0.  1.
          2   -1    0    0  501    0  0.00000000000E+00 -0.00000000000E+00 -0.35024146405E+03  0.35024146405E+03  0.00000000000E+00 0. -1.
         23    2    1    2    0    0 -0.81030046486E+01  0.78302300078E+01 -0.31270308150E+03  0.32584012893E+03  0.90893350993E+02 0.  0.
         11    1    3    3    0    0  0.30933397362E+02 -0.23728732603E+02 -0.10090267176E+03  0.10817244100E+03  0.00000000000E+00 0.  1.
        -11    1    3    3    0    0 -0.39036402010E+02  0.31558962611E+02 -0.21180040974E+03  0.21766768793E+03  0.00000000000E+00 0. -1.
         22    1    1    2    0    0  0.81030046486E+01 -0.78302300078E+01 -0.29944901095E+02  0.31994816578E+02  0.00000000000E+00 0. -1.
<mgrwt>
<rscale>  0 0.54243308E+02</rscale>
<asrwt>0</asrwt>
<pdfrwt beam="1">  1        2 0.53883299E-01 0.91589150E+02</pdfrwt>
<pdfrwt beam="2">  1       -2 0.11682280E-02 0.91589150E+02</pdfrwt>
<totfact> 0.13425159E+05</totfact>
</mgrwt>
</event>
<event>
 6    1  0.2995420E-002  0.9311755E+02  0.7546771E-02  0.1404926E+00
         -2   -1    0    0    0  501 -0.00000000000E+00  0.00000000000E+00  0.29524951329E+01  0.29524951329E+01  0.00000000000E+00 0. -1.
          2   -1    0    0  501    0  0.00000000000E+00 -0.00000000000E+00 -0.10286619202E+04  0.10286619202E+04  0.00000000000E+00 0.  1.
         23    2    1    2    0    0 -0.11089007890E+02  0.91062990066E+01 -0.95035395158E+03  0.95490497549E+03  0.92005370184E+02 0.  0.
         13    1    3    3    0    0 -0.23417459420E+02  0.81398718043E+01 -0.66603431798E+02  0.71067939649E+02  0.00000000000E+00 0. -1.
        -13    1    3    3    0    0  0.12328451530E+02  0.96642720225E+00 -0.88375051978E+03  0.88383703584E+03  0.00000000000E+00 0.  1.
         22    1    1    2    0    0  0.11089007890E+02 -0.91062990066E+01 -0.75355473522E+02  0.76709439883E+02  0.00000000000E+00 0. -1.
<mgrwt>
<rscale>  0 0.58341593E+02</rscale>
<asrwt>0</asrwt>
<pdfrwt beam="1">  1        2 0.15825582E+00 0.93117554E+02</pdfrwt>
<pdfrwt beam="2">  1       -2 0.45422961E-03 0.93117554E+02</pdfrwt>
<totfact> 0.14776769E+05</totfact>
</mgrwt>
</event>
<event>
 6    1  0.2995420E-002  0.1152614E+03  0.7546771E-02  0.1293935E+00
          2   -1    0    0  501    0  0.00000000000E+00  0.00000000000E+00  0.51149702420E+03  0.51149702420E+03  0.00000000000E+00 0. -1.
         -2   -1    0    0    0  501 -0.00000000000E+00 -0.00000000000E+00 -0.16358441849E+02  0.16358441849E+02  0.00000000000E+00 0.  1.
         23    2    1    2    0    0  0.29592215343E+02  0.40949667556E+02  0.43134148674E+03  0.44647583782E+03  0.10359836434E+03 0.  0.
         11    1    3    3    0    0  0.30762214770E+02  0.23164161937E+01  0.29187307865E+02  0.42468559923E+02  0.00000000000E+00 0.  1.
        -11    1    3    3    0    0 -0.11699994269E+01  0.38633251363E+02  0.40215417887E+03  0.40400727790E+03  0.00000000000E+00 0. -1.
         22    1    1    2    0    0 -0.29592215343E+02 -0.40949667556E+02  0.63797095614E+02  0.81379628229E+02  0.00000000000E+00 0. -1.
<mgrwt>
<rscale>  0 0.93785411E+02</rscale>
<asrwt>0</asrwt>
<pdfrwt beam="1">  1        2 0.78691838E-01 0.11526142E+03</pdfrwt>
<pdfrwt beam="2">  1       -2 0.25166837E-02 0.11526142E+03</pdfrwt>
<totfact> 0.30674671E+04</totfact>
</mgrwt>
</event>
<event>
 6    1  0.2995420E-002  0.1002373E+03  0.7546771E-02  0.1321604E+00
         -2   -1    0    0    0  501 -0.00000000000E+00  0.00000000000E+00  0.33081883876E+02  0.33081883876E+02  0.00000000000E+00 0.  1.
          2   -1    0    0  501    0  0.00000000000E+00 -0.00000000000E+00 -0.51218617555E+03  0.51218617555E+03  0.00000000000E+00 0. -1.
         23    2    1    2    0    0  0.35443591133E+02 -0.29956518002E+02 -0.48785216055E+03  0.49804342249E+03  0.88847504249E+02 0.  0.
         11    1    3    3    0    0  0.14813685681E+02 -0.60406311389E+02 -0.34308491858E+03  0.34867696956E+03  0.00000000000E+00 0. -1.
        -11    1    3    3    0    0  0.20629905452E+02  0.30449793387E+02 -0.14476724196E+03  0.14936645293E+03  0.00000000000E+00 0.  1.
         22    1    1    2    0    0 -0.35443591133E+02  0.29956518002E+02  0.87478688804E+01  0.47224636930E+02  0.00000000000E+00 0.  1.
<mgrwt>
<rscale>  0 0.82683480E+02</rscale>
<asrwt>0</asrwt>
<pdfrwt beam="1">  1        2 0.78797859E-01 0.10023732E+03</pdfrwt>
<pdfrwt beam="2">  1       -2 0.50895215E-02 0.10023732E+03</pdfrwt>
<totfact> 0.10731711E+04</totfact>
</mgrwt>
</event>
<event>
 6    1  0.2995420E-002  0.9226923E+02  0.7546771E-02  0.1398556E+00
         -2   -1    0    0    0  501 -0.00000000000E+00  0.00000000000E+00  0.32579392081E+01  0.32579392081E+01  0.00000000000E+00 0.  1.
          2   -1    0    0  501    0  0.00000000000E+00 -0.00000000000E+00 -0.98665774214E+03  0.98665774214E+03  0.00000000000E+00 0. -1.
         23    2    1    2    0    0  0.14192446904E+02  0.80358461347E+01 -0.91303679091E+03  0.91768719781E+03  0.90816359276E+02 0.  0.
         13    1    3    3    0    0  0.50682140134E+02  0.16826719867E+02 -0.45733862957E+03  0.46044591422E+03  0.00000000000E+00 0.  1.
        -13    1    3    3    0    0 -0.36489693229E+02 -0.87908737320E+01 -0.45569816134E+03  0.45724128359E+03  0.00000000000E+00 0. -1.
         22    1    1    2    0    0 -0.14192446904E+02 -0.80358461347E+01 -0.70363012027E+02  0.72228483535E+02  0.00000000000E+00 0.  1.
<mgrwt>
<rscale>  0 0.59827791E+02</rscale>
<asrwt>0</asrwt>
<pdfrwt beam="1">  1        2 0.15179344E+00 0.92269234E+02</pdfrwt>
<pdfrwt beam="2">  1       -2 0.50122162E-03 0.92269234E+02</pdfrwt>
<totfact> 0.13604674E+05</totfact>
</mgrwt>
</event>
<event>
 6    1  0.2995420E-002  0.9276879E+02  0.7546771E-02  0.1393333E+00
         -2   -1    0    0    0  501 -0.00000000000E+00  0.00000000000E+00  0.29516150101E+02  0.29516150101E+02  0.00000000000E+00 0.  1.
          2   -1    0    0  501    0  0.00000000000E+00 -0.00000000000E+00 -0.10625230343E+03  0.10625230343E+03  0.00000000000E+00 0. -1.
         23    2    1    2    0    0 -0.11760587461E+01  0.17400107130E+02 -0.72715746055E+02  0.11787123260E+03  0.91114767783E+02 0.  0.
         11    1    3    3    0    0 -0.18642933418E+01  0.27106517015E+02 -0.92184960349E+02  0.96105701022E+02  0.00000000000E+00 0. -1.
        -11    1    3    3    0    0  0.68823459579E+00 -0.97064098856E+01  0.19469214293E+02  0.21765531579E+02  0.00000000000E+00 0.  1.
         22    1    1    2    0    0  0.11760587461E+01 -0.17400107130E+02 -0.40204072700E+01  0.17897220927E+02  0.00000000000E+00 0. -1.
<mgrwt>
<rscale>  0 0.61085315E+02</rscale>
<asrwt>0</asrwt>
<pdfrwt beam="1">  1        2 0.16346508E-01 0.92768787E+02</pdfrwt>
<pdfrwt beam="2">  1       -2 0.45409462E-02 0.92768787E+02</pdfrwt>
<totfact> 0.68545670E+04</totfact>
</mgrwt>
</event>
<event>
 6    1  0.2995420E-002  0.9005024E+02  0.7546771E-02  0.1380529E+00
          1   -1    0    0  501    0  0.00000000000E+00  0.00000000000E+00  0.50786595838E+02  0.50786595838E+02  0.00000000000E+00 0. -1.
         -1   -1    0    0    0  501 -0.00000000000E+00 -0.00000000000E+00 -0.67705479784E+02  0.67705479784E+02  0.00000000000E+00 0.  1.
         23    2    1    2    0    0 -0.23438702341E+02  0.56501927004E+00 -0.82442555801E+00  0.90054009495E+02  0.86944539417E+02 0.  0.
         13    1    3    3    0    0 -0.43182906526E+02 -0.79623354943E+01  0.29483331737E+02  0.52890727476E+02  0.00000000000E+00 0. -1.
        -13    1    3    3    0    0  0.19744204185E+02  0.85273547643E+01 -0.30307757295E+02  0.37163282019E+02  0.00000000000E+00 0.  1.
         22    1    1    2    0    0  0.23438702341E+02 -0.56501927004E+00 -0.16094458388E+02  0.28438066126E+02  0.00000000000E+00 0.  1.
<mgrwt>
<rscale>  0 0.64324818E+02</rscale>
<asrwt>0</asrwt>
<pdfrwt beam="1">  1        1 0.78133224E-02 0.90050236E+02</pdfrwt>
<pdfrwt beam="2">  1       -1 0.10416228E-01 0.90050236E+02</pdfrwt>
<totfact> 0.44221082E+04</totfact>
</mgrwt>
</event>
<event>
 6    1  0.2995420E-002  0.9222930E+02  0.7546771E-02  0.1399217E+00
         -2   -1    0    0    0  501 -0.00000000000E+00  0.00000000000E+00  0.84385945077E+01  0.84385945077E+01  0.00000000000E+00 0.  1.
          2   -1    0    0  501    0  0.00000000000E+00 -0.00000000000E+00 -0.50739722489E+03  0.50739722489E+03  0.00000000000E+00 0. -1.
         23    2    1    2    0    0 -0.14964337866E+02 -0.61011647662E+01 -0.48719343977E+03  0.49584643898E+03  0.90802465135E+02 0.  0.
         13    1    3    3    0    0  0.11605995058E+02 -0.46982145159E+01 -0.44968410767E+03  0.44985838775E+03  0.00000000000E+00 0. -1.
        -13    1    3    3    0    0 -0.26570332924E+02 -0.14029502503E+01 -0.37509332104E+02  0.45988051230E+02  0.00000000000E+00 0.  1.
         22    1    1    2    0    0  0.14964337866E+02  0.61011647662E+01 -0.11765190607E+02  0.19989380413E+02  0.00000000000E+00 0.  1.
<mgrwt>
<rscale>  0 0.59671107E+02</rscale>
<asrwt>0</asrwt>
<pdfrwt beam="1">  1        2 0.78061121E-01 0.92229297E+02</pdfrwt>
<pdfrwt beam="2">  1       -2 0.12982451E-02 0.92229297E+02</pdfrwt>
<totfact> 0.78067932E+04</totfact>
</mgrwt>
</event>
<event>
 6    1  0.2995420E-002  0.8867936E+02  0.7546771E-02  0.1421078E+00
          1   -1    0    0  501    0  0.00000000000E+00  0.00000000000E+00  0.70456865681E+03  0.70456865681E+03  0.00000000000E+00 0. -1.
         -1   -1    0    0    0  501 -0.00000000000E+00 -0.00000000000E+00 -0.38934486307E+01  0.38934486307E+01  0.00000000000E+00 0.  1.
         23    2    1    2    0    0  0.12910004180E+02 -0.63217917939E+00  0.65559647180E+03  0.66156689959E+03  0.87732325484E+02 0.  0.
         11    1    3    3    0    0  0.36824261726E+02 -0.26708618803E+02  0.22704701204E+03  0.23155932771E+03  0.00000000000E+00 0.  1.
        -11    1    3    3    0    0 -0.23914257546E+02  0.26076439623E+02  0.42854945975E+03  0.43000757188E+03  0.00000000000E+00 0. -1.
         22    1    1    2    0    0 -0.12910004180E+02  0.63217917939E+00  0.45078736381E+02  0.46895205854E+02  0.00000000000E+00 0. -1.
<mgrwt>
<rscale>  0 0.54793435E+02</rscale>
<asrwt>0</asrwt>
<pdfrwt beam="1">  1        1 0.10839508E+00 0.88679359E+02</pdfrwt>
<pdfrwt beam="2">  1       -1 0.59899266E-03 0.88679359E+02</pdfrwt>
<totfact> 0.96023268E+04</totfact>
</mgrwt>
</event>
<event>
 6    1  0.2995420E-002  0.9444846E+02  0.7546771E-02  0.1390630E+00
         -1   -1    0    0    0  501 -0.00000000000E+00  0.00000000000E+00  0.35215121394E+02  0.35215121394E+02  0.00000000000E+00 0.  1.
          1   -1    0    0  501    0  0.00000000000E+00 -0.00000000000E+00 -0.26583646446E+03  0.26583646446E+03  0.00000000000E+00 0. -1.
         23    2    1    2    0    0 -0.16744159640E+02  0.41767512474E+01 -0.25457393947E+03  0.27152974635E+03  0.92858496433E+02 0.  0.
         13    1    3    3    0    0  0.11905671400E+02  0.26958346968E+02 -0.21729675829E+03  0.21928606578E+03  0.00000000000E+00 0. -1.
        -13    1    3    3    0    0 -0.28649831041E+02 -0.22781595720E+02 -0.37277181186E+02  0.52243680569E+02  0.00000000000E+00 0.  1.
         22    1    1    2    0    0  0.16744159640E+02 -0.41767512474E+01  0.23952596409E+02  0.29521839505E+02  0.00000000000E+00 0.  1.
<mgrwt>
<rscale>  0 0.61750286E+02</rscale>
<asrwt>0</asrwt>
<pdfrwt beam="1">  1        1 0.40897917E-01 0.94448465E+02</pdfrwt>
<pdfrwt beam="2">  1       -1 0.54177110E-02 0.94448465E+02</pdfrwt>
<totfact> 0.14448190E+04</totfact>
</mgrwt>
</event>
<event>
 6    1  0.2995420E-002  0.6836162E+02  0.7546771E-02  0.1472744E+00
          1   -1    0    0  501    0  0.00000000000E+00  0.00000000000E+00  0.30808200917E+03  0.30808200917E+03  0.00000000000E+00 0. -1.
         -1   -1    0    0    0  501 -0.00000000000E+00 -0.00000000000E+00 -0.67769509462E+01  0.67769509462E+01  0.00000000000E+00 0.  1.
         23    2    1    2    0    0 -0.45761229537E+01 -0.12307945306E+02  0.28860543847E+03  0.29659131766E+03  0.67088629287E+02 0.  0.
         13    1    3    3    0    0  0.74297475424E+00 -0.28076655944E+02  0.27067453613E+03  0.27212782866E+03  0.00000000000E+00 0. -1.
        -13    1    3    3    0    0 -0.53190977079E+01  0.15768710638E+02  0.17930902341E+02  0.24463489006E+02  0.00000000000E+00 0.  1.
         22    1    1    2    0    0  0.45761229537E+01  0.12307945306E+02  0.12699619757E+02  0.18267642456E+02  0.00000000000E+00 0.  1.
<mgrwt>
<rscale>  0 0.45256891E+02</rscale>
<asrwt>0</asrwt>
<pdfrwt beam="1">  1        1 0.47397221E-01 0.68361616E+02</pdfrwt>
<pdfrwt beam="2">  1       -1 0.10426081E-02 0.68361616E+02</pdfrwt>
<totfact> 0.12197128E+05</totfact>
</mgrwt>
</event>
<event>
 6    1  0.2995420E-002  0.9223499E+02  0.7546771E-02  0.1424271E+00
          2   -1    0    0  501    0  0.00000000000E+00  0.00000000000E+00  0.84376000442E+03  0.84376000442E+03  0.00000000000E+00 0. -1.
         -2   -1    0    0    0  501 -0.00000000000E+00 -0.00000000000E+00 -0.14263974386E+02  0.14263974386E+02  0.00000000000E+00 0.  1.
         23    2    1    2    0    0  0.10850578889E+02  0.13886191537E+01  0.83868258306E+03  0.84373915883E+03  0.91584003415E+02 0.  0.
         11    1    3    3    0    0 -0.21828450446E+02  0.35106338075E+02  0.51666295951E+03  0.51831414215E+03  0.00000000000E+00 0. -1.
        -11    1    3    3    0    0  0.32679029335E+02 -0.33717718922E+02  0.32201962355E+03  0.32542501668E+03  0.00000000000E+00 0.  1.
         22    1    1    2    0    0 -0.10850578889E+02 -0.13886191537E+01 -0.91865530261E+01  0.14284819981E+02  0.00000000000E+00 0.  1.
<mgrwt>
<rscale>  0 0.54127367E+02</rscale>
<asrwt>0</asrwt>
<pdfrwt beam="1">  1        2 0.12980919E+00 0.92234988E+02</pdfrwt>
<pdfrwt beam="2">  1       -2 0.21944583E-02 0.92234988E+02</pdfrwt>
<totfact> 0.20503451E+04</totfact>
</mgrwt>
</event>
<event>
 6    1  0.2995420E-002  0.9109447E+02  0.7546771E-02  0.1397014E+00
         -2   -1    0    0    0  501 -0.00000000000E+00  0.00000000000E+00  0.26536176866E+02  0.26536176866E+02  0.00000000000E+00 0.  1.
          2   -1    0    0  501    0  0.00000000000E+00 -0.00000000000E+00 -0.16055900793E+03  0.16055900793E+03  0.00000000000E+00 0. -1.
         23    2    1    2    0    0 -0.11024105727E+01 -0.17334051034E+02 -0.14141756536E+03  0.16821750672E+03  0.89423247212E+02 0.  0.
         11    1    3    3    0    0  0.25061463425E+01 -0.25124005063E+02 -0.15228736112E+03  0.15436624228E+03  0.00000000000E+00 0. -1.
        -11    1    3    3    0    0 -0.36085569152E+01  0.77899540294E+01  0.10869795759E+02  0.13851264442E+02  0.00000000000E+00 0.  1.
         22    1    1    2    0    0  0.11024105727E+01  0.17334051034E+02  0.73947342914E+01  0.18877678076E+02  0.00000000000E+00 0.  1.
<mgrwt>
<rscale>  0 0.60195378E+02</rscale>
<asrwt>0</asrwt>
<pdfrwt beam="1">  1        2 0.24701387E-01 0.91094466E+02</pdfrwt>
<pdfrwt beam="2">  1       -2 0.40824886E-02 0.91094466E+02</pdfrwt>
<totfact> 0.50443120E+04</totfact>
</mgrwt>
</event>
<event>
 6    1  0.2995420E-002  0.9168031E+02  0.7546771E-02  0.1403093E+00
         -1   -1    0    0    0  501 -0.00000000000E+00  0.00000000000E+00  0.51309834183E+01  0.51309834183E+01  0.00000000000E+00 0.  1.
          1   -1    0    0  501    0  0.00000000000E+00 -0.00000000000E+00 -0.64052813281E+03  0.64052813281E+03  0.00000000000E+00 0. -1.
         23    2    1    2    0    0 -0.98646609460E+01  0.11922575305E+02 -0.60085457488E+03  0.60780876892E+03  0.90364927291E+02 0.  0.
         13    1    3    3    0    0 -0.34329004840E+02 -0.78726497371E+01 -0.10100420520E+03  0.10696872747E+03  0.00000000000E+00 0. -1.
        -13    1    3    3    0    0  0.24464343894E+02  0.19795225042E+02 -0.49985036968E+03  0.50084004145E+03  0.00000000000E+00 0.  1.
         22    1    1    2    0    0  0.98646609460E+01 -0.11922575305E+02 -0.34542574515E+02  0.37850347312E+02  0.00000000000E+00 0.  1.
<mgrwt>
<rscale>  0 0.58763957E+02</rscale>
<asrwt>0</asrwt>
<pdfrwt beam="1">  1        1 0.98542779E-01 0.91680311E+02</pdfrwt>
<pdfrwt beam="2">  1       -1 0.78938215E-03 0.91680311E+02</pdfrwt>
<totfact> 0.74734091E+04</totfact>
</mgrwt>
</event>
<event>
 6    1  0.2995420E-002  0.9141062E+02  0.7546771E-02  0.1419249E+00
          2   -1    0    0  501    0  0.00000000000E+00  0.00000000000E+00  0.13516633823E+03  0.13516633823E+03  0.00000000000E+00 0. -1.
         -2   -1    0    0    0  501 -0.00000000000E+00 -0.00000000000E+00 -0.20700852914E+02  0.20700852914E+02  0.00000000000E+00 0.  1.
         23    2    1    2    0    0  0.68164270725E+01 -0.10043157313E+02  0.10978326856E+03  0.14285750858E+03  0.90601175568E+02 0.  0.
         11    1    3    3    0    0  0.36282841266E+01  0.39218575601E+01  0.12314966571E+03  0.12326550846E+03  0.00000000000E+00 0. -1.
        -11    1    3    3    0    0  0.31881429459E+01 -0.13965014873E+02 -0.13366397147E+02  0.19592000116E+02  0.00000000000E+00 0.  1.
         22    1    1    2    0    0 -0.68164270725E+01  0.10043157313E+02  0.46822167615E+01  0.13009682573E+02  0.00000000000E+00 0.  1.
<mgrwt>
<rscale>  0 0.55180218E+02</rscale>
<asrwt>0</asrwt>
<pdfrwt beam="1">  1        2 0.20794821E-01 0.91410621E+02</pdfrwt>
<pdfrwt beam="2">  1       -2 0.31847467E-02 0.91410621E+02</pdfrwt>
<totfact> 0.87752446E+04</totfact>
</mgrwt>
</event>
<event>
 6    1  0.2995420E-002  0.1122845E+03  0.7546771E-02  0.1321670E+00
         -1   -1    0    0    0  501 -0.00000000000E+00  0.00000000000E+00  0.83796585801E+01  0.83796585801E+01  0.00000000000E+00 0.  1.
          1   -1    0    0  501    0  0.00000000000E+00 -0.00000000000E+00 -0.93470103159E+03  0.93470103159E+03  0.00000000000E+00 0. -1.
         23    2    1    2    0    0  0.81654395828E+01  0.31949640710E+02 -0.87434829163E+03  0.88152863794E+03  0.10733289568E+03 0.  0.
         13    1    3    3    0    0  0.53925002159E+02  0.25526767550E+02 -0.34077715068E+03  0.34596038522E+03  0.00000000000E+00 0.  1.
        -13    1    3    3    0    0 -0.45759562576E+02  0.64228731598E+01 -0.53357114095E+03  0.53556825272E+03  0.00000000000E+00 0. -1.
         22    1    1    2    0    0 -0.81654395828E+01 -0.31949640710E+02 -0.51973081383E+02  0.61552052228E+02  0.00000000000E+00 0.  1.
<mgrwt>
<rscale>  0 0.82659192E+02</rscale>
<asrwt>0</asrwt>
<pdfrwt beam="1">  1        1 0.14380009E+00 0.11228448E+03</pdfrwt>
<pdfrwt beam="2">  1       -1 0.12891789E-02 0.11228448E+03</pdfrwt>
<totfact> 0.21857402E+04</totfact>
</mgrwt>
</event>
<event>
 6    1  0.2995420E-002  0.8090448E+02  0.7546771E-02  0.1431187E+00
         -2   -1    0    0    0  501 -0.00000000000E+00  0.00000000000E+00  0.23578900995E+01  0.23578900995E+01  0.00000000000E+00 0.  1.
          2   -1    0    0  501    0  0.00000000000E+00 -0.00000000000E+00 -0.19890396795E+04  0.19890396795E+04  0.00000000000E+00 0. -1.
         23    2    1    2    0    0  0.24490738988E+01 -0.14383224424E+02 -0.19532003202E+04  0.19548751944E+04  0.79578011297E+02 0.  0.
         11    1    3    3    0    0  0.84922695815E+01  0.29803897817E+02 -0.11666208694E+04  0.11670324091E+04  0.00000000000E+00 0. -1.
        -11    1    3    3    0    0 -0.60431956828E+01 -0.44187122241E+02 -0.78657945083E+03  0.78784278537E+03  0.00000000000E+00 0.  1.
         22    1    1    2    0    0 -0.24490738988E+01  0.14383224424E+02 -0.33481469202E+02  0.36522375166E+02  0.00000000000E+00 0.  1.
<mgrwt>
<rscale>  0 0.52722384E+02</rscale>
<asrwt>0</asrwt>
<pdfrwt beam="1">  1        2 0.30600596E+00 0.80904481E+02</pdfrwt>
<pdfrwt beam="2">  1       -2 0.36275250E-03 0.80904481E+02</pdfrwt>
<totfact> 0.63161597E+04</totfact>
</mgrwt>
</event>
<event>
 6    1  0.2995420E-002  0.9164406E+02  0.7546771E-02  0.1428481E+00
         -2   -1    0    0    0  501 -0.00000000000E+00  0.00000000000E+00  0.77687470916E+02  0.77687470916E+02  0.00000000000E+00 0. -1.
          2   -1    0    0  501    0  0.00000000000E+00 -0.00000000000E+00 -0.66855703296E+02  0.66855703296E+02  0.00000000000E+00 0.  1.
         23    2    1    2    0    0  0.15456326693E+01 -0.10344190422E+02 -0.34573574975E+02  0.97948792661E+02  0.91045277974E+02 0.  0.
         13    1    3    3    0    0 -0.26084302361E+01  0.36200937030E+02 -0.36103667732E+02  0.51193618488E+02  0.00000000000E+00 0. -1.
        -13    1    3    3    0    0  0.41540629054E+01 -0.46545127452E+02  0.15300927569E+01  0.46755174174E+02  0.00000000000E+00 0.  1.
         22    1    1    2    0    0 -0.15456326693E+01  0.10344190422E+02  0.45405342596E+02  0.46594381550E+02  0.00000000000E+00 0. -1.
<mgrwt>
<rscale>  0 0.53266121E+02</rscale>
<asrwt>0</asrwt>
<pdfrwt beam="1">  1        2 0.10285493E-01 0.91644061E+02</pdfrwt>
<pdfrwt beam="2">  1       -2 0.11951919E-01 0.91644061E+02</pdfrwt>
<totfact> 0.27028106E+04</totfact>
</mgrwt>
</event>
<event>
 6    1  0.2995420E-002  0.9177212E+02  0.7546771E-02  0.1417120E+00
          2   -1    0    0  501    0  0.00000000000E+00  0.00000000000E+00  0.36033600436E+03  0.36033600436E+03  0.00000000000E+00 0. -1.
         -2   -1    0    0    0  501 -0.00000000000E+00 -0.00000000000E+00 -0.12792834807E+02  0.12792834807E+02  0.00000000000E+00 0.  1.
         23    2    1    2    0    0  0.37208435810E+01  0.11823621728E+02  0.34879908637E+03  0.36067010590E+03  0.90931182360E+02 0.  0.
         13    1    3    3    0    0 -0.27642325705E+02  0.34659074878E+02  0.26019647781E+03  0.26394612463E+03  0.00000000000E+00 0. -1.
        -13    1    3    3    0    0  0.31363169286E+02 -0.22835453150E+02  0.88602608562E+02  0.96723981268E+02  0.00000000000E+00 0.  1.
         22    1    1    2    0    0 -0.37208435810E+01 -0.11823621728E+02 -0.12559168170E+01  0.12458733273E+02  0.00000000000E+00 0.  1.
<mgrwt>
<rscale>  0 0.55634870E+02</rscale>
<asrwt>0</asrwt>
<pdfrwt beam="1">  1        2 0.55436301E-01 0.91772123E+02</pdfrwt>
<pdfrwt beam="2">  1       -2 0.19681287E-02 0.91772123E+02</pdfrwt>
<totfact> 0.61910270E+04</totfact>
</mgrwt>
</event>
<event>
 6    1  0.2995420E-002  0.9374870E+02  0.7546771E-02  0.1416934E+00
         -2   -1    0    0    0  501 -0.00000000000E+00  0.00000000000E+00  0.11699719817E+03  0.11699719817E+03  0.00000000000E+00 0. -1.
          2   -1    0    0  501    0  0.00000000000E+00 -0.00000000000E+00 -0.26316947495E+02  0.26316947495E+02  0.00000000000E+00 0.  1.
         23    2    1    2    0    0 -0.10572433412E+02  0.49198471233E+01  0.62112071996E+02  0.11245767022E+03  0.93020625988E+02 0.  0.
         13    1    3    3    0    0  0.50696710208E+01  0.13083404848E+02  0.83534363403E+02  0.84704586156E+02  0.00000000000E+00 0. -1.
        -13    1    3    3    0    0 -0.15642104433E+02 -0.81635577249E+01 -0.21422291407E+02  0.27753084062E+02  0.00000000000E+00 0.  1.
         22    1    1    2    0    0  0.10572433412E+02 -0.49198471233E+01  0.28568178679E+02  0.30856475447E+02  0.00000000000E+00 0.  1.
<mgrwt>
<rscale>  0 0.55674818E+02</rscale>
<asrwt>0</asrwt>
<pdfrwt beam="1">  1        2 0.40487612E-02 0.93748697E+02</pdfrwt>
<pdfrwt beam="2">  1       -2 0.17999569E-01 0.93748697E+02</pdfrwt>
<totfact> 0.45413729E+04</totfact>
</mgrwt>
</event>
<event>
 6    1  0.2995420E-002  0.9209075E+02  0.7546771E-02  0.1391595E+00
         -2   -1    0    0    0  501 -0.00000000000E+00  0.00000000000E+00  0.54677925382E+01  0.54677925382E+01  0.00000000000E+00 0.  1.
          2   -1    0    0  501    0  0.00000000000E+00 -0.00000000000E+00 -0.70524778278E+03  0.70524778278E+03  0.00000000000E+00 0. -1.
         23    2    1    2    0    0 -0.95482270800E+01  0.15647815519E+02 -0.66550659989E+03  0.67184800455E+03  0.90247902773E+02 0.  0.
         13    1    3    3    0    0 -0.34680960252E+02 -0.25775452950E+02 -0.34623368932E+03  0.34891963344E+03  0.00000000000E+00 0.  1.
        -13    1    3    3    0    0  0.25132733172E+02  0.41423268469E+02 -0.31927291056E+03  0.32292837111E+03  0.00000000000E+00 0. -1.
         22    1    1    2    0    0  0.95482270800E+01 -0.15647815519E+02 -0.34273390348E+02  0.38867570760E+02  0.00000000000E+00 0.  1.
<mgrwt>
<rscale>  0 0.61511753E+02</rscale>
<asrwt>0</asrwt>
<pdfrwt beam="1">  1        2 0.10849960E+00 0.92090753E+02</pdfrwt>
<pdfrwt beam="2">  1       -2 0.84119930E-03 0.92090753E+02</pdfrwt>
<totfact> 0.99789887E+04</totfact>
</mgrwt>
</event>
<event>
 6    1  0.2995420E-002  0.8631529E+02  0.7546771E-02  0.1425654E+00
          2   -1    0    0  501    0  0.00000000000E+00  0.00000000000E+00  0.86653291176E+03  0.86653291176E+03  0.00000000000E+00 0.  1.
         -2   -1    0    0    0  501 -0.00000000000E+00 -0.00000000000E+00 -0.29815928278E+01  0.29815928278E+01  0.00000000000E+00 0. -1.
         23    2    1    2    0    0  0.33972070574E+01 -0.12619375537E+02  0.79933879617E+03  0.80398559696E+03  0.85320216891E+02 0.  0.
         11    1    3    3    0    0  0.18953028943E+02  0.30656394174E+02  0.23163532581E+03  0.23442260124E+03  0.00000000000E+00 0. -1.
        -11    1    3    3    0    0 -0.15555821886E+02 -0.43275769711E+02  0.56770347036E+03  0.56956299573E+03  0.00000000000E+00 0.  1.
         22    1    1    2    0    0 -0.33972070574E+01  0.12619375537E+02  0.64212522765E+02  0.65528907626E+02  0.00000000000E+00 0.  1.
<mgrwt>
<rscale>  0 0.53842286E+02</rscale>
<asrwt>0</asrwt>
<pdfrwt beam="1">  1        2 0.13331255E+00 0.86315289E+02</pdfrwt>
<pdfrwt beam="2">  1       -2 0.45870728E-03 0.86315289E+02</pdfrwt>
<totfact> 0.18054370E+05</totfact>
</mgrwt>
</event>
<event>
 6    1  0.2995420E-002  0.9429138E+02  0.7546771E-02  0.1381841E+00
          2   -1    0    0  501    0  0.00000000000E+00  0.00000000000E+00  0.98359041020E+03  0.98359041020E+03  0.00000000000E+00 0.  1.
         -2   -1    0    0    0  501 -0.00000000000E+00 -0.00000000000E+00 -0.36830279393E+01  0.36830279393E+01  0.00000000000E+00 0. -1.
         23    2    1    2    0    0  0.18723898826E+02  0.70027263262E+01  0.89907031255E+03  0.90400126751E+03  0.92147936347E+02 0.  0.
         13    1    3    3    0    0  0.26935785751E+02  0.40396445990E+02  0.29638022252E+03  0.30033089369E+03  0.00000000000E+00 0. -1.
        -13    1    3    3    0    0 -0.82118869248E+01 -0.33393719664E+02  0.60269009003E+03  0.60367037382E+03  0.00000000000E+00 0.  1.
         22    1    1    2    0    0 -0.18723898826E+02 -0.70027263262E+01  0.80837069707E+02  0.83272170633E+02  0.00000000000E+00 0. -1.
<mgrwt>
<rscale>  0 0.63982359E+02</rscale>
<asrwt>0</asrwt>
<pdfrwt beam="1">  1        2 0.15132139E+00 0.94291382E+02</pdfrwt>
<pdfrwt beam="2">  1       -2 0.56662047E-03 0.94291382E+02</pdfrwt>
<totfact> 0.11535148E+05</totfact>
</mgrwt>
</event>
<event>
 6    1  0.2995420E-002  0.9785780E+02  0.7546771E-02  0.1341933E+00
          2   -1    0    0  501    0  0.00000000000E+00  0.00000000000E+00  0.69900662388E+03  0.69900662388E+03  0.00000000000E+00 0. -1.
         -2   -1    0    0    0  501 -0.00000000000E+00 -0.00000000000E+00 -0.71307355274E+01  0.71307355274E+01  0.00000000000E+00 0.  1.
         23    2    1    2    0    0 -0.25460402197E+02  0.23887826381E+02  0.59851791036E+03  0.60646503435E+03  0.91418206760E+02 0.  0.
         11    1    3    3    0    0  0.65718676534E+01 -0.27774168797E+01  0.49245905311E+03  0.49251073337E+03  0.00000000000E+00 0. -1.
        -11    1    3    3    0    0 -0.32032269850E+02  0.26665243261E+02  0.10605885725E+03  0.11395430098E+03  0.00000000000E+00 0.  1.
         22    1    1    2    0    0  0.25460402197E+02 -0.23887826381E+02  0.93357977988E+02  0.99672325062E+02  0.00000000000E+00 0. -1.
<mgrwt>
<rscale>  0 0.75629430E+02</rscale>
<asrwt>0</asrwt>
<pdfrwt beam="1">  1        2 0.10753943E+00 0.97857799E+02</pdfrwt>
<pdfrwt beam="2">  1       -2 0.10970368E-02 0.97857799E+02</pdfrwt>
<totfact> 0.69779528E+04</totfact>
</mgrwt>
</event>
<event>
 6    1  0.2995420E-002  0.9372210E+02  0.7546771E-02  0.1373375E+00
          2   -1    0    0  501    0  0.00000000000E+00  0.00000000000E+00  0.10447876740E+04  0.10447876740E+04  0.00000000000E+00 0. -1.
         -2   -1    0    0    0  501 -0.00000000000E+00 -0.00000000000E+00 -0.17805941807E+02  0.17805941807E+02  0.00000000000E+00 0.  1.
         23    2    1    2    0    0 -0.20436603938E+02 -0.11362054271E+02  0.10339544227E+04  0.10381934217E+04  0.90758369355E+02 0.  0.
         13    1    3    3    0    0 -0.21158048221E+02 -0.17021861277E+02  0.10317019995E+04  0.10320593115E+04  0.00000000000E+00 0. -1.
        -13    1    3    3    0    0  0.72144428240E+00  0.56598070058E+01  0.22524231834E+01  0.61341101549E+01  0.00000000000E+00 0.  1.
         22    1    1    2    0    0  0.20436603938E+02  0.11362054271E+02 -0.69726905249E+01  0.24400194076E+02  0.00000000000E+00 0.  1.
<mgrwt>
<rscale>  0 0.66237697E+02</rscale>
<asrwt>0</asrwt>
<pdfrwt beam="1">  1        2 0.16073652E+00 0.93722103E+02</pdfrwt>
<pdfrwt beam="2">  1       -2 0.27393765E-02 0.93722103E+02</pdfrwt>
<totfact> 0.11255674E+04</totfact>
</mgrwt>
</event>
<event>
 6    1  0.2995420E-002  0.8988028E+02  0.7546771E-02  0.1413387E+00
          1   -1    0    0  501    0  0.00000000000E+00  0.00000000000E+00  0.10098812389E+04  0.10098812389E+04  0.00000000000E+00 0. -1.
         -1   -1    0    0    0  501 -0.00000000000E+00 -0.00000000000E+00 -0.31199558890E+01  0.31199558890E+01  0.00000000000E+00 0.  1.
         23    2    1    2    0    0  0.62982880605E+01 -0.12480726500E+02  0.95990778773E+03  0.96410654287E+03  0.88786418368E+02 0.  0.
         13    1    3    3    0    0  0.20074360234E+02 -0.47855145127E+02  0.54355482382E+03  0.54602650242E+03  0.00000000000E+00 0. -1.
        -13    1    3    3    0    0 -0.13776072173E+02  0.35374418627E+02  0.41635296391E+03  0.41808004044E+03  0.00000000000E+00 0.  1.
         22    1    1    2    0    0 -0.62982880605E+01  0.12480726500E+02  0.46853495254E+02  0.48894651895E+02  0.00000000000E+00 0.  1.
<mgrwt>
<rscale>  0 0.56444829E+02</rscale>
<asrwt>0</asrwt>
<pdfrwt beam="1">  1        1 0.15536608E+00 0.89880282E+02</pdfrwt>
<pdfrwt beam="2">  1       -1 0.47999402E-03 0.89880282E+02</pdfrwt>
<totfact> 0.75775476E+04</totfact>
</mgrwt>
</event>
<event>
 6    1  0.2995420E-002  0.1008396E+03  0.7546771E-02  0.1330834E+00
         -2   -1    0    0    0  501 -0.00000000000E+00  0.00000000000E+00  0.26401383497E+03  0.26401383497E+03  0.00000000000E+00 0.  1.
          2   -1    0    0  501    0  0.00000000000E+00 -0.00000000000E+00 -0.21443757239E+02  0.21443757239E+02  0.00000000000E+00 0. -1.
         23    2    1    2    0    0 -0.37872783599E+02 -0.80179090337E+01  0.21636502252E+03  0.23870997707E+03  0.93112811042E+02 0.  0.
         11    1    3    3    0    0 -0.24393828085E+02  0.31011236626E+02  0.17808820744E+03  0.18240659329E+03  0.00000000000E+00 0.  1.
        -11    1    3    3    0    0 -0.13478955514E+02 -0.39029145660E+02  0.38276815079E+02  0.56303383781E+02  0.00000000000E+00 0. -1.
         22    1    1    2    0    0  0.37872783599E+02  0.80179090337E+01  0.26205055220E+02  0.46747615146E+02  0.00000000000E+00 0. -1.
<mgrwt>
<rscale>  0 0.79375302E+02</rscale>
<asrwt>0</asrwt>
<pdfrwt beam="1">  1        2 0.32990398E-02 0.10083963E+03</pdfrwt>
<pdfrwt beam="2">  1       -2 0.40617511E-01 0.10083963E+03</pdfrwt>
<totfact> 0.14334818E+04</totfact>
</mgrwt>
</event>
<event>
 6    1  0.2995420E-002  0.6413328E+02  0.7546771E-02  0.1448202E+00
          2   -1    0    0  501    0  0.00000000000E+00  0.00000000000E+00  0.17164201809E+03  0.17164201809E+03  0.00000000000E+00 0.  1.
         -2   -1    0    0    0  501 -0.00000000000E+00 -0.00000000000E+00 -0.11078807747E+02  0.11078807747E+02  0.00000000000E+00 0. -1.
         23    2    1    2    0    0  0.86144004053E+00 -0.22694904560E+02  0.11085237535E+03  0.12806766594E+03  0.59977305413E+02 0.  0.
         11    1    3    3    0    0 -0.13553833574E+02  0.52409941441E+01  0.88028654334E+02  0.89220056086E+02  0.00000000000E+00 0.  1.
        -11    1    3    3    0    0  0.14415273615E+02 -0.27935898704E+02  0.22823721021E+02  0.38847609850E+02  0.00000000000E+00 0. -1.
         22    1    1    2    0    0 -0.86144004053E+00  0.22694904560E+02  0.49710834991E+02  0.54653159904E+02  0.00000000000E+00 0.  1.
<mgrwt>
<rscale>  0 0.49473524E+02</rscale>
<asrwt>0</asrwt>
<pdfrwt beam="1">  1        2 0.26406462E-01 0.64133283E+02</pdfrwt>
<pdfrwt beam="2">  1       -2 0.17044321E-02 0.64133283E+02</pdfrwt>
<totfact> 0.15634508E+05</totfact>
</mgrwt>
</event>
<event>
 6    1  0.2995420E-002  0.8990626E+02  0.7546771E-02  0.1414812E+00
         -2   -1    0    0    0  501 -0.00000000000E+00  0.00000000000E+00  0.48420391132E+01  0.48420391132E+01  0.00000000000E+00 0.  1.
          2   -1    0    0  501    0  0.00000000000E+00 -0.00000000000E+00 -0.58744677171E+03  0.58744677171E+03  0.00000000000E+00 0. -1.
         23    2    1    2    0    0 -0.40436799069E+01  0.13050220080E+02 -0.54302567213E+03  0.55041803798E+03  0.88862119865E+02 0.  0.
         13    1    3    3    0    0 -0.36104423367E+02  0.38405548628E+01 -0.10454541846E+03  0.11067079004E+03  0.00000000000E+00 0.  1.
        -13    1    3    3    0    0  0.32060743460E+02  0.92096652170E+01 -0.43848025367E+03  0.43974724793E+03  0.00000000000E+00 0. -1.
         22    1    1    2    0    0  0.40436799069E+01 -0.13050220080E+02 -0.39579060471E+02  0.41870772851E+02  0.00000000000E+00 0.  1.
<mgrwt>
<rscale>  0 0.56133710E+02</rscale>
<asrwt>0</asrwt>
<pdfrwt beam="1">  1        2 0.90376404E-01 0.89906262E+02</pdfrwt>
<pdfrwt beam="2">  1       -2 0.74492928E-03 0.89906262E+02</pdfrwt>
<totfact> 0.14537237E+05</totfact>
</mgrwt>
</event>
<event>
 6    1  0.2995420E-002  0.9155204E+02  0.7546771E-02  0.1404049E+00
          2   -1    0    0  501    0  0.00000000000E+00  0.00000000000E+00  0.12513157850E+02  0.12513157850E+02  0.00000000000E+00 0. -1.
         -2   -1    0    0    0  501 -0.00000000000E+00 -0.00000000000E+00 -0.22819191581E+03  0.22819191581E+03  0.00000000000E+00 0.  1.
         23    2    1    2    0    0 -0.94484295365E+01 -0.12043526389E+02 -0.18348137469E+03  0.20505411522E+03  0.90263259193E+02 0.  0.
         11    1    3    3    0    0  0.38208907297E+02 -0.18476004537E+02 -0.10138456338E+03  0.10990956752E+03  0.00000000000E+00 0.  1.
        -11    1    3    3    0    0 -0.47657336833E+02  0.64324781482E+01 -0.82096811313E+02  0.95144547700E+02  0.00000000000E+00 0. -1.
         22    1    1    2    0    0  0.94484295365E+01  0.12043526389E+02 -0.32197383266E+02  0.35650958441E+02  0.00000000000E+00 0. -1.
<mgrwt>
<rscale>  0 0.58543276E+02</rscale>
<asrwt>0</asrwt>
<pdfrwt beam="1">  1        2 0.19251011E-02 0.91552036E+02</pdfrwt>
<pdfrwt beam="2">  1       -2 0.35106450E-01 0.91552036E+02</pdfrwt>
<totfact> 0.38192229E+04</totfact>
</mgrwt>
</event>
<event>
 6    1  0.2995420E-002  0.7862210E+02  0.7546771E-02  0.1440124E+00
          2   -1    0    0  501    0  0.00000000000E+00  0.00000000000E+00  0.44426538861E+02  0.44426538861E+02  0.00000000000E+00 0. -1.
         -2   -1    0    0    0  501 -0.00000000000E+00 -0.00000000000E+00 -0.68150235210E+02  0.68150235210E+02  0.00000000000E+00 0.  1.
         23    2    1    2    0    0 -0.12759014923E+02  0.55122762660E+01  0.69223415990E+01  0.78926257087E+02  0.77383832892E+02 0.  0.
         11    1    3    3    0    0  0.25385872763E+02 -0.26122784530E+01 -0.19242908023E+02  0.31961790373E+02  0.00000000000E+00 0.  1.
        -11    1    3    3    0    0 -0.38144887686E+02  0.81245547189E+01  0.26165249622E+02  0.46964466714E+02  0.00000000000E+00 0. -1.
         22    1    1    2    0    0  0.12759014923E+02 -0.55122762660E+01 -0.30646037947E+02  0.33650516984E+02  0.00000000000E+00 0.  1.
<mgrwt>
<rscale>  0 0.50980385E+02</rscale>
<asrwt>0</asrwt>
<pdfrwt beam="1">  1        2 0.68348521E-02 0.78622104E+02</pdfrwt>
<pdfrwt beam="2">  1       -2 0.10484652E-01 0.78622104E+02</pdfrwt>
<totfact> 0.53752139E+04</totfact>
</mgrwt>
</event>
<event>
 6    1  0.2995420E-002  0.1647935E+03  0.7546771E-02  0.1192632E+00
         -1   -1    0    0    0  501 -0.00000000000E+00  0.00000000000E+00  0.13898939226E+02  0.13898939226E+02  0.00000000000E+00 0.  1.
          1   -1    0    0  501    0  0.00000000000E+00 -0.00000000000E+00 -0.18560176460E+04  0.18560176460E+04  0.00000000000E+00 0. -1.
         23    2    1    2    0    0  0.64785101853E+02 -0.11759515656E+03 -0.13423628188E+04  0.13524403270E+04  0.95557158393E+02 0.  0.
         11    1    3    3    0    0  0.83758702296E+02 -0.57190850535E+02 -0.84377479666E+03  0.84984835181E+03  0.00000000000E+00 0. -1.
        -11    1    3    3    0    0 -0.18973600443E+02 -0.60404306025E+02 -0.49858802211E+03  0.50259197516E+03  0.00000000000E+00 0.  1.
         22    1    1    2    0    0 -0.64785101853E+02  0.11759515656E+03 -0.49975588804E+03  0.51747625830E+03  0.00000000000E+00 0.  1.
<mgrwt>
<rscale>  0 0.15656392E+03</rscale>
<asrwt>0</asrwt>
<pdfrwt beam="1">  1        1 0.28554131E+00 0.16479351E+03</pdfrwt>
<pdfrwt beam="2">  1       -1 0.21382974E-02 0.16479351E+03</pdfrwt>
<totfact> 0.25973771E+03</totfact>
</mgrwt>
</event>
<event>
 6    1  0.2995420E-002  0.1151710E+03  0.7546771E-02  0.1276763E+00
          2   -1    0    0  501    0  0.00000000000E+00  0.00000000000E+00  0.21417276437E+03  0.21417276437E+03  0.00000000000E+00 0. -1.
         -2   -1    0    0    0  501 -0.00000000000E+00 -0.00000000000E+00 -0.40295765713E+02  0.40295765713E+02  0.00000000000E+00 0.  1.
         23    2    1    2    0    0  0.63976867315E+02 -0.28463781820E+02  0.98049140001E+02  0.15125472008E+03  0.91439215136E+02 0.  0.
         11    1    3    3    0    0 -0.90005702647E+01  0.46731110648E+01  0.62943407590E+02  0.63755162859E+02  0.00000000000E+00 0. -1.
        -11    1    3    3    0    0  0.72977437580E+02 -0.33136892885E+02  0.35105732410E+02  0.87499557221E+02  0.00000000000E+00 0.  1.
         22    1    1    2    0    0 -0.63976867315E+02  0.28463781820E+02  0.75827858656E+02  0.10321381000E+03  0.00000000000E+00 0. -1.
<mgrwt>
<rscale>  0 0.10169921E+03</rscale>
<asrwt>0</asrwt>
<pdfrwt beam="1">  1        2 0.32949655E-01 0.11517099E+03</pdfrwt>
<pdfrwt beam="2">  1       -2 0.61993487E-02 0.11517099E+03</pdfrwt>
<totfact> 0.20376366E+04</totfact>
</mgrwt>
</event>
<event>
 6    1  0.2995420E-002  0.1080545E+03  0.7546771E-02  0.1286257E+00
          1   -1    0    0  501    0  0.00000000000E+00  0.00000000000E+00  0.23650326056E+03  0.23650326056E+03  0.00000000000E+00 0. -1.
         -1   -1    0    0    0  501 -0.00000000000E+00 -0.00000000000E+00 -0.74683399462E+02  0.74683399462E+02  0.00000000000E+00 0.  1.
         23    2    1    2    0    0  0.37845630711E+02 -0.59841699649E+02  0.20250144054E+03  0.22952692890E+03  0.81623874512E+02 0.  0.
         11    1    3    3    0    0  0.41332667669E+02 -0.66813293952E+01  0.14593612397E+03  0.15182352209E+03  0.00000000000E+00 0. -1.
        -11    1    3    3    0    0 -0.34870369580E+01 -0.53160370254E+02  0.56565316565E+02  0.77703406813E+02  0.00000000000E+00 0.  1.
         22    1    1    2    0    0 -0.37845630711E+02  0.59841699649E+02 -0.40681579441E+02  0.81659731120E+02  0.00000000000E+00 0.  1.
<mgrwt>
<rscale>  0 0.97218265E+02</rscale>
<asrwt>0</asrwt>
<pdfrwt beam="1">  1        1 0.36385117E-01 0.10805451E+03</pdfrwt>
<pdfrwt beam="2">  1       -1 0.11489754E-01 0.10805451E+03</pdfrwt>
<totfact> 0.54711105E+03</totfact>
</mgrwt>
</event>
<event>
 6    1  0.2995420E-002  0.9221904E+02  0.7546771E-02  0.1417848E+00
         -2   -1    0    0    0  501 -0.00000000000E+00  0.00000000000E+00  0.54346597487E+01  0.54346597487E+01  0.00000000000E+00 0.  1.
          2   -1    0    0  501    0  0.00000000000E+00 -0.00000000000E+00 -0.50257945439E+03  0.50257945439E+03  0.00000000000E+00 0. -1.
         23    2    1    2    0    0  0.11379625860E+02  0.40519745494E+01 -0.44946112868E+03  0.45882421292E+03  0.91424492257E+02 0.  0.
         11    1    3    3    0    0 -0.30902713715E+02 -0.25222790561E+02 -0.16513266944E+03  0.16988221036E+03  0.00000000000E+00 0. -1.
        -11    1    3    3    0    0  0.42282339575E+02  0.29274765111E+02 -0.28432845923E+03  0.28894200256E+03  0.00000000000E+00 0.  1.
         22    1    1    2    0    0 -0.11379625860E+02 -0.40519745494E+01 -0.47683665965E+02  0.49189901223E+02  0.00000000000E+00 0. -1.
<mgrwt>
<rscale>  0 0.55478885E+02</rscale>
<asrwt>0</asrwt>
<pdfrwt beam="1">  1        2 0.77319937E-01 0.92219044E+02</pdfrwt>
<pdfrwt beam="2">  1       -2 0.83610128E-03 0.92219044E+02</pdfrwt>
<totfact> 0.14715184E+05</totfact>
</mgrwt>
</event>
<event>
 6    1  0.2995420E-002  0.1062216E+03  0.7546771E-02  0.1303524E+00
         -2   -1    0    0    0  501 -0.00000000000E+00  0.00000000000E+00  0.94413954825E+02  0.94413954825E+02  0.00000000000E+00 0.  1.
          2   -1    0    0  501    0  0.00000000000E+00 -0.00000000000E+00 -0.21750602092E+03  0.21750602092E+03  0.00000000000E+00 0. -1.
         23    2    1    2    0    0  0.53444398222E+02  0.82181711577E+01 -0.19493793925E+03  0.22199961361E+03  0.91428585501E+02 0.  0.
         11    1    3    3    0    0  0.18892833225E+02  0.49083895816E+02 -0.91516603517E+02  0.10555309894E+03  0.00000000000E+00 0.  1.
        -11    1    3    3    0    0  0.34551564997E+02 -0.40865724658E+02 -0.10342133573E+03  0.11644651467E+03  0.00000000000E+00 0. -1.
         22    1    1    2    0    0 -0.53444398222E+02 -0.82181711577E+01  0.71845873149E+02  0.89920362138E+02  0.00000000000E+00 0.  1.
<mgrwt>
<rscale>  0 0.89723017E+02</rscale>
<asrwt>0</asrwt>
<pdfrwt beam="1">  1        2 0.33462464E-01 0.10622160E+03</pdfrwt>
<pdfrwt beam="2">  1       -2 0.14525224E-01 0.10622160E+03</pdfrwt>
<totfact> 0.52768651E+03</totfact>
</mgrwt>
</event>
<event>
 6    1  0.2995420E-002  0.9220435E+02  0.7546771E-02  0.1417803E+00
         -1   -1    0    0    0  501 -0.00000000000E+00  0.00000000000E+00  0.82205568464E+01  0.82205568464E+01  0.00000000000E+00 0. -1.
          1   -1    0    0  501    0  0.00000000000E+00 -0.00000000000E+00 -0.71280327868E+03  0.71280327868E+03  0.00000000000E+00 0.  1.
         23    2    1    2    0    0  0.33303273398E+01 -0.11625988249E+02 -0.70277272263E+03  0.70879555764E+03  0.91407812422E+02 0.  0.
         11    1    3    3    0    0 -0.37001549451E+02 -0.17176184491E+02 -0.18596511708E+03  0.19038687125E+03  0.00000000000E+00 0.  1.
        -11    1    3    3    0    0  0.40331876790E+02  0.55501962419E+01 -0.51680760555E+03  0.51840868639E+03  0.00000000000E+00 0. -1.
         22    1    1    2    0    0 -0.33303273398E+01  0.11625988249E+02 -0.18099992014E+01  0.12228277886E+02  0.00000000000E+00 0. -1.
<mgrwt>
<rscale>  0 0.55488412E+02</rscale>
<asrwt>0</asrwt>
<pdfrwt beam="1">  1        1 0.10966200E+00 0.92204354E+02</pdfrwt>
<pdfrwt beam="2">  1       -1 0.12647015E-02 0.92204354E+02</pdfrwt>
<totfact> 0.33143938E+04</totfact>
</mgrwt>
</event>
<event>
 6    1  0.2995420E-002  0.8906996E+02  0.7546771E-02  0.1428402E+00
          4   -1    0    0  501    0  0.00000000000E+00  0.00000000000E+00  0.28837702041E+02  0.28837702041E+02  0.00000000000E+00 0. -1.
         -4   -1    0    0    0  501 -0.00000000000E+00 -0.00000000000E+00 -0.87585255602E+02  0.87585255602E+02  0.00000000000E+00 0.  1.
         23    2    1    2    0    0  0.64974666945E+01 -0.93744677355E+01 -0.53075167215E+02  0.10368428873E+03  0.88336632470E+02 0.  0.
         11    1    3    3    0    0  0.76681862352E+01  0.36411325861E+02 -0.54455469637E+01  0.37606378619E+02  0.00000000000E+00 0. -1.
        -11    1    3    3    0    0 -0.11707195407E+01 -0.45785793597E+02 -0.47629620251E+02  0.66077910112E+02  0.00000000000E+00 0.  1.
         22    1    1    2    0    0 -0.64974666945E+01  0.93744677355E+01 -0.56723863468E+01  0.12738668911E+02  0.00000000000E+00 0.  1.
<mgrwt>
<rscale>  0 0.53282202E+02</rscale>
<asrwt>0</asrwt>
<pdfrwt beam="1">  1        4 0.44365697E-02 0.89069963E+02</pdfrwt>
<pdfrwt beam="2">  1       -4 0.13474654E-01 0.89069963E+02</pdfrwt>
<totfact> 0.18817819E+04</totfact>
</mgrwt>
</event>
<event>
 6    1  0.2995420E-002  0.9280463E+02  0.7546771E-02  0.1415882E+00
         -3   -1    0    0    0  501 -0.00000000000E+00  0.00000000000E+00  0.25228670604E+03  0.25228670604E+03  0.00000000000E+00 0.  1.
          3   -1    0    0  501    0  0.00000000000E+00 -0.00000000000E+00 -0.11821128181E+02  0.11821128181E+02  0.00000000000E+00 0. -1.
         23    2    1    2    0    0 -0.11442662472E+02 -0.42823602064E+01  0.23001078497E+03  0.24802754107E+03  0.91996884702E+02 0.  0.
         13    1    3    3    0    0  0.24899763187E+02 -0.15442586002E+02  0.22179766482E+02  0.36747975596E+02  0.00000000000E+00 0. -1.
        -13    1    3    3    0    0 -0.36342425659E+02  0.11160225795E+02  0.20783101849E+03  0.21127956548E+03  0.00000000000E+00 0.  1.
         22    1    1    2    0    0  0.11442662472E+02  0.42823602064E+01  0.10454792889E+02  0.16080293149E+02  0.00000000000E+00 0.  1.
<mgrwt>
<rscale>  0 0.55901692E+02</rscale>
<asrwt>0</asrwt>
<pdfrwt beam="1">  1        3 0.18186353E-02 0.92804633E+02</pdfrwt>
<pdfrwt beam="2">  1       -3 0.38813335E-01 0.92804633E+02</pdfrwt>
<totfact> 0.14996388E+04</totfact>
</mgrwt>
</event>
<event>
 6    1  0.2995420E-002  0.9482326E+02  0.7546771E-02  0.1403613E+00
         -2   -1    0    0    0  501 -0.00000000000E+00  0.00000000000E+00  0.56887650679E+01  0.56887650679E+01  0.00000000000E+00 0.  1.
          2   -1    0    0  501    0  0.00000000000E+00 -0.00000000000E+00 -0.51956677411E+03  0.51956677411E+03  0.00000000000E+00 0. -1.
         23    2    1    2    0    0 -0.93768458818E+01  0.10222950685E+02 -0.44357443109E+03  0.45359643625E+03  0.93803076195E+02 0.  0.
         11    1    3    3    0    0 -0.15201542739E+02 -0.23491326102E+02 -0.38305309104E+03  0.38407369067E+03  0.00000000000E+00 0. -1.
        -11    1    3    3    0    0  0.58246968576E+01  0.33714276787E+02 -0.60521340049E+02  0.69522745588E+02  0.00000000000E+00 0.  1.
         22    1    1    2    0    0  0.93768458818E+01 -0.10222950685E+02 -0.70303577953E+02  0.71659102928E+02  0.00000000000E+00 0. -1.
<mgrwt>
<rscale>  0 0.58643703E+02</rscale>
<asrwt>0</asrwt>
<pdfrwt beam="1">  1        2 0.79933382E-01 0.94823262E+02</pdfrwt>
<pdfrwt beam="2">  1       -2 0.87519428E-03 0.94823262E+02</pdfrwt>
<totfact> 0.13362078E+05</totfact>
</mgrwt>
</event>
<event>
 6    1  0.2995420E-002  0.9032414E+02  0.7546771E-02  0.1404060E+00
          2   -1    0    0  501    0  0.00000000000E+00  0.00000000000E+00  0.48652413823E+02  0.48652413823E+02  0.00000000000E+00 0. -1.
         -2   -1    0    0    0  501 -0.00000000000E+00 -0.00000000000E+00 -0.59718438124E+02  0.59718438124E+02  0.00000000000E+00 0.  1.
         23    2    1    2    0    0 -0.80325677633E+01 -0.13765167253E+02 -0.26848762869E+01  0.90364030561E+02  0.88906959706E+02 0.  0.
         13    1    3    3    0    0 -0.40113647359E+02 -0.14011398902E+01  0.24067528872E+02  0.46800788919E+02  0.00000000000E+00 0. -1.
        -13    1    3    3    0    0  0.32081079595E+02 -0.12364027363E+02 -0.26752405159E+02  0.43563241643E+02  0.00000000000E+00 0.  1.
         22    1    1    2    0    0  0.80325677633E+01  0.13765167253E+02 -0.83811480142E+01  0.18006821385E+02  0.00000000000E+00 0. -1.
<mgrwt>
<rscale>  0 0.58540644E+02</rscale>
<asrwt>0</asrwt>
<pdfrwt beam="1">  1        2 0.74849868E-02 0.90324136E+02</pdfrwt>
<pdfrwt beam="2">  1       -2 0.91874520E-02 0.90324136E+02</pdfrwt>
<totfact> 0.60110287E+04</totfact>
</mgrwt>
</event>
<event>
 6    1  0.2995420E-002  0.9237750E+02  0.7546771E-02  0.1405459E+00
         -2   -1    0    0    0  501 -0.00000000000E+00  0.00000000000E+00  0.39527664529E+01  0.39527664529E+01  0.00000000000E+00 0.  1.
          2   -1    0    0  501    0  0.00000000000E+00 -0.00000000000E+00 -0.97400982565E+03  0.97400982565E+03  0.00000000000E+00 0. -1.
         23    2    1    2    0    0 -0.10517703954E+02  0.10088349539E+02 -0.94031566602E+03  0.94484239644E+03  0.91220641562E+02 0.  0.
         13    1    3    3    0    0  0.35148979397E+02  0.46229084809E+01 -0.64434385761E+03  0.64531839341E+03  0.00000000000E+00 0. -1.
        -13    1    3    3    0    0 -0.45666683351E+02  0.54654410582E+01 -0.29597180841E+03  0.29952400302E+03  0.00000000000E+00 0.  1.
         22    1    1    2    0    0  0.10517703954E+02 -0.10088349539E+02 -0.29741393174E+02  0.33120195664E+02  0.00000000000E+00 0.  1.
<mgrwt>
<rscale>  0 0.58219460E+02</rscale>
<asrwt>0</asrwt>
<pdfrwt beam="1">  1        2 0.14984755E+00 0.92377499E+02</pdfrwt>
<pdfrwt beam="2">  1       -2 0.60811839E-03 0.92377499E+02</pdfrwt>
<totfact> 0.10553644E+05</totfact>
</mgrwt>
</event>
<event>
 6    1  0.2995420E-002  0.9521005E+02  0.7546771E-02  0.1361607E+00
          2   -1    0    0  501    0  0.00000000000E+00  0.00000000000E+00  0.18148069545E+04  0.18148069545E+04  0.00000000000E+00 0. -1.
         -2   -1    0    0    0  501 -0.00000000000E+00 -0.00000000000E+00 -0.29727058253E+01  0.29727058253E+01  0.00000000000E+00 0.  1.
         23    2    1    2    0    0 -0.42606134075E+01  0.26784558031E+02  0.17014713810E+04  0.17041331561E+04  0.91265479566E+02 0.  0.
         13    1    3    3    0    0 -0.38837431574E+02  0.37919153844E+02  0.74629005113E+03  0.74826135055E+03  0.00000000000E+00 0.  1.
        -13    1    3    3    0    0  0.34576818167E+02 -0.11134595813E+02  0.95518132992E+03  0.95587180553E+03  0.00000000000E+00 0. -1.
         22    1    1    2    0    0  0.42606134075E+01 -0.26784558031E+02  0.11036286759E+03  0.11364650421E+03  0.00000000000E+00 0.  1.
<mgrwt>
<rscale>  0 0.69556824E+02</rscale>
<asrwt>0</asrwt>
<pdfrwt beam="1">  1        2 0.27920018E+00 0.95210047E+02</pdfrwt>
<pdfrwt beam="2">  1       -2 0.45734081E-03 0.95210047E+02</pdfrwt>
<totfact> 0.56724254E+04</totfact>
</mgrwt>
</event>
<event>
 6    1  0.2995420E-002  0.9801313E+02  0.7546771E-02  0.1345809E+00
          2   -1    0    0  501    0  0.00000000000E+00  0.00000000000E+00  0.84710177483E+03  0.84710177483E+03  0.00000000000E+00 0. -1.
         -2   -1    0    0    0  501 -0.00000000000E+00 -0.00000000000E+00 -0.56330381470E+01  0.56330381470E+01  0.00000000000E+00 0.  1.
         23    2    1    2    0    0 -0.22113649293E+02  0.23820224630E+02  0.73230834079E+03  0.73883833095E+03  0.92467057403E+02 0.  0.
         13    1    3    3    0    0 -0.39165800122E+02  0.28965465057E+02  0.18704711553E+03  0.19328626825E+03  0.00000000000E+00 0.  1.
        -13    1    3    3    0    0  0.17052150829E+02 -0.51452404272E+01  0.54526122526E+03  0.54555206270E+03  0.00000000000E+00 0. -1.
         22    1    1    2    0    0  0.22113649293E+02 -0.23820224630E+02  0.10916039589E+03  0.11389648202E+03  0.00000000000E+00 0.  1.
<mgrwt>
<rscale>  0 0.74377673E+02</rscale>
<asrwt>0</asrwt>
<pdfrwt beam="1">  1        2 0.13032325E+00 0.98013128E+02</pdfrwt>
<pdfrwt beam="2">  1       -2 0.86662193E-03 0.98013128E+02</pdfrwt>
<totfact> 0.77277058E+04</totfact>
</mgrwt>
</event>
<event>
 6    1  0.2995420E-002  0.8997488E+02  0.7546771E-02  0.1428829E+00
          2   -1    0    0  501    0  0.00000000000E+00  0.00000000000E+00  0.10121573174E+04  0.10121573174E+04  0.00000000000E+00 0. -1.
         -2   -1    0    0    0  501 -0.00000000000E+00 -0.00000000000E+00 -0.26945743136E+01  0.26945743136E+01  0.00000000000E+00 0.  1.
         23    2    1    2    0    0 -0.91659213870E+01 -0.60702618797E+01  0.95867105693E+03  0.96288404034E+03  0.89300714144E+02 0.  0.
         11    1    3    3    0    0 -0.18559681292E+01 -0.30140789217E+02  0.87481322336E+03  0.87533427189E+03  0.00000000000E+00 0. -1.
        -11    1    3    3    0    0 -0.73099532578E+01  0.24070527337E+02  0.83857833579E+02  0.87549768449E+02  0.00000000000E+00 0.  1.
         22    1    1    2    0    0  0.91659213870E+01  0.60702618797E+01  0.50791686196E+02  0.51967851416E+02  0.00000000000E+00 0. -1.
<mgrwt>
<rscale>  0 0.53195792E+02</rscale>
<asrwt>0</asrwt>
<pdfrwt beam="1">  1        2 0.15571621E+00 0.89974884E+02</pdfrwt>
<pdfrwt beam="2">  1       -2 0.41455070E-03 0.89974884E+02</pdfrwt>
<totfact> 0.17084350E+05</totfact>
</mgrwt>
</event>
<event>
 6    1  0.2995420E-002  0.8814551E+02  0.7546771E-02  0.1426705E+00
          2   -1    0    0  501    0  0.00000000000E+00  0.00000000000E+00  0.21512451272E+02  0.21512451272E+02  0.00000000000E+00 0. -1.
         -2   -1    0    0    0  501 -0.00000000000E+00 -0.00000000000E+00 -0.11943492549E+03  0.11943492549E+03  0.00000000000E+00 0.  1.
         23    2    1    2    0    0 -0.27914736687E+01  0.11749372309E+02 -0.78267826183E+02  0.11787910278E+03  0.87314318317E+02 0.  0.
         13    1    3    3    0    0  0.35384150155E+02 -0.19921156573E+00 -0.68794129585E+01  0.36047248024E+02  0.00000000000E+00 0. -1.
        -13    1    3    3    0    0 -0.38175623824E+02  0.11948583875E+02 -0.71388413224E+02  0.81831854761E+02  0.00000000000E+00 0.  1.
         22    1    1    2    0    0  0.27914736687E+01 -0.11749372309E+02 -0.19654648035E+02  0.23068273977E+02  0.00000000000E+00 0.  1.
<mgrwt>
<rscale>  0 0.53627153E+02</rscale>
<asrwt>0</asrwt>
<pdfrwt beam="1">  1        2 0.33096079E-02 0.88145506E+02</pdfrwt>
<pdfrwt beam="2">  1       -2 0.18374604E-01 0.88145506E+02</pdfrwt>
<totfact> 0.56690640E+04</totfact>
</mgrwt>
</event>
<event>
 6    1  0.2995420E-002  0.9653349E+02  0.7546771E-02  0.1401039E+00
         -1   -1    0    0    0  501 -0.00000000000E+00  0.00000000000E+00  0.29738575905E+02  0.29738575905E+02  0.00000000000E+00 0.  1.
          1   -1    0    0  501    0  0.00000000000E+00 -0.00000000000E+00 -0.18164633588E+03  0.18164633588E+03  0.00000000000E+00 0. -1.
         23    2    1    2    0    0  0.24855744844E+01  0.13465493500E+02 -0.16581501714E+03  0.19186801148E+03  0.95557398060E+02 0.  0.
         11    1    3    3    0    0 -0.16068013704E+02  0.35300927995E+01 -0.16967498150E+03  0.17047064840E+03  0.00000000000E+00 0. -1.
        -11    1    3    3    0    0  0.18553588188E+02  0.99354007003E+01  0.38599643608E+01  0.21397363076E+02  0.00000000000E+00 0.  1.
         22    1    1    2    0    0 -0.24855744844E+01 -0.13465493500E+02  0.13907257164E+02  0.19516900306E+02  0.00000000000E+00 0.  1.
<mgrwt>
<rscale>  0 0.59242442E+02</rscale>
<asrwt>0</asrwt>
<pdfrwt beam="1">  1        1 0.27945590E-01 0.96533486E+02</pdfrwt>
<pdfrwt beam="2">  1       -1 0.45751655E-02 0.96533486E+02</pdfrwt>
<totfact> 0.29591852E+04</totfact>
</mgrwt>
</event>
<event>
 6    1  0.2995420E-002  0.9105611E+02  0.7546771E-02  0.1398969E+00
         -4   -1    0    0    0  501 -0.00000000000E+00  0.00000000000E+00  0.99510322897E+01  0.99510322897E+01  0.00000000000E+00 0.  1.
          4   -1    0    0  501    0  0.00000000000E+00 -0.00000000000E+00 -0.54354526956E+03  0.54354526956E+03  0.00000000000E+00 0. -1.
         23    2    1    2    0    0  0.10033967446E+02  0.13548119676E+02 -0.52790901475E+03  0.53570434286E+03  0.89481747043E+02 0.  0.
         11    1    3    3    0    0  0.39653402187E+02  0.17152232372E+02 -0.45323807006E+03  0.45529258673E+03  0.00000000000E+00 0. -1.
        -11    1    3    3    0    0 -0.29619434741E+02 -0.36041126957E+01 -0.74670944693E+02  0.80411756130E+02  0.00000000000E+00 0.  1.
         22    1    1    2    0    0 -0.10033967446E+02 -0.13548119676E+02 -0.56852225131E+01  0.17791958984E+02  0.00000000000E+00 0.  1.
<mgrwt>
<rscale>  0 0.59729785E+02</rscale>
<asrwt>0</asrwt>
<pdfrwt beam="1">  1        4 0.83622349E-01 0.91056110E+02</pdfrwt>
<pdfrwt beam="2">  1       -4 0.15309281E-02 0.91056110E+02</pdfrwt>
<totfact> 0.29375829E+03</totfact>
</mgrwt>
</event>
<event>
 6    1  0.2995420E-002  0.8899784E+02  0.7546771E-02  0.1372518E+00
         -2   -1    0    0    0  501 -0.00000000000E+00  0.00000000000E+00  0.73886891883E+01  0.73886891883E+01  0.00000000000E+00 0.  1.
          2   -1    0    0  501    0  0.00000000000E+00 -0.00000000000E+00 -0.55908176051E+03  0.55908176051E+03  0.00000000000E+00 0. -1.
         23    2    1    2    0    0 -0.23546971126E+02  0.14581554318E+02 -0.49967231911E+03  0.50753624710E+03  0.84578567365E+02 0.  0.
         13    1    3    3    0    0  0.30051787221E+02 -0.57844711943E+01 -0.13848841829E+03  0.14182951746E+03  0.00000000000E+00 0.  1.
        -13    1    3    3    0    0 -0.53598758347E+02  0.20366025512E+02 -0.36118390082E+03  0.36570672963E+03  0.00000000000E+00 0. -1.
         22    1    1    2    0    0  0.23546971126E+02 -0.14581554318E+02 -0.52020752213E+02  0.58934202602E+02  0.00000000000E+00 0.  1.
<mgrwt>
<rscale>  0 0.66472161E+02</rscale>
<asrwt>0</asrwt>
<pdfrwt beam="1">  1        2 0.86012628E-01 0.88997841E+02</pdfrwt>
<pdfrwt beam="2">  1       -2 0.11367208E-02 0.88997841E+02</pdfrwt>
<totfact> 0.84389096E+04</totfact>
</mgrwt>
</event>
<event>
 6    1  0.2995420E-002  0.9917974E+02  0.7546771E-02  0.1340710E+00
          4   -1    0    0  501    0  0.00000000000E+00  0.00000000000E+00  0.63694867360E+01  0.63694867360E+01  0.00000000000E+00 0. -1.
         -4   -1    0    0    0  501 -0.00000000000E+00 -0.00000000000E+00 -0.69889537134E+03  0.69889537134E+03  0.00000000000E+00 0.  1.
         23    2    1    2    0    0 -0.22059303465E+02 -0.26202094408E+02 -0.51840646278E+03  0.52780856578E+03  0.93077703201E+02 0.  0.
         13    1    3    3    0    0 -0.31874288465E+01  0.30969568857E+02 -0.90905030790E+02  0.96088493176E+02  0.00000000000E+00 0. -1.
        -13    1    3    3    0    0 -0.18871874618E+02 -0.57171663265E+02 -0.42750143199E+03  0.43172007260E+03  0.00000000000E+00 0.  1.
         22    1    1    2    0    0  0.22059303465E+02  0.26202094408E+02 -0.17411942182E+03  0.17745629229E+03  0.00000000000E+00 0. -1.
<mgrwt>
<rscale>  0 0.76030354E+02</rscale>
<asrwt>0</asrwt>
<pdfrwt beam="1">  1        4 0.97992174E-03 0.99179743E+02</pdfrwt>
<pdfrwt beam="2">  1       -4 0.10752229E+00 0.99179743E+02</pdfrwt>
<totfact> 0.33241851E+03</totfact>
</mgrwt>
</event>
<event>
 6    1  0.2995420E-002  0.9857643E+02  0.7546771E-02  0.1337297E+00
         -2   -1    0    0    0  501 -0.00000000000E+00  0.00000000000E+00  0.24011766474E+03  0.24011766474E+03  0.00000000000E+00 0.  1.
          2   -1    0    0  501    0  0.00000000000E+00 -0.00000000000E+00 -0.39427794212E+02  0.39427794212E+02  0.00000000000E+00 0. -1.
         23    2    1    2    0    0  0.26461325989E+02  0.25878590564E+02  0.27352941475E+02  0.10230101138E+03  0.91364163098E+02 0.  0.
         13    1    3    3    0    0 -0.17434540489E+02  0.46498173043E+02  0.18551069354E+02  0.53011182524E+02  0.00000000000E+00 0. -1.
        -13    1    3    3    0    0  0.43895866478E+02 -0.20619582479E+02  0.88018721208E+01  0.49289828853E+02  0.00000000000E+00 0.  1.
         22    1    1    2    0    0 -0.26461325989E+02 -0.25878590564E+02  0.17333692905E+03  0.17724444757E+03  0.00000000000E+00 0.  1.
<mgrwt>
<rscale>  0 0.77164237E+02</rscale>
<asrwt>0</asrwt>
<pdfrwt beam="1">  1        2 0.60658146E-02 0.98576435E+02</pdfrwt>
<pdfrwt beam="2">  1       -2 0.36941178E-01 0.98576435E+02</pdfrwt>
<totfact> 0.77261170E+03</totfact>
</mgrwt>
</event>
<event>
 6    1  0.2995420E-002  0.9248393E+02  0.7546771E-02  0.1426451E+00
          2   -1    0    0  501    0  0.00000000000E+00  0.00000000000E+00  0.25091153103E+03  0.25091153103E+03  0.00000000000E+00 0. -1.
         -2   -1    0    0    0  501 -0.00000000000E+00 -0.00000000000E+00 -0.10584223192E+02  0.10584223192E+02  0.00000000000E+00 0.  1.
         23    2    1    2    0    0 -0.10390577667E+02  0.14835029248E+01  0.21892856466E+03  0.23766151215E+03  0.91886413860E+02 0.  0.
         13    1    3    3    0    0  0.23537771360E+02 -0.26689821064E+02  0.40725811565E+02  0.54082945155E+02  0.00000000000E+00 0. -1.
        -13    1    3    3    0    0 -0.33928349027E+02  0.28173323989E+02  0.17820275309E+03  0.18357856700E+03  0.00000000000E+00 0.  1.
         22    1    1    2    0    0  0.10390577667E+02 -0.14835029248E+01  0.21398743183E+02  0.23834242069E+02  0.00000000000E+00 0.  1.
<mgrwt>
<rscale>  0 0.53679087E+02</rscale>
<asrwt>0</asrwt>
<pdfrwt beam="1">  1        2 0.38601769E-01 0.92483933E+02</pdfrwt>
<pdfrwt beam="2">  1       -2 0.16283422E-02 0.92483933E+02</pdfrwt>
<totfact> 0.11877217E+05</totfact>
</mgrwt>
</event>
<event>
 6    1  0.2995420E-002  0.9359948E+02  0.7546771E-02  0.1405363E+00
          2   -1    0    0  501    0  0.00000000000E+00  0.00000000000E+00  0.65410777949E+02  0.65410777949E+02  0.00000000000E+00 0. -1.
         -2   -1    0    0    0  501 -0.00000000000E+00 -0.00000000000E+00 -0.56962308594E+02  0.56962308594E+02  0.00000000000E+00 0.  1.
         23    2    1    2    0    0  0.13805215279E+02 -0.25109904492E+01  0.28551555393E+02  0.97857313861E+02  0.92541739334E+02 0.  0.
         11    1    3    3    0    0  0.38369863558E+02 -0.18014092390E+02 -0.15463996431E+02  0.45120828225E+02  0.00000000000E+00 0.  1.
        -11    1    3    3    0    0 -0.24564648279E+02  0.15503101941E+02  0.44015551824E+02  0.52736485636E+02  0.00000000000E+00 0. -1.
         22    1    1    2    0    0 -0.13805215279E+02  0.25109904492E+01 -0.20103086038E+02  0.24515772682E+02  0.00000000000E+00 0. -1.
<mgrwt>
<rscale>  0 0.58241529E+02</rscale>
<asrwt>0</asrwt>
<pdfrwt beam="1">  1        2 0.10063197E-01 0.93599479E+02</pdfrwt>
<pdfrwt beam="2">  1       -2 0.87634321E-02 0.93599479E+02</pdfrwt>
<totfact> 0.45145359E+04</totfact>
</mgrwt>
</event>
<event>
 6    1  0.2995420E-002  0.9076667E+02  0.7546771E-02  0.1429704E+00
          2   -1    0    0  501    0  0.00000000000E+00  0.00000000000E+00  0.25801734644E+04  0.25801734644E+04  0.00000000000E+00 0. -1.
         -2   -1    0    0    0  501 -0.00000000000E+00 -0.00000000000E+00 -0.23455955902E+01  0.23455955902E+01  0.00000000000E+00 0.  1.
         23    2    1    2    0    0 -0.61202140947E+01  0.86144966144E+01  0.25612617998E+04  0.25628696016E+04  0.90149438080E+02 0.  0.
         11    1    3    3    0    0 -0.19948120976E+02 -0.13122994507E+02  0.23386637342E+04  0.23387856256E+04  0.00000000000E+00 0. -1.
        -11    1    3    3    0    0  0.13827906882E+02  0.21737491122E+02  0.22259806553E+03  0.22408397601E+03  0.00000000000E+00 0.  1.
         22    1    1    2    0    0  0.61202140947E+01 -0.86144966144E+01  0.16566069077E+02  0.19649458444E+02  0.00000000000E+00 0.  1.
<mgrwt>
<rscale>  0 0.53019446E+02</rscale>
<asrwt>0</asrwt>
<pdfrwt beam="1">  1        2 0.39694749E+00 0.90766667E+02</pdfrwt>
<pdfrwt beam="2">  1       -2 0.36086292E-03 0.90766667E+02</pdfrwt>
<totfact> 0.31955657E+04</totfact>
</mgrwt>
</event>
<event>
 6    1  0.2995420E-002  0.9170839E+02  0.7546771E-02  0.1424647E+00
         -2   -1    0    0    0  501 -0.00000000000E+00  0.00000000000E+00  0.16295221367E+02  0.16295221367E+02  0.00000000000E+00 0.  1.
          2   -1    0    0  501    0  0.00000000000E+00 -0.00000000000E+00 -0.42132589575E+03  0.42132589575E+03  0.00000000000E+00 0. -1.
         23    2    1    2    0    0  0.98082476837E+01 -0.51216798525E+01 -0.41358773646E+03  0.42363338540E+03  0.91038432235E+02 0.  0.
         11    1    3    3    0    0 -0.12979615221E+02 -0.29700343822E+02 -0.57778987872E+02  0.66249469990E+02  0.00000000000E+00 0.  1.
        -11    1    3    3    0    0  0.22787862904E+02  0.24578663970E+02 -0.35580874859E+03  0.35738391541E+03  0.00000000000E+00 0. -1.
         22    1    1    2    0    0 -0.98082476837E+01  0.51216798525E+01  0.85570620815E+01  0.13987731718E+02  0.00000000000E+00 0.  1.
<mgrwt>
<rscale>  0 0.54049822E+02</rscale>
<asrwt>0</asrwt>
<pdfrwt beam="1">  1        2 0.64819362E-01 0.91708394E+02</pdfrwt>
<pdfrwt beam="2">  1       -2 0.25069574E-02 0.91708394E+02</pdfrwt>
<totfact> 0.37055447E+04</totfact>
</mgrwt>
</event>
<event>
 6    1  0.2995420E-002  0.9691327E+02  0.7546771E-02  0.1363443E+00
          2   -1    0    0  501    0  0.00000000000E+00  0.00000000000E+00  0.18418110804E+03  0.18418110804E+03  0.00000000000E+00 0. -1.
         -2   -1    0    0    0  501 -0.00000000000E+00 -0.00000000000E+00 -0.24310717595E+02  0.24310717595E+02  0.00000000000E+00 0.  1.
         23    2    1    2    0    0  0.24230757034E+02  0.58953285392E+01  0.15542043500E+03  0.18316029215E+03  0.93649861302E+02 0.  0.
         11    1    3    3    0    0 -0.36474018397E+01  0.28245768020E+02  0.14225918004E+03  0.14508205008E+03  0.00000000000E+00 0. -1.
        -11    1    3    3    0    0  0.27878158874E+02 -0.22350439481E+02  0.13161254963E+02  0.38078242074E+02  0.00000000000E+00 0.  1.
         22    1    1    2    0    0 -0.24230757034E+02 -0.58953285392E+01  0.44499554459E+01  0.25331533481E+02  0.00000000000E+00 0. -1.
<mgrwt>
<rscale>  0 0.69024161E+02</rscale>
<asrwt>0</asrwt>
<pdfrwt beam="1">  1        2 0.28335554E-01 0.96913265E+02</pdfrwt>
<pdfrwt beam="2">  1       -2 0.37401105E-02 0.96913265E+02</pdfrwt>
<totfact> 0.49847946E+04</totfact>
</mgrwt>
</event>
<event>
 6    1  0.2995420E-002  0.8433614E+02  0.7546771E-02  0.1413593E+00
          2   -1    0    0  501    0  0.00000000000E+00  0.00000000000E+00  0.66547069095E+01  0.66547069095E+01  0.00000000000E+00 0. -1.
         -2   -1    0    0    0  501 -0.00000000000E+00 -0.00000000000E+00 -0.39086100580E+03  0.39086100580E+03  0.00000000000E+00 0.  1.
         23    2    1    2    0    0 -0.29578550702E+01 -0.16606855677E+02 -0.33677302705E+03  0.34717237314E+03  0.82632005646E+02 0.  0.
         13    1    3    3    0    0 -0.30618002206E+02  0.18147881361E+02 -0.97090176573E+02  0.10340846215E+03  0.00000000000E+00 0. -1.
        -13    1    3    3    0    0  0.27660147136E+02 -0.34754737038E+02 -0.23968285048E+03  0.24376391099E+03  0.00000000000E+00 0.  1.
         22    1    1    2    0    0  0.29578550702E+01  0.16606855677E+02 -0.47433271838E+02  0.50343339573E+02  0.00000000000E+00 0. -1.
<mgrwt>
<rscale>  0 0.56399799E+02</rscale>
<asrwt>0</asrwt>
<pdfrwt beam="1">  1        2 0.10238012E-02 0.84336142E+02</pdfrwt>
<pdfrwt beam="2">  1       -2 0.60132457E-01 0.84336142E+02</pdfrwt>
<totfact> 0.31499093E+04</totfact>
</mgrwt>
</event>
<event>
 6    1  0.2995420E-002  0.8892376E+02  0.7546771E-02  0.1405618E+00
          2   -1    0    0  501    0  0.00000000000E+00  0.00000000000E+00  0.42993786414E+03  0.42993786414E+03  0.00000000000E+00 0.  1.
         -2   -1    0    0    0  501 -0.00000000000E+00 -0.00000000000E+00 -0.65109361803E+01  0.65109361803E+01  0.00000000000E+00 0. -1.
         23    2    1    2    0    0 -0.70522375485E+01 -0.14693406685E+02  0.37300772951E+03  0.38346082219E+03  0.87417421735E+02 0.  0.
         13    1    3    3    0    0  0.24052403512E+02 -0.18595810957E+02  0.47172179200E+02  0.56120734050E+02  0.00000000000E+00 0. -1.
        -13    1    3    3    0    0 -0.31104641061E+02  0.39024042723E+01  0.32583555032E+03  0.32734008814E+03  0.00000000000E+00 0.  1.
         22    1    1    2    0    0  0.70522375485E+01  0.14693406685E+02  0.50419198445E+02  0.52987978130E+02  0.00000000000E+00 0. -1.
<mgrwt>
<rscale>  0 0.58183263E+02</rscale>
<asrwt>0</asrwt>
<pdfrwt beam="1">  1        2 0.66144265E-01 0.88923764E+02</pdfrwt>
<pdfrwt beam="2">  1       -2 0.10016828E-02 0.88923764E+02</pdfrwt>
<totfact> 0.13395054E+05</totfact>
</mgrwt>
</event>
<event>
 6    1  0.2995420E-002  0.9484053E+02  0.7546771E-02  0.1414293E+00
         -3   -1    0    0    0  501 -0.00000000000E+00  0.00000000000E+00  0.13596287959E+02  0.13596287959E+02  0.00000000000E+00 0.  1.
          3   -1    0    0  501    0  0.00000000000E+00 -0.00000000000E+00 -0.25871565691E+03  0.25871565691E+03  0.00000000000E+00 0. -1.
         23    2    1    2    0    0 -0.91399789514E+01 -0.73568660655E+01 -0.24236431799E+03  0.26025984964E+03  0.94111975910E+02 0.  0.
         13    1    3    3    0    0  0.81893084537E+01 -0.60271933417E+01 -0.24266409774E+03  0.24287703918E+03  0.00000000000E+00 0. -1.
        -13    1    3    3    0    0 -0.17329287405E+02 -0.13296727237E+01  0.29977975106E+00  0.17382810458E+02  0.00000000000E+00 0.  1.
         22    1    1    2    0    0  0.91399789514E+01  0.73568660655E+01 -0.27550509653E+01  0.12052095227E+02  0.00000000000E+00 0. -1.
<mgrwt>
<rscale>  0 0.56246762E+02</rscale>
<asrwt>0</asrwt>
<pdfrwt beam="1">  1        3 0.39802408E-01 0.94840533E+02</pdfrwt>
<pdfrwt beam="2">  1       -3 0.20917367E-02 0.94840533E+02</pdfrwt>
<totfact> 0.11636994E+04</totfact>
</mgrwt>
</event>
<event>
 6    1  0.2995420E-002  0.9255888E+02  0.7546771E-02  0.1417200E+00
          2   -1    0    0  501    0  0.00000000000E+00  0.00000000000E+00  0.70325054344E+02  0.70325054344E+02  0.00000000000E+00 0. -1.
         -2   -1    0    0    0  501 -0.00000000000E+00 -0.00000000000E+00 -0.39645320176E+02  0.39645320176E+02  0.00000000000E+00 0.  1.
         23    2    1    2    0    0 -0.46242329478E+01 -0.11145706086E+02  0.31757502666E+02  0.97855430053E+02  0.91768926772E+02 0.  0.
         11    1    3    3    0    0  0.24718280026E+02 -0.42724331855E+02  0.19133457267E+02  0.52938181748E+02  0.00000000000E+00 0. -1.
        -11    1    3    3    0    0 -0.29342512974E+02  0.31578625769E+02  0.12624045399E+02  0.44917248305E+02  0.00000000000E+00 0.  1.
         22    1    1    2    0    0  0.46242329478E+01  0.11145706086E+02 -0.10777684977E+01  0.12114944467E+02  0.00000000000E+00 0. -1.
<mgrwt>
<rscale>  0 0.55617643E+02</rscale>
<asrwt>0</asrwt>
<pdfrwt beam="1">  1        2 0.10819239E-01 0.92558880E+02</pdfrwt>
<pdfrwt beam="2">  1       -2 0.60992801E-02 0.92558880E+02</pdfrwt>
<totfact> 0.71654493E+04</totfact>
</mgrwt>
</event>
<event>
 6    1  0.2995420E-002  0.9183859E+02  0.7546771E-02  0.1376980E+00
          2   -1    0    0  501    0  0.00000000000E+00  0.00000000000E+00  0.17801535378E+02  0.17801535378E+02  0.00000000000E+00 0.  1.
         -2   -1    0    0    0  501 -0.00000000000E+00 -0.00000000000E+00 -0.25714000093E+03  0.25714000093E+03  0.00000000000E+00 0. -1.
         23    2    1    2    0    0 -0.22548702703E+00 -0.23420981005E+02 -0.10907541810E+03  0.14258952564E+03  0.88801648597E+02 0.  0.
         11    1    3    3    0    0 -0.39660753685E+02 -0.28648028696E+02 -0.41411557860E+02  0.64098377947E+02  0.00000000000E+00 0.  1.
        -11    1    3    3    0    0  0.39435266658E+02  0.52270476901E+01 -0.67663860238E+02  0.78491147694E+02  0.00000000000E+00 0. -1.
         22    1    1    2    0    0  0.22548702703E+00  0.23420981005E+02 -0.13026304745E+03  0.13235201067E+03  0.00000000000E+00 0. -1.
<mgrwt>
<rscale>  0 0.65264227E+02</rscale>
<asrwt>0</asrwt>
<pdfrwt beam="1">  1        2 0.27386977E-02 0.91838587E+02</pdfrwt>
<pdfrwt beam="2">  1       -2 0.39560001E-01 0.91838587E+02</pdfrwt>
<totfact> 0.19080380E+04</totfact>
</mgrwt>
</event>
<event>
 6    1  0.2995420E-002  0.9894426E+02  0.7546771E-02  0.1359722E+00
         -3   -1    0    0    0  501 -0.00000000000E+00  0.00000000000E+00  0.33486934084E+03  0.33486934084E+03  0.00000000000E+00 0.  1.
          3   -1    0    0  501    0  0.00000000000E+00 -0.00000000000E+00 -0.11919691136E+02  0.11919691136E+02  0.00000000000E+00 0. -1.
         23    2    1    2    0    0 -0.82918390718E+00 -0.24928237447E+02  0.28185350502E+03  0.29871619478E+03  0.95748953852E+02 0.  0.
         13    1    3    3    0    0 -0.17719651639E+02 -0.22629905273E+02  0.17160933899E+02  0.33475309098E+02  0.00000000000E+00 0. -1.
        -13    1    3    3    0    0  0.16890467732E+02 -0.22983321737E+01  0.26469257112E+03  0.26524088568E+03  0.00000000000E+00 0.  1.
         22    1    1    2    0    0  0.82918390718E+00  0.24928237447E+02  0.41096144682E+02  0.48072837194E+02  0.00000000000E+00 0. -1.
<mgrwt>
<rscale>  0 0.70109340E+02</rscale>
<asrwt>0</asrwt>
<pdfrwt beam="1">  1        3 0.18337989E-02 0.98944261E+02</pdfrwt>
<pdfrwt beam="2">  1       -3 0.51518353E-01 0.98944261E+02</pdfrwt>
<totfact> 0.86683514E+03</totfact>
</mgrwt>
</event>
<event>
 6    1  0.2995420E-002  0.9811852E+02  0.7546771E-02  0.1333926E+00
          2   -1    0    0  501    0  0.00000000000E+00  0.00000000000E+00  0.93470479994E+03  0.93470479994E+03  0.00000000000E+00 0. -1.
         -2   -1    0    0    0  501 -0.00000000000E+00 -0.00000000000E+00 -0.79432297652E+01  0.79432297652E+01  0.00000000000E+00 0.  1.
         23    2    1    2    0    0  0.38267060496E+02  0.10961001249E+02  0.85478174754E+03  0.86039472379E+03  0.89681287519E+02 0.  0.
         11    1    3    3    0    0  0.54746961959E+02  0.25478806247E+02  0.35263106777E+03  0.35776398557E+03  0.00000000000E+00 0. -1.
        -11    1    3    3    0    0 -0.16479901464E+02 -0.14517804998E+02  0.50215067977E+03  0.50263073822E+03  0.00000000000E+00 0.  1.
         22    1    1    2    0    0 -0.38267060496E+02 -0.10961001249E+02  0.71979822632E+02  0.82253305912E+02  0.00000000000E+00 0.  1.
<mgrwt>
<rscale>  0 0.78306927E+02</rscale>
<asrwt>0</asrwt>
<pdfrwt beam="1">  1        2 0.14380065E+00 0.98118524E+02</pdfrwt>
<pdfrwt beam="2">  1       -2 0.12220361E-02 0.98118524E+02</pdfrwt>
<totfact> 0.41833085E+04</totfact>
</mgrwt>
</event>
<event>
 6    1  0.2995420E-002  0.8788283E+02  0.7546771E-02  0.1382327E+00
          2   -1    0    0  501    0  0.00000000000E+00  0.00000000000E+00  0.87212293604E+03  0.87212293604E+03  0.00000000000E+00 0. -1.
         -2   -1    0    0    0  501 -0.00000000000E+00 -0.00000000000E+00 -0.51085303117E+01  0.51085303117E+01  0.00000000000E+00 0.  1.
         23    2    1    2    0    0  0.24361843908E+02 -0.25602202752E+01  0.81514424182E+03  0.81986799304E+03  0.84399863000E+02 0.  0.
         11    1    3    3    0    0 -0.14817892366E+02 -0.13867621020E+02  0.62820390630E+03  0.62853164498E+03  0.00000000000E+00 0. -1.
        -11    1    3    3    0    0  0.39179736274E+02  0.11307400745E+02  0.18694033552E+03  0.19133634806E+03  0.00000000000E+00 0.  1.
         22    1    1    2    0    0 -0.24361843908E+02  0.25602202752E+01  0.51870163917E+02  0.57363473320E+02  0.00000000000E+00 0. -1.
<mgrwt>
<rscale>  0 0.63856016E+02</rscale>
<asrwt>0</asrwt>
<pdfrwt beam="1">  1        2 0.13417264E+00 0.87882826E+02</pdfrwt>
<pdfrwt beam="2">  1       -2 0.78592843E-03 0.87882826E+02</pdfrwt>
<totfact> 0.84345921E+04</totfact>
</mgrwt>
</event>
<event>
 6    1  0.2995420E-002  0.8663386E+02  0.7546771E-02  0.1431574E+00
         -2   -1    0    0    0  501 -0.00000000000E+00  0.00000000000E+00  0.92017512589E+01  0.92017512589E+01  0.00000000000E+00 0.  1.
          2   -1    0    0  501    0  0.00000000000E+00 -0.00000000000E+00 -0.36106746866E+03  0.36106746866E+03  0.00000000000E+00 0. -1.
         23    2    1    2    0    0  0.60991122437E+01  0.10117249233E+02 -0.34672718817E+03  0.35738658103E+03  0.85824631538E+02 0.  0.
         11    1    3    3    0    0 -0.33930271048E+01  0.10702222733E+02 -0.34765047858E+03  0.34783172004E+03  0.00000000000E+00 0. -1.
        -11    1    3    3    0    0  0.94921393485E+01 -0.58497350039E+00  0.92329040950E+00  0.95548609926E+01  0.00000000000E+00 0.  1.
         22    1    1    2    0    0 -0.60991122437E+01 -0.10117249233E+02 -0.51385292313E+01  0.12882638894E+02  0.00000000000E+00 0. -1.
<mgrwt>
<rscale>  0 0.52645353E+02</rscale>
<asrwt>0</asrwt>
<pdfrwt beam="1">  1        2 0.55548850E-01 0.86633858E+02</pdfrwt>
<pdfrwt beam="2">  1       -2 0.14156538E-02 0.86633858E+02</pdfrwt>
<totfact> 0.98125667E+04</totfact>
</mgrwt>
</event>
<event>
 6    1  0.2995420E-002  0.1024164E+03  0.7546771E-02  0.1320699E+00
          2   -1    0    0  501    0  0.00000000000E+00  0.00000000000E+00  0.15804351559E+04  0.15804351559E+04  0.00000000000E+00 0. -1.
         -2   -1    0    0    0  501 -0.00000000000E+00 -0.00000000000E+00 -0.39089148185E+01  0.39089148185E+01  0.00000000000E+00 0.  1.
         23    2    1    2    0    0  0.44200448681E+02 -0.11591321230E+01  0.13257238030E+04  0.13296739189E+04  0.92380223325E+02 0.  0.
         13    1    3    3    0    0 -0.19833176522E+02  0.11181413735E+02  0.11714414463E+03  0.11933620375E+03  0.00000000000E+00 0. -1.
        -13    1    3    3    0    0  0.64033625203E+02 -0.12340545858E+02  0.12085796583E+04  0.12103377152E+04  0.00000000000E+00 0.  1.
         22    1    1    2    0    0 -0.44200448681E+02  0.11591321230E+01  0.25080243809E+03  0.25467015177E+03  0.00000000000E+00 0. -1.
<mgrwt>
<rscale>  0 0.83017810E+02</rscale>
<asrwt>0</asrwt>
<pdfrwt beam="1">  1        2 0.24314336E+00 0.10241645E+03</pdfrwt>
<pdfrwt beam="2">  1       -2 0.60137277E-03 0.10241645E+03</pdfrwt>
<totfact> 0.51047168E+04</totfact>
</mgrwt>
</event>
<event>
 6    1  0.2995420E-002  0.9099003E+02  0.7546771E-02  0.1407906E+00
          1   -1    0    0  501    0  0.00000000000E+00  0.00000000000E+00  0.92536807462E+02  0.92536807462E+02  0.00000000000E+00 0. -1.
         -1   -1    0    0    0  501 -0.00000000000E+00 -0.00000000000E+00 -0.31785225258E+02  0.31785225258E+02  0.00000000000E+00 0.  1.
         23    2    1    2    0    0 -0.14138923543E+02  0.39364593547E+01  0.61168771556E+02  0.10963942675E+03  0.89798554624E+02 0.  0.
         13    1    3    3    0    0  0.21717179526E+02  0.48485814630E+01  0.69365362929E+02  0.72847087815E+02  0.00000000000E+00 0. -1.
        -13    1    3    3    0    0 -0.35856103068E+02 -0.91212210833E+00 -0.81965913736E+01  0.36792338933E+02  0.00000000000E+00 0.  1.
         22    1    1    2    0    0  0.14138923543E+02 -0.39364593547E+01 -0.41718935167E+00  0.14682605973E+02  0.00000000000E+00 0. -1.
<mgrwt>
<rscale>  0 0.57663671E+02</rscale>
<asrwt>0</asrwt>
<pdfrwt beam="1">  1        1 0.14236432E-01 0.90990028E+02</pdfrwt>
<pdfrwt beam="2">  1       -1 0.48900347E-02 0.90990028E+02</pdfrwt>
<totfact> 0.62223109E+04</totfact>
</mgrwt>
</event>
<event>
 6    1  0.2995420E-002  0.1037649E+03  0.7546771E-02  0.1310814E+00
         -2   -1    0    0    0  501 -0.00000000000E+00  0.00000000000E+00  0.26333894759E+03  0.26333894759E+03  0.00000000000E+00 0.  1.
          2   -1    0    0  501    0  0.00000000000E+00 -0.00000000000E+00 -0.24974097741E+02  0.24974097741E+02  0.00000000000E+00 0. -1.
         23    2    1    2    0    0 -0.46801013848E+02  0.19721165872E+02  0.11494879869E+03  0.15485600743E+03  0.90487001484E+02 0.  0.
         11    1    3    3    0    0 -0.31029624564E+02  0.26282981050E+02  0.20972192839E+01  0.40718927076E+02  0.00000000000E+00 0. -1.
        -11    1    3    3    0    0 -0.15771389284E+02 -0.65618151772E+01  0.11285157941E+03  0.11413708036E+03  0.00000000000E+00 0.  1.
         22    1    1    2    0    0  0.46801013848E+02 -0.19721165872E+02  0.12341605116E+03  0.13345703790E+03  0.00000000000E+00 0. -1.
<mgrwt>
<rscale>  0 0.86791014E+02</rscale>
<asrwt>0</asrwt>
<pdfrwt beam="1">  1        2 0.38421691E-02 0.10376491E+03</pdfrwt>
<pdfrwt beam="2">  1       -2 0.40513682E-01 0.10376491E+03</pdfrwt>
<totfact> 0.11814196E+04</totfact>
</mgrwt>
</event>
<event>
 6    1  0.2995420E-002  0.9154588E+02  0.7546771E-02  0.1391225E+00
         -2   -1    0    0    0  501 -0.00000000000E+00  0.00000000000E+00  0.27538486015E+02  0.27538486015E+02  0.00000000000E+00 0.  1.
          2   -1    0    0  501    0  0.00000000000E+00 -0.00000000000E+00 -0.11627040528E+03  0.11627040528E+03  0.00000000000E+00 0. -1.
         23    2    1    2    0    0 -0.97739969097E+01 -0.16026013167E+02 -0.84463949893E+02  0.12455844516E+03  0.89600688147E+02 0.  0.
         13    1    3    3    0    0 -0.68558938200E+00 -0.49750381377E+02 -0.71906604589E+02  0.87442153813E+02  0.00000000000E+00 0. -1.
        -13    1    3    3    0    0 -0.90884075277E+01  0.33724368210E+02 -0.12557345304E+02  0.37116291351E+02  0.00000000000E+00 0.  1.
         22    1    1    2    0    0  0.97739969097E+01  0.16026013167E+02 -0.42679693689E+01  0.19250446129E+02  0.00000000000E+00 0.  1.
<mgrwt>
<rscale>  0 0.61603168E+02</rscale>
<asrwt>0</asrwt>
<pdfrwt beam="1">  1        2 0.17887754E-01 0.91545876E+02</pdfrwt>
<pdfrwt beam="2">  1       -2 0.42366903E-02 0.91545876E+02</pdfrwt>
<totfact> 0.68403358E+04</totfact>
</mgrwt>
</event>
<event>
 6    1  0.2995420E-002  0.1006297E+03  0.7546771E-02  0.1323029E+00
          2   -1    0    0  501    0  0.00000000000E+00  0.00000000000E+00  0.11803871440E+04  0.11803871440E+04  0.00000000000E+00 0. -1.
         -2   -1    0    0    0  501 -0.00000000000E+00 -0.00000000000E+00 -0.57659139010E+01  0.57659139010E+01  0.00000000000E+00 0.  1.
         23    2    1    2    0    0  0.36119418818E+02  0.26363346660E+02  0.10267192882E+04  0.10316389068E+04  0.90148205005E+02 0.  0.
         13    1    3    3    0    0  0.17023631074E+02 -0.88398521126E+01  0.42765336512E+02  0.46870257171E+02  0.00000000000E+00 0.  1.
        -13    1    3    3    0    0  0.19095787744E+02  0.35203198773E+02  0.98395395166E+03  0.98476864963E+03  0.00000000000E+00 0. -1.
         22    1    1    2    0    0 -0.36119418818E+02 -0.26363346660E+02  0.14790194190E+03  0.15451415107E+03  0.00000000000E+00 0.  1.
<mgrwt>
<rscale>  0 0.82160596E+02</rscale>
<asrwt>0</asrwt>
<pdfrwt beam="1">  1        2 0.18159783E+00 0.10062970E+03</pdfrwt>
<pdfrwt beam="2">  1       -2 0.88706461E-03 0.10062970E+03</pdfrwt>
<totfact> 0.47734707E+04</totfact>
</mgrwt>
</event>
<event>
 6    1  0.2995420E-002  0.9315950E+02  0.7546771E-02  0.1402770E+00
          2   -1    0    0  501    0  0.00000000000E+00  0.00000000000E+00  0.49423292135E+03  0.49423292135E+03  0.00000000000E+00 0. -1.
         -2   -1    0    0    0  501 -0.00000000000E+00 -0.00000000000E+00 -0.69988530705E+01  0.69988530705E+01  0.00000000000E+00 0.  1.
         23    2    1    2    0    0  0.96738286320E+01  0.11232986339E+02  0.46669156227E+03  0.47589884140E+03  0.91972441546E+02 0.  0.
         13    1    3    3    0    0  0.34787937948E+02 -0.28548068451E+02  0.19164016279E+03  0.19685310471E+03  0.00000000000E+00 0. -1.
        -13    1    3    3    0    0 -0.25114109316E+02  0.39781054790E+02  0.27505139948E+03  0.27904573669E+03  0.00000000000E+00 0.  1.
         22    1    1    2    0    0 -0.96738286320E+01 -0.11232986339E+02  0.20542506002E+02  0.25332933019E+02  0.00000000000E+00 0. -1.
<mgrwt>
<rscale>  0 0.58838918E+02</rscale>
<asrwt>0</asrwt>
<pdfrwt beam="1">  1        2 0.76035807E-01 0.93159503E+02</pdfrwt>
<pdfrwt beam="2">  1       -2 0.10767470E-02 0.93159503E+02</pdfrwt>
<totfact> 0.10491469E+05</totfact>
</mgrwt>
</event>
<event>
 6    1  0.2995420E-002  0.9442724E+02  0.7546771E-02  0.1402459E+00
         -2   -1    0    0    0  501 -0.00000000000E+00  0.00000000000E+00  0.21396504072E+02  0.21396504072E+02  0.00000000000E+00 0.  1.
          2   -1    0    0  501    0  0.00000000000E+00 -0.00000000000E+00 -0.18071034383E+03  0.18071034383E+03  0.00000000000E+00 0. -1.
         23    2    1    2    0    0 -0.13871789831E+02 -0.34947607854E+01 -0.16203834173E+03  0.18754447114E+03  0.93337369560E+02 0.  0.
         13    1    3    3    0    0 -0.26727861756E+02  0.39974473186E+02 -0.69686210516E+02  0.84667024494E+02  0.00000000000E+00 0.  1.
        -13    1    3    3    0    0  0.12856071926E+02 -0.43469233972E+02 -0.92352131217E+02  0.10287744664E+03  0.00000000000E+00 0. -1.
         22    1    1    2    0    0  0.13871789831E+02  0.34947607854E+01  0.27245019753E+01  0.14562376766E+02  0.00000000000E+00 0.  1.
<mgrwt>
<rscale>  0 0.58911052E+02</rscale>
<asrwt>0</asrwt>
<pdfrwt beam="1">  1        2 0.27801592E-01 0.94427244E+02</pdfrwt>
<pdfrwt beam="2">  1       -2 0.32917698E-02 0.94427244E+02</pdfrwt>
<totfact> 0.61130336E+04</totfact>
</mgrwt>
</event>
<event>
 6    1  0.2995420E-002  0.9706200E+02  0.7546771E-02  0.1379328E+00
          2   -1    0    0  501    0  0.00000000000E+00  0.00000000000E+00  0.38016267075E+02  0.38016267075E+02  0.00000000000E+00 0. -1.
         -2   -1    0    0    0  501 -0.00000000000E+00 -0.00000000000E+00 -0.91753616410E+02  0.91753616410E+02  0.00000000000E+00 0.  1.
         23    2    1    2    0    0 -0.18685808879E+02  0.39228499010E+01 -0.35453951668E+02  0.10333447475E+03  0.95165554577E+02 0.  0.
         13    1    3    3    0    0 -0.19795049268E+02  0.48375163303E+02 -0.14921386329E+02  0.54356675488E+02  0.00000000000E+00 0. -1.
        -13    1    3    3    0    0  0.11092403889E+01 -0.44452313402E+02 -0.20532565339E+02  0.48977799261E+02  0.00000000000E+00 0.  1.
         22    1    1    2    0    0  0.18685808879E+02 -0.39228499010E+01 -0.18283397666E+02  0.26435408736E+02  0.00000000000E+00 0.  1.
<mgrwt>
<rscale>  0 0.64640734E+02</rscale>
<asrwt>0</asrwt>
<pdfrwt beam="1">  1        2 0.58486565E-02 0.97061996E+02</pdfrwt>
<pdfrwt beam="2">  1       -2 0.14115941E-01 0.97061996E+02</pdfrwt>
<totfact> 0.42151211E+04</totfact>
</mgrwt>
</event>
<event>
 6    1  0.2995420E-002  0.9532513E+02  0.7546771E-02  0.1381527E+00
          2   -1    0    0  501    0  0.00000000000E+00  0.00000000000E+00  0.76254940999E+03  0.76254940999E+03  0.00000000000E+00 0. -1.
         -2   -1    0    0    0  501 -0.00000000000E+00 -0.00000000000E+00 -0.75736537932E+01  0.75736537932E+01  0.00000000000E+00 0.  1.
         23    2    1    2    0    0  0.14572264082E+02  0.12876480704E+02  0.73852566381E+03  0.74465229278E+03  0.93320557273E+02 0.  0.
         13    1    3    3    0    0 -0.11298330684E+02 -0.37198631322E+02  0.31707302851E+03  0.31944748529E+03  0.00000000000E+00 0. -1.
        -13    1    3    3    0    0  0.25870594765E+02  0.50075112026E+02  0.42145263530E+03  0.42520480750E+03  0.00000000000E+00 0.  1.
         22    1    1    2    0    0 -0.14572264082E+02 -0.12876480704E+02  0.16450092395E+02  0.25470771005E+02  0.00000000000E+00 0.  1.
<mgrwt>
<rscale>  0 0.64064028E+02</rscale>
<asrwt>0</asrwt>
<pdfrwt beam="1">  1        2 0.11731523E+00 0.95325133E+02</pdfrwt>
<pdfrwt beam="2">  1       -2 0.11651781E-02 0.95325133E+02</pdfrwt>
<totfact> 0.57589325E+04</totfact>
</mgrwt>
</event>
<event>
 6    1  0.2995420E-002  0.9462037E+02  0.7546771E-02  0.1382235E+00
         -4   -1    0    0    0  501 -0.00000000000E+00  0.00000000000E+00  0.50128372161E+02  0.50128372161E+02  0.00000000000E+00 0.  1.
          4   -1    0    0  501    0  0.00000000000E+00 -0.00000000000E+00 -0.66157248812E+02  0.66157248812E+02  0.00000000000E+00 0. -1.
         23    2    1    2    0    0 -0.19603035726E+02  0.14464422416E+01 -0.18694217671E+02  0.96449410458E+02  0.92556165643E+02 0.  0.
         11    1    3    3    0    0 -0.49146783160E+02 -0.14672173423E+02  0.99604694780E+01  0.52248348492E+02  0.00000000000E+00 0.  1.
        -11    1    3    3    0    0  0.29543747433E+02  0.16118615665E+02 -0.28654687149E+02  0.44201061966E+02  0.00000000000E+00 0. -1.
         22    1    1    2    0    0  0.19603035726E+02 -0.14464422416E+01  0.26653410198E+01  0.19836210515E+02  0.00000000000E+00 0.  1.
<mgrwt>
<rscale>  0 0.63879879E+02</rscale>
<asrwt>0</asrwt>
<pdfrwt beam="1">  1        4 0.10178038E-01 0.94620373E+02</pdfrwt>
<pdfrwt beam="2">  1       -4 0.77120573E-02 0.94620373E+02</pdfrwt>
<totfact> 0.12659419E+04</totfact>
</mgrwt>
</event>
<event>
 6    1  0.2995420E-002  0.9309984E+02  0.7546771E-02  0.1361250E+00
         -2   -1    0    0    0  501 -0.00000000000E+00  0.00000000000E+00  0.50857688519E+01  0.50857688519E+01  0.00000000000E+00 0.  1.
          2   -1    0    0  501    0  0.00000000000E+00 -0.00000000000E+00 -0.17974749573E+04  0.17974749573E+04  0.00000000000E+00 0. -1.
         23    2    1    2    0    0 -0.24635468422E+02 -0.15641840275E+02 -0.17408175338E+04  0.17433052704E+04  0.88408180477E+02 0.  0.
         13    1    3    3    0    0 -0.10192915519E+02 -0.38683088701E+01 -0.16712486953E+04  0.16712842549E+04  0.00000000000E+00 0. -1.
        -13    1    3    3    0    0 -0.14442552903E+02 -0.11773531405E+02 -0.69568838580E+02  0.72021015526E+02  0.00000000000E+00 0.  1.
         22    1    1    2    0    0  0.24635468422E+02  0.15641840275E+02 -0.51571654601E+02  0.59255455696E+02  0.00000000000E+00 0.  1.
<mgrwt>
<rscale>  0 0.69660961E+02</rscale>
<asrwt>0</asrwt>
<pdfrwt beam="1">  1        2 0.27653466E+00 0.93099838E+02</pdfrwt>
<pdfrwt beam="2">  1       -2 0.78242583E-03 0.93099838E+02</pdfrwt>
<totfact> 0.27151235E+04</totfact>
</mgrwt>
</event>
<event>
 6    1  0.2995420E-002  0.9161965E+02  0.7546771E-02  0.1415261E+00
         -2   -1    0    0    0  501 -0.00000000000E+00  0.00000000000E+00  0.74686453516E+02  0.74686453516E+02  0.00000000000E+00 0.  1.
          2   -1    0    0  501    0  0.00000000000E+00 -0.00000000000E+00 -0.38385999094E+02  0.38385999094E+02  0.00000000000E+00 0. -1.
         23    2    1    2    0    0 -0.68970154611E+01 -0.10807494356E+02  0.22716743445E+02  0.94393909828E+02  0.90718184635E+02 0.  0.
         11    1    3    3    0    0 -0.35606148396E+02  0.25859479716E+02  0.18148624735E+02  0.47601292782E+02  0.00000000000E+00 0.  1.
        -11    1    3    3    0    0  0.28709132935E+02 -0.36666974072E+02  0.45681187096E+01  0.46792617046E+02  0.00000000000E+00 0. -1.
         22    1    1    2    0    0  0.68970154611E+01  0.10807494356E+02  0.13583710977E+02  0.18678542781E+02  0.00000000000E+00 0.  1.
<mgrwt>
<rscale>  0 0.56036310E+02</rscale>
<asrwt>0</asrwt>
<pdfrwt beam="1">  1        2 0.59055383E-02 0.91619647E+02</pdfrwt>
<pdfrwt beam="2">  1       -2 0.11490224E-01 0.91619647E+02</pdfrwt>
<totfact> 0.57309231E+04</totfact>
</mgrwt>
</event>
<event>
 6    1  0.2995420E-002  0.9595389E+02  0.7546771E-02  0.1366639E+00
         -2   -1    0    0    0  501 -0.00000000000E+00  0.00000000000E+00  0.26676554434E+02  0.26676554434E+02  0.00000000000E+00 0.  1.
          2   -1    0    0  501    0  0.00000000000E+00 -0.00000000000E+00 -0.14874542408E+03  0.14874542408E+03  0.00000000000E+00 0. -1.
         23    2    1    2    0    0 -0.18586255562E+02 -0.15746173573E+02 -0.11556723297E+03  0.15020963714E+03  0.92810338196E+02 0.  0.
         11    1    3    3    0    0  0.46225191608E+01  0.23635226837E+02 -0.98523277828E+02  0.10142400064E+03  0.00000000000E+00 0.  1.
        -11    1    3    3    0    0 -0.23208774723E+02 -0.39381400410E+02 -0.17043955141E+02  0.48785636505E+02  0.00000000000E+00 0. -1.
         22    1    1    2    0    0  0.18586255562E+02  0.15746173573E+02 -0.65016366777E+01  0.25212341373E+02  0.00000000000E+00 0.  1.
<mgrwt>
<rscale>  0 0.68110577E+02</rscale>
<asrwt>0</asrwt>
<pdfrwt beam="1">  1        2 0.22883912E-01 0.95953894E+02</pdfrwt>
<pdfrwt beam="2">  1       -2 0.41040853E-02 0.95953894E+02</pdfrwt>
<totfact> 0.54805365E+04</totfact>
</mgrwt>
</event>
<event>
 6    1  0.2995420E-002  0.9268393E+02  0.7546771E-02  0.1395603E+00
          2   -1    0    0  501    0  0.00000000000E+00  0.00000000000E+00  0.35406037787E+02  0.35406037787E+02  0.00000000000E+00 0. -1.
         -2   -1    0    0    0  501 -0.00000000000E+00 -0.00000000000E+00 -0.89513908230E+02  0.89513908230E+02  0.00000000000E+00 0.  1.
         23    2    1    2    0    0 -0.12773603613E+02 -0.11012382494E+02 -0.34113653496E+02  0.98762609975E+02  0.91136569262E+02 0.  0.
         13    1    3    3    0    0 -0.13716001349E+02  0.23574471558E+02  0.20494398329E+02  0.34116048498E+02  0.00000000000E+00 0. -1.
        -13    1    3    3    0    0  0.94239773596E+00 -0.34586854052E+02 -0.54608051825E+02  0.64646561478E+02  0.00000000000E+00 0.  1.
         22    1    1    2    0    0  0.12773603613E+02  0.11012382494E+02 -0.19994216947E+02  0.26157336041E+02  0.00000000000E+00 0. -1.
<mgrwt>
<rscale>  0 0.60534325E+02</rscale>
<asrwt>0</asrwt>
<pdfrwt beam="1">  1        2 0.54470827E-02 0.92683935E+02</pdfrwt>
<pdfrwt beam="2">  1       -2 0.13771371E-01 0.92683935E+02</pdfrwt>
<totfact> 0.47735421E+04</totfact>
</mgrwt>
</event>
<event>
 6    1  0.2995420E-002  0.9283309E+02  0.7546771E-02  0.1394595E+00
          2   -1    0    0  501    0  0.00000000000E+00  0.00000000000E+00  0.95010270419E+02  0.95010270419E+02  0.00000000000E+00 0. -1.
         -2   -1    0    0    0  501 -0.00000000000E+00 -0.00000000000E+00 -0.31825210918E+02  0.31825210918E+02  0.00000000000E+00 0.  1.
         23    2    1    2    0    0  0.12382006067E+02 -0.11730209535E+02  0.55176683957E+02  0.10799281781E+03  0.91252782728E+02 0.  0.
         13    1    3    3    0    0  0.17212324874E+02 -0.28092401513E+02  0.74953246226E+02  0.81874515388E+02  0.00000000000E+00 0. -1.
        -13    1    3    3    0    0 -0.48303188061E+01  0.16362191978E+02 -0.19776562269E+02  0.26118302420E+02  0.00000000000E+00 0.  1.
         22    1    1    2    0    0 -0.12382006067E+02  0.11730209535E+02  0.80083755444E+01  0.18842663529E+02  0.00000000000E+00 0. -1.
<mgrwt>
<rscale>  0 0.60778123E+02</rscale>
<asrwt>0</asrwt>
<pdfrwt beam="1">  1        2 0.14616965E-01 0.92833088E+02</pdfrwt>
<pdfrwt beam="2">  1       -2 0.48961863E-02 0.92833088E+02</pdfrwt>
<totfact> 0.69748628E+04</totfact>
</mgrwt>
</event>
<event>
 6    1  0.2995420E-002  0.9258007E+02  0.7546771E-02  0.1392487E+00
          2   -1    0    0  501    0  0.00000000000E+00  0.00000000000E+00  0.26593303646E+03  0.26593303646E+03  0.00000000000E+00 0. -1.
         -2   -1    0    0    0  501 -0.00000000000E+00 -0.00000000000E+00 -0.11560512519E+02  0.11560512519E+02  0.00000000000E+00 0.  1.
         23    2    1    2    0    0  0.15186980612E+02 -0.92565732507E+01  0.20258292217E+03  0.22273506671E+03  0.90855605554E+02 0.  0.
         13    1    3    3    0    0 -0.13245098001E+02 -0.15649861398E+02  0.26309204062E+01  0.20670571473E+02  0.00000000000E+00 0.  1.
        -13    1    3    3    0    0  0.28432078614E+02  0.63932881474E+01  0.19995200176E+03  0.20206449524E+03  0.00000000000E+00 0. -1.
         22    1    1    2    0    0 -0.15186980612E+02  0.92565732507E+01  0.51789601774E+02  0.54758482269E+02  0.00000000000E+00 0. -1.
<mgrwt>
<rscale>  0 0.61292231E+02</rscale>
<asrwt>0</asrwt>
<pdfrwt beam="1">  1        2 0.40912770E-01 0.92580071E+02</pdfrwt>
<pdfrwt beam="2">  1       -2 0.17785406E-02 0.92580071E+02</pdfrwt>
<totfact> 0.98499284E+04</totfact>
</mgrwt>
</event>
<event>
 6    1  0.2995420E-002  0.6331632E+02  0.7546771E-02  0.1444117E+00
         -2   -1    0    0    0  501 -0.00000000000E+00  0.00000000000E+00  0.35066105426E+01  0.35066105426E+01  0.00000000000E+00 0.  1.
          2   -1    0    0  501    0  0.00000000000E+00 -0.00000000000E+00 -0.57775528659E+03  0.57775528659E+03  0.00000000000E+00 0. -1.
         23    2    1    2    0    0 -0.17047024557E+02  0.18387895518E+02 -0.45674241703E+03  0.46111017365E+03  0.58139839872E+02 0.  0.
         13    1    3    3    0    0  0.15060997440E+01  0.36695339911E+02 -0.29571538821E+03  0.29798726002E+03  0.00000000000E+00 0.  1.
        -13    1    3    3    0    0 -0.18553124301E+02 -0.18307444393E+02 -0.16102702882E+03  0.16312291363E+03  0.00000000000E+00 0. -1.
         22    1    1    2    0    0  0.17047024557E+02 -0.18387895518E+02 -0.11750625902E+03  0.12015172348E+03  0.00000000000E+00 0. -1.
<mgrwt>
<rscale>  0 0.50227731E+02</rscale>
<asrwt>0</asrwt>
<pdfrwt beam="1">  1        2 0.88885367E-01 0.63316323E+02</pdfrwt>
<pdfrwt beam="2">  1       -2 0.53947892E-03 0.63316323E+02</pdfrwt>
<totfact> 0.21923944E+05</totfact>
</mgrwt>
</event>
<event>
 6    1  0.2995420E-002  0.9674421E+02  0.7546771E-02  0.1373648E+00
         -1   -1    0    0    0  501 -0.00000000000E+00  0.00000000000E+00  0.19405389277E+02  0.19405389277E+02  0.00000000000E+00 0.  1.
          1   -1    0    0  501    0  0.00000000000E+00 -0.00000000000E+00 -0.18594471128E+03  0.18594471128E+03  0.00000000000E+00 0. -1.
         23    2    1    2    0    0  0.56890869481E+01 -0.20384781127E+02 -0.14999139519E+03  0.17848490200E+03  0.94400935365E+02 0.  0.
         13    1    3    3    0    0 -0.31196091627E+02 -0.87296350337E+01 -0.13182834576E+03  0.13575019486E+03  0.00000000000E+00 0.  1.
        -13    1    3    3    0    0  0.36885178576E+02 -0.11655146094E+02 -0.18163049434E+02  0.42734707133E+02  0.00000000000E+00 0. -1.
         22    1    1    2    0    0 -0.56890869481E+01  0.20384781127E+02 -0.16547926816E+02  0.26865198563E+02  0.00000000000E+00 0.  1.
<mgrwt>
<rscale>  0 0.66163271E+02</rscale>
<asrwt>0</asrwt>
<pdfrwt beam="1">  1        1 0.28606878E-01 0.96744207E+02</pdfrwt>
<pdfrwt beam="2">  1       -1 0.29854446E-02 0.96744207E+02</pdfrwt>
<totfact> 0.53441008E+04</totfact>
</mgrwt>
</event>
<event>
 6    1  0.2995420E-002  0.9218120E+02  0.7546771E-02  0.1402860E+00
          2   -1    0    0  501    0  0.00000000000E+00  0.00000000000E+00  0.26511115982E+03  0.26511115982E+03  0.00000000000E+00 0. -1.
         -2   -1    0    0    0  501 -0.00000000000E+00 -0.00000000000E+00 -0.11480987874E+02  0.11480987874E+02  0.00000000000E+00 0.  1.
         23    2    1    2    0    0 -0.52047130629E+01  0.14365929093E+02  0.23540059341E+03  0.25280588085E+03  0.90906023217E+02 0.  0.
         13    1    3    3    0    0 -0.44914066471E+02 -0.31697852643E+01  0.15534560850E+03  0.16173923144E+03  0.00000000000E+00 0. -1.
        -13    1    3    3    0    0  0.39709353408E+02  0.17535714357E+02  0.80054984905E+02  0.91066649407E+02  0.00000000000E+00 0.  1.
         22    1    1    2    0    0  0.52047130629E+01 -0.14365929093E+02  0.18229578533E+02  0.23786266841E+02  0.00000000000E+00 0. -1.
<mgrwt>
<rscale>  0 0.58818022E+02</rscale>
<asrwt>0</asrwt>
<pdfrwt beam="1">  1        2 0.40786328E-01 0.92181202E+02</pdfrwt>
<pdfrwt beam="2">  1       -2 0.17663060E-02 0.92181202E+02</pdfrwt>
<totfact> 0.99737422E+04</totfact>
</mgrwt>
</event>
<event>
 6    1  0.2995420E-002  0.1052599E+03  0.7546771E-02  0.1303284E+00
         -2   -1    0    0    0  501 -0.00000000000E+00  0.00000000000E+00  0.58170739160E+01  0.58170739160E+01  0.00000000000E+00 0.  1.
          2   -1    0    0  501    0  0.00000000000E+00 -0.00000000000E+00 -0.13151456733E+04  0.13151456733E+04  0.00000000000E+00 0. -1.
         23    2    1    2    0    0  0.41221012654E+02 -0.37629400560E+02 -0.10721917578E+04  0.10773461934E+04  0.89244110197E+02 0.  0.
         13    1    3    3    0    0  0.11774961061E+01 -0.21271642332E+02 -0.51423973773E+02  0.55662324270E+02  0.00000000000E+00 0.  1.
        -13    1    3    3    0    0  0.40043516548E+02 -0.16357758228E+02 -0.10207677841E+04  0.10216838691E+04  0.00000000000E+00 0. -1.
         22    1    1    2    0    0 -0.41221012654E+02  0.37629400560E+02 -0.23713684155E+03  0.24361655381E+03  0.00000000000E+00 0.  1.
<mgrwt>
<rscale>  0 0.89821871E+02</rscale>
<asrwt>0</asrwt>
<pdfrwt beam="1">  1        2 0.20233022E+00 0.10525994E+03</pdfrwt>
<pdfrwt beam="2">  1       -2 0.89493394E-03 0.10525994E+03</pdfrwt>
<totfact> 0.40048164E+04</totfact>
</mgrwt>
</event>
<event>
 6    1  0.2995420E-002  0.8734135E+02  0.7546771E-02  0.1428278E+00
         -1   -1    0    0    0  501 -0.00000000000E+00  0.00000000000E+00  0.16894578932E+02  0.16894578932E+02  0.00000000000E+00 0.  1.
          1   -1    0    0  501    0  0.00000000000E+00 -0.00000000000E+00 -0.16633890105E+03  0.16633890105E+03  0.00000000000E+00 0. -1.
         23    2    1    2    0    0 -0.17995550910E+01 -0.11985116612E+02 -0.14681700497E+03  0.17083250364E+03  0.86496415724E+02 0.  0.
         13    1    3    3    0    0  0.71791454566E+01 -0.46071979876E+02 -0.11185687499E+03  0.12118633562E+03  0.00000000000E+00 0. -1.
        -13    1    3    3    0    0 -0.89787005476E+01  0.34086863264E+02 -0.34960129985E+02  0.49646168022E+02  0.00000000000E+00 0.  1.
         22    1    1    2    0    0  0.17995550910E+01  0.11985116612E+02 -0.26273171439E+01  0.12400976337E+02  0.00000000000E+00 0. -1.
<mgrwt>
<rscale>  0 0.53307189E+02</rscale>
<asrwt>0</asrwt>
<pdfrwt beam="1">  1        1 0.25590600E-01 0.87341350E+02</pdfrwt>
<pdfrwt beam="2">  1       -1 0.25991660E-02 0.87341350E+02</pdfrwt>
<totfact> 0.73762625E+04</totfact>
</mgrwt>
</event>
<event>
 6    1  0.2995420E-002  0.9251784E+02  0.7546771E-02  0.1425631E+00
          1   -1    0    0  501    0  0.00000000000E+00  0.00000000000E+00  0.34805969204E+03  0.34805969204E+03  0.00000000000E+00 0. -1.
         -1   -1    0    0    0  501 -0.00000000000E+00 -0.00000000000E+00 -0.80640142683E+01  0.80640142683E+01  0.00000000000E+00 0.  1.
         23    2    1    2    0    0 -0.10376560610E+02 -0.22431739791E+01  0.32380483177E+03  0.33676270598E+03  0.91906725652E+02 0.  0.
         13    1    3    3    0    0  0.67233446801E+01  0.43291370823E+02  0.15990328278E+03  0.16579627859E+03  0.00000000000E+00 0. -1.
        -13    1    3    3    0    0 -0.17099905291E+02 -0.45534544802E+02  0.16390154899E+03  0.17096642739E+03  0.00000000000E+00 0.  1.
         22    1    1    2    0    0  0.10376560610E+02  0.22431739791E+01  0.16190846008E+02  0.19361000337E+02  0.00000000000E+00 0. -1.
<mgrwt>
<rscale>  0 0.53847053E+02</rscale>
<asrwt>0</asrwt>
<pdfrwt beam="1">  1        1 0.53547633E-01 0.92517842E+02</pdfrwt>
<pdfrwt beam="2">  1       -1 0.12406178E-02 0.92517842E+02</pdfrwt>
<totfact> 0.86348381E+04</totfact>
</mgrwt>
</event>
<event>
 6    1  0.2995420E-002  0.1061293E+03  0.7546771E-02  0.1320263E+00
          2   -1    0    0  501    0  0.00000000000E+00  0.00000000000E+00  0.88631154850E+02  0.88631154850E+02  0.00000000000E+00 0. -1.
         -2   -1    0    0    0  501 -0.00000000000E+00 -0.00000000000E+00 -0.10666978994E+03  0.10666978994E+03  0.00000000000E+00 0.  1.
         23    2    1    2    0    0  0.33858465954E+02  0.21384565422E+02  0.49247953312E+02  0.11699909083E+03  0.98283930499E+02 0.  0.
         11    1    3    3    0    0  0.58529608868E+02  0.38125124322E+01  0.60894198084E+02  0.84547937441E+02  0.00000000000E+00 0. -1.
        -11    1    3    3    0    0 -0.24671142914E+02  0.17572052989E+02 -0.11646244772E+02  0.32451153388E+02  0.00000000000E+00 0.  1.
         22    1    1    2    0    0 -0.33858465954E+02 -0.21384565422E+02 -0.67286588401E+02  0.78301853961E+02  0.00000000000E+00 0.  1.
<mgrwt>
<rscale>  0 0.83179572E+02</rscale>
<asrwt>0</asrwt>
<pdfrwt beam="1">  1        2 0.13635562E-01 0.10612929E+03</pdfrwt>
<pdfrwt beam="2">  1       -2 0.16410737E-01 0.10612929E+03</pdfrwt>
<totfact> 0.11778370E+04</totfact>
</mgrwt>
</event>
<event>
 6    1  0.2995420E-002  0.9589214E+02  0.7546771E-02  0.1387526E+00
         -2   -1    0    0    0  501 -0.00000000000E+00  0.00000000000E+00  0.35717591701E+02  0.35717591701E+02  0.00000000000E+00 0. -1.
          2   -1    0    0  501    0  0.00000000000E+00 -0.00000000000E+00 -0.20240006455E+03  0.20240006455E+03  0.00000000000E+00 0.  1.
         23    2    1    2    0    0  0.50302898511E+01 -0.16588035638E+02 -0.18775900000E+03  0.21082870722E+03  0.94312432719E+02 0.  0.
         11    1    3    3    0    0  0.22086674718E+02  0.76394043982E+01 -0.17815575767E+03  0.17968209619E+03  0.00000000000E+00 0.  1.
        -11    1    3    3    0    0 -0.17056384867E+02 -0.24227440037E+02 -0.96032423260E+01  0.31146611030E+02  0.00000000000E+00 0. -1.
         22    1    1    2    0    0 -0.50302898511E+01  0.16588035638E+02  0.21076527152E+02  0.27288949029E+02  0.00000000000E+00 0.  1.
<mgrwt>
<rscale>  0 0.62526165E+02</rscale>
<asrwt>0</asrwt>
<pdfrwt beam="1">  1        2 0.31138472E-01 0.95892136E+02</pdfrwt>
<pdfrwt beam="2">  1       -2 0.54950140E-02 0.95892136E+02</pdfrwt>
<totfact> 0.25448799E+04</totfact>
</mgrwt>
</event>
<event>
 6    1  0.2995420E-002  0.9356833E+02  0.7546771E-02  0.1374172E+00
         -2   -1    0    0    0  501 -0.00000000000E+00  0.00000000000E+00  0.79268481606E+01  0.79268481606E+01  0.00000000000E+00 0. -1.
          2   -1    0    0  501    0  0.00000000000E+00 -0.00000000000E+00 -0.63827043030E+03  0.63827043030E+03  0.00000000000E+00 0.  1.
         23    2    1    2    0    0  0.19947221329E+02 -0.11831384461E+02 -0.60355240688E+03  0.61076226232E+03  0.90648551722E+02 0.  0.
         11    1    3    3    0    0 -0.46155362356E+01 -0.27690663638E+02 -0.58098213001E+02  0.64525021358E+02  0.00000000000E+00 0. -1.
        -11    1    3    3    0    0  0.24562757564E+02  0.15859279177E+02 -0.54545419388E+03  0.54623724096E+03  0.00000000000E+00 0.  1.
         22    1    1    2    0    0 -0.19947221329E+02  0.11831384461E+02 -0.26791175263E+02  0.35435016142E+02  0.00000000000E+00 0. -1.
<mgrwt>
<rscale>  0 0.66020935E+02</rscale>
<asrwt>0</asrwt>
<pdfrwt beam="1">  1        2 0.98195467E-01 0.93568335E+02</pdfrwt>
<pdfrwt beam="2">  1       -2 0.12195149E-02 0.93568335E+02</pdfrwt>
<totfact> 0.66296241E+04</totfact>
</mgrwt>
</event>
<event>
 6    1  0.2995420E-002  0.9212410E+02  0.7546771E-02  0.1393624E+00
         -2   -1    0    0    0  501 -0.00000000000E+00  0.00000000000E+00  0.92668961890E+01  0.92668961890E+01  0.00000000000E+00 0.  1.
          2   -1    0    0  501    0  0.00000000000E+00 -0.00000000000E+00 -0.33178592186E+03  0.33178592186E+03  0.00000000000E+00 0. -1.
         23    2    1    2    0    0 -0.13385191566E+02 -0.11620505340E+02 -0.28577134277E+03  0.30025341001E+03  0.90402712224E+02 0.  0.
         11    1    3    3    0    0 -0.13847613118E+02  0.16627723042E+02 -0.26321092335E+03  0.26409889764E+03  0.00000000000E+00 0. -1.
        -11    1    3    3    0    0  0.46242155229E+00 -0.28248228382E+02 -0.22560419412E+02  0.36154512366E+02  0.00000000000E+00 0.  1.
         22    1    1    2    0    0  0.13385191566E+02  0.11620505340E+02 -0.36747682906E+02  0.40799408042E+02  0.00000000000E+00 0.  1.
<mgrwt>
<rscale>  0 0.61014159E+02</rscale>
<asrwt>0</asrwt>
<pdfrwt beam="1">  1        2 0.51043981E-01 0.92124100E+02</pdfrwt>
<pdfrwt beam="2">  1       -2 0.14256765E-02 0.92124100E+02</pdfrwt>
<totfact> 0.10712141E+05</totfact>
</mgrwt>
</event>
<event>
 6    1  0.2995420E-002  0.1023701E+03  0.7546771E-02  0.1322498E+00
          2   -1    0    0  501    0  0.00000000000E+00  0.00000000000E+00  0.83342977799E+02  0.83342977799E+02  0.00000000000E+00 0. -1.
         -2   -1    0    0    0  501 -0.00000000000E+00 -0.00000000000E+00 -0.83679862367E+02  0.83679862367E+02  0.00000000000E+00 0.  1.
         23    2    1    2    0    0 -0.40325405038E+02  0.14574487104E+02  0.38304604917E+02  0.10930179829E+03  0.92957443947E+02 0.  0.
         11    1    3    3    0    0 -0.13395384836E+02 -0.39412921342E+02  0.20481141536E+02  0.46392799681E+02  0.00000000000E+00 0. -1.
        -11    1    3    3    0    0 -0.26930020202E+02  0.53987408446E+02  0.17823463381E+02  0.62908998607E+02  0.00000000000E+00 0.  1.
         22    1    1    2    0    0  0.40325405038E+02 -0.14574487104E+02 -0.38641489486E+02  0.57721041879E+02  0.00000000000E+00 0. -1.
<mgrwt>
<rscale>  0 0.82354899E+02</rscale>
<asrwt>0</asrwt>
<pdfrwt beam="1">  1        2 0.12821997E-01 0.10237011E+03</pdfrwt>
<pdfrwt beam="2">  1       -2 0.12873825E-01 0.10237011E+03</pdfrwt>
<totfact> 0.18688452E+04</totfact>
</mgrwt>
</event>
<event>
 6    1  0.2995420E-002  0.9446760E+02  0.7546771E-02  0.1385246E+00
         -2   -1    0    0    0  501 -0.00000000000E+00  0.00000000000E+00  0.10561566576E+02  0.10561566576E+02  0.00000000000E+00 0.  1.
          2   -1    0    0  501    0  0.00000000000E+00 -0.00000000000E+00 -0.49679049588E+03  0.49679049588E+03  0.00000000000E+00 0. -1.
         23    2    1    2    0    0 -0.12468117725E+02 -0.14084518048E+02 -0.47724804717E+03  0.48650778621E+03  0.92575914305E+02 0.  0.
         11    1    3    3    0    0 -0.36681364314E+02  0.29132925368E+01 -0.78856163519E+02  0.87018988079E+02  0.00000000000E+00 0.  1.
        -11    1    3    3    0    0  0.24213246589E+02 -0.16997810585E+02 -0.39839188365E+03  0.39948879813E+03  0.00000000000E+00 0. -1.
         22    1    1    2    0    0  0.12468117725E+02  0.14084518048E+02 -0.89808821367E+01  0.20844276246E+02  0.00000000000E+00 0.  1.
<mgrwt>
<rscale>  0 0.63104616E+02</rscale>
<asrwt>0</asrwt>
<pdfrwt beam="1">  1        2 0.76429325E-01 0.94467600E+02</pdfrwt>
<pdfrwt beam="2">  1       -2 0.16248560E-02 0.94467600E+02</pdfrwt>
<totfact> 0.58174233E+04</totfact>
</mgrwt>
</event>
<event>
 6    1  0.2995420E-002  0.9184226E+02  0.7546771E-02  0.1406620E+00
          2   -1    0    0  501    0  0.00000000000E+00  0.00000000000E+00  0.22630337378E+04  0.22630337378E+04  0.00000000000E+00 0. -1.
         -2   -1    0    0    0  501 -0.00000000000E+00 -0.00000000000E+00 -0.18345459021E+01  0.18345459021E+01  0.00000000000E+00 0.  1.
         23    2    1    2    0    0 -0.13715957667E+02  0.48924731439E+01  0.22016352916E+04  0.22035500808E+04  0.90680414585E+02 0.  0.
         13    1    3    3    0    0 -0.44091643103E+02  0.22232541545E+02  0.16896786832E+04  0.16904000743E+04  0.00000000000E+00 0.  1.
        -13    1    3    3    0    0  0.30375685436E+02 -0.17340068401E+02  0.51195660841E+03  0.51315000647E+03  0.00000000000E+00 0. -1.
         22    1    1    2    0    0  0.13715957667E+02 -0.48924731439E+01  0.59563900247E+02  0.61318202851E+02  0.00000000000E+00 0.  1.
<mgrwt>
<rscale>  0 0.57954912E+02</rscale>
<asrwt>0</asrwt>
<pdfrwt beam="1">  1        2 0.34815680E+00 0.91842264E+02</pdfrwt>
<pdfrwt beam="2">  1       -2 0.28223964E-03 0.91842264E+02</pdfrwt>
<totfact> 0.65874124E+04</totfact>
</mgrwt>
</event>
<event>
 6    1  0.2995420E-002  0.9184333E+02  0.7546771E-02  0.1365052E+00
          2   -1    0    0  501    0  0.00000000000E+00  0.00000000000E+00  0.74940137820E+03  0.74940137820E+03  0.00000000000E+00 0. -1.
         -2   -1    0    0    0  501 -0.00000000000E+00 -0.00000000000E+00 -0.51309742043E+01  0.51309742043E+01  0.00000000000E+00 0.  1.
         23    2    1    2    0    0  0.11650263159E+02  0.26035182011E+02  0.63468635305E+03  0.64129709484E+03  0.87301991775E+02 0.  0.
         13    1    3    3    0    0 -0.40617868502E+01  0.37837573187E+02  0.60169090810E+03  0.60289313228E+03  0.00000000000E+00 0. -1.
        -13    1    3    3    0    0  0.15712050009E+02 -0.11802391176E+02  0.32995444943E+02  0.38403962555E+02  0.00000000000E+00 0.  1.
         22    1    1    2    0    0 -0.11650263159E+02 -0.26035182011E+02  0.10958405095E+03  0.11323525756E+03  0.00000000000E+00 0.  1.
<mgrwt>
<rscale>  0 0.68562140E+02</rscale>
<asrwt>0</asrwt>
<pdfrwt beam="1">  1        2 0.11529243E+00 0.91843329E+02</pdfrwt>
<pdfrwt beam="2">  1       -2 0.78938124E-03 0.91843329E+02</pdfrwt>
<totfact> 0.10156277E+05</totfact>
</mgrwt>
</event>
<event>
 6    1  0.2995420E-002  0.1073072E+03  0.7546771E-02  0.1298489E+00
         -2   -1    0    0    0  501 -0.00000000000E+00  0.00000000000E+00  0.15204731344E+03  0.15204731344E+03  0.00000000000E+00 0.  1.
          2   -1    0    0  501    0  0.00000000000E+00 -0.00000000000E+00 -0.81043274808E+02  0.81043274808E+02  0.00000000000E+00 0. -1.
         23    2    1    2    0    0  0.57375068033E+02 -0.43653932721E+01 -0.34667674708E+02  0.11276824581E+03  0.90575242215E+02 0.  0.
         13    1    3    3    0    0  0.23293595644E+02 -0.47144296250E+02 -0.15731287079E+02  0.54887609349E+02  0.00000000000E+00 0.  1.
        -13    1    3    3    0    0  0.34081472390E+02  0.42778902978E+02 -0.18936387629E+02  0.57880636457E+02  0.00000000000E+00 0. -1.
         22    1    1    2    0    0 -0.57375068033E+02  0.43653932721E+01  0.10567171334E+03  0.12032234244E+03  0.00000000000E+00 0.  1.
<mgrwt>
<rscale>  0 0.91826013E+02</rscale>
<asrwt>0</asrwt>
<pdfrwt beam="1">  1        2 0.12468196E-01 0.10730717E+03</pdfrwt>
<pdfrwt beam="2">  1       -2 0.23391894E-01 0.10730717E+03</pdfrwt>
<totfact> 0.72283021E+03</totfact>
</mgrwt>
</event>
<event>
 6    1  0.2995420E-002  0.9114154E+02  0.7546771E-02  0.1409674E+00
         -2   -1    0    0    0  501 -0.00000000000E+00  0.00000000000E+00  0.31693692383E+01  0.31693692383E+01  0.00000000000E+00 0.  1.
          2   -1    0    0  501    0  0.00000000000E+00 -0.00000000000E+00 -0.13668879065E+04  0.13668879065E+04  0.00000000000E+00 0. -1.
         23    2    1    2    0    0  0.10477808274E+02  0.95923290075E+01 -0.13340861927E+04  0.13371958533E+04  0.90027680428E+02 0.  0.
         11    1    3    3    0    0 -0.20021364083E+02  0.18102040857E+02 -0.13396863043E+03  0.13666064848E+03  0.00000000000E+00 0.  1.
        -11    1    3    3    0    0  0.30499172356E+02 -0.85097118492E+01 -0.12001175622E+04  0.12005352048E+04  0.00000000000E+00 0. -1.
         22    1    1    2    0    0 -0.10477808274E+02 -0.95923290075E+01 -0.29632344635E+02  0.32861422528E+02  0.00000000000E+00 0.  1.
<mgrwt>
<rscale>  0 0.57266637E+02</rscale>
<asrwt>0</asrwt>
<pdfrwt beam="1">  1        2 0.21029017E+00 0.91141541E+02</pdfrwt>
<pdfrwt beam="2">  1       -2 0.48759591E-03 0.91141541E+02</pdfrwt>
<totfact> 0.87222132E+04</totfact>
</mgrwt>
</event>
<event>
 6    1  0.2995420E-002  0.9219127E+02  0.7546771E-02  0.1402666E+00
          2   -1    0    0  501    0  0.00000000000E+00  0.00000000000E+00  0.60512949782E+03  0.60512949782E+03  0.00000000000E+00 0.  1.
         -2   -1    0    0    0  501 -0.00000000000E+00 -0.00000000000E+00 -0.61608515988E+01  0.61608515988E+01  0.00000000000E+00 0. -1.
         23    2    1    2    0    0  0.13928194424E+02  0.63838618128E+01  0.57807978991E+03  0.58538489421E+03  0.90909199627E+02 0.  0.
         13    1    3    3    0    0  0.20900139945E+01  0.46266000906E+02  0.21513374329E+03  0.22006235139E+03  0.00000000000E+00 0. -1.
        -13    1    3    3    0    0  0.11838180429E+02 -0.39882139094E+02  0.36294604662E+03  0.36532254282E+03  0.00000000000E+00 0.  1.
         22    1    1    2    0    0 -0.13928194424E+02 -0.63838618128E+01  0.20888856315E+02  0.25905455212E+02  0.00000000000E+00 0.  1.
<mgrwt>
<rscale>  0 0.58863037E+02</rscale>
<asrwt>0</asrwt>
<pdfrwt beam="1">  1        2 0.93096799E-01 0.92191273E+02</pdfrwt>
<pdfrwt beam="2">  1       -2 0.94782380E-03 0.92191273E+02</pdfrwt>
<totfact> 0.10046706E+05</totfact>
</mgrwt>
</event>
<event>
 6    1  0.2995420E-002  0.9262541E+02  0.7546771E-02  0.1424774E+00
         -2   -1    0    0    0  501 -0.00000000000E+00  0.00000000000E+00  0.13527353106E+02  0.13527353106E+02  0.00000000000E+00 0. -1.
          2   -1    0    0  501    0  0.00000000000E+00 -0.00000000000E+00 -0.30952849712E+03  0.30952849712E+03  0.00000000000E+00 0.  1.
         23    2    1    2    0    0  0.56833943851E+00  0.10703506305E+02 -0.29807815976E+03  0.31213788102E+03  0.92003148780E+02 0.  0.
         13    1    3    3    0    0  0.34836397061E+02 -0.25173555300E+02 -0.14247754113E+03  0.14881912570E+03  0.00000000000E+00 0.  1.
        -13    1    3    3    0    0 -0.34268057623E+02  0.35877061605E+02 -0.15560061863E+03  0.16331875533E+03  0.00000000000E+00 0. -1.
         22    1    1    2    0    0 -0.56833943851E+00 -0.10703506305E+02  0.20770157540E+01  0.10917969197E+02  0.00000000000E+00 0. -1.
<mgrwt>
<rscale>  0 0.54023409E+02</rscale>
<asrwt>0</asrwt>
<pdfrwt beam="1">  1        2 0.47619765E-01 0.92625415E+02</pdfrwt>
<pdfrwt beam="2">  1       -2 0.20811314E-02 0.92625415E+02</pdfrwt>
<totfact> 0.67071307E+04</totfact>
</mgrwt>
</event>
<event>
 6    1  0.2995420E-002  0.9143133E+02  0.7546771E-02  0.1379574E+00
          2   -1    0    0  501    0  0.00000000000E+00  0.00000000000E+00  0.12593207129E+04  0.12593207129E+04  0.00000000000E+00 0. -1.
         -2   -1    0    0    0  501 -0.00000000000E+00 -0.00000000000E+00 -0.16647162826E+02  0.16647162826E+02  0.00000000000E+00 0.  1.
         23    2    1    2    0    0  0.21977751069E+02 -0.58806002810E+01  0.12490092206E+04  0.12523512773E+04  0.88555551871E+02 0.  0.
         13    1    3    3    0    0 -0.42410316306E+01 -0.44151840834E+02  0.53419424592E+03  0.53603252119E+03  0.00000000000E+00 0.  1.
        -13    1    3    3    0    0  0.26218782700E+02  0.38271240553E+02  0.71481497463E+03  0.71631875613E+03  0.00000000000E+00 0. -1.
         22    1    1    2    0    0 -0.21977751069E+02  0.58806002810E+01 -0.63356704517E+01  0.23616598438E+02  0.00000000000E+00 0.  1.
<mgrwt>
<rscale>  0 0.64575963E+02</rscale>
<asrwt>0</asrwt>
<pdfrwt beam="1">  1        2 0.19374157E+00 0.91431334E+02</pdfrwt>
<pdfrwt beam="2">  1       -2 0.25611030E-02 0.91431334E+02</pdfrwt>
<totfact> 0.94289263E+03</totfact>
</mgrwt>
</event>
<event>
 6    1  0.2995420E-002  0.1112869E+03  0.7546771E-02  0.1287726E+00
          1   -1    0    0  501    0  0.00000000000E+00  0.00000000000E+00  0.42138585040E+03  0.42138585040E+03  0.00000000000E+00 0. -1.
         -1   -1    0    0    0  501 -0.00000000000E+00 -0.00000000000E+00 -0.26929682641E+02  0.26929682641E+02  0.00000000000E+00 0.  1.
         23    2    1    2    0    0 -0.54979080464E+02 -0.30855190403E+02  0.35927953304E+03  0.37612039683E+03  0.91706204710E+02 0.  0.
         13    1    3    3    0    0 -0.21855357684E+02  0.19897295181E+01  0.10667039136E+02  0.24400848489E+02  0.00000000000E+00 0.  1.
        -13    1    3    3    0    0 -0.33123722780E+02 -0.32844919921E+02  0.34861249391E+03  0.35171954834E+03  0.00000000000E+00 0. -1.
         22    1    1    2    0    0  0.54979080464E+02  0.30855190403E+02  0.35176634721E+02  0.72195136219E+02  0.00000000000E+00 0.  1.
<mgrwt>
<rscale>  0 0.96548737E+02</rscale>
<asrwt>0</asrwt>
<pdfrwt beam="1">  1        1 0.64828587E-01 0.11128688E+03</pdfrwt>
<pdfrwt beam="2">  1       -1 0.41430284E-02 0.11128688E+03</pdfrwt>
<totfact> 0.12303127E+04</totfact>
</mgrwt>
</event>
<event>
 6    1  0.2995420E-002  0.9277008E+02  0.7546771E-02  0.1428607E+00
          1   -1    0    0  501    0  0.00000000000E+00  0.00000000000E+00  0.89549437799E+02  0.89549437799E+02  0.00000000000E+00 0. -1.
         -1   -1    0    0    0  501 -0.00000000000E+00 -0.00000000000E+00 -0.29557479407E+02  0.29557479407E+02  0.00000000000E+00 0.  1.
         23    2    1    2    0    0  0.93172847704E+01 -0.38027724785E+01  0.55318659662E+02  0.10801130569E+03  0.92222639168E+02 0.  0.
         13    1    3    3    0    0 -0.23467408341E+02 -0.27150810861E+02 -0.42308311442E+01  0.36135657139E+02  0.00000000000E+00 0.  1.
        -13    1    3    3    0    0  0.32784693112E+02  0.23348038383E+02  0.59549490806E+02  0.71875648546E+02  0.00000000000E+00 0. -1.
         22    1    1    2    0    0 -0.93172847704E+01  0.38027724785E+01  0.46732987302E+01  0.11095611522E+02  0.00000000000E+00 0.  1.
<mgrwt>
<rscale>  0 0.53240558E+02</rscale>
<asrwt>0</asrwt>
<pdfrwt beam="1">  1        1 0.13776837E-01 0.92770082E+02</pdfrwt>
<pdfrwt beam="2">  1       -1 0.45473045E-02 0.92770082E+02</pdfrwt>
<totfact> 0.72373111E+04</totfact>
</mgrwt>
</event>
<event>
 6    1  0.2995420E-002  0.9623161E+02  0.7546771E-02  0.1378184E+00
          2   -1    0    0  501    0  0.00000000000E+00  0.00000000000E+00  0.78735028614E+03  0.78735028614E+03  0.00000000000E+00 0. -1.
         -2   -1    0    0    0  501 -0.00000000000E+00 -0.00000000000E+00 -0.45769481019E+01  0.45769481019E+01  0.00000000000E+00 0.  1.
         23    2    1    2    0    0  0.15549135997E+02  0.12517164845E+02  0.70900657297E+03  0.71550740256E+03  0.94138555091E+02 0.  0.
         13    1    3    3    0    0  0.50582801741E+02  0.12513555940E+02  0.56083454738E+03  0.56325003191E+03  0.00000000000E+00 0. -1.
        -13    1    3    3    0    0 -0.35033665744E+02  0.36089050155E-02  0.14817202559E+03  0.15225737065E+03  0.00000000000E+00 0.  1.
         22    1    1    2    0    0 -0.15549135997E+02 -0.12517164845E+02  0.73766765072E+02  0.76419831688E+02  0.00000000000E+00 0.  1.
<mgrwt>
<rscale>  0 0.64943506E+02</rscale>
<asrwt>0</asrwt>
<pdfrwt beam="1">  1        2 0.12113071E+00 0.96231609E+02</pdfrwt>
<pdfrwt beam="2">  1       -2 0.70414649E-03 0.96231609E+02</pdfrwt>
<totfact> 0.11314049E+05</totfact>
</mgrwt>
</event>
<event>
 6    1  0.2995420E-002  0.9564805E+02  0.7546771E-02  0.1357884E+00
         -2   -1    0    0    0  501 -0.00000000000E+00  0.00000000000E+00  0.27347717586E+01  0.27347717586E+01  0.00000000000E+00 0.  1.
          2   -1    0    0  501    0  0.00000000000E+00 -0.00000000000E+00 -0.18715786414E+04  0.18715786414E+04  0.00000000000E+00 0. -1.
         23    2    1    2    0    0  0.16892097749E+02 -0.22927409196E+02 -0.17265729623E+04  0.17292202702E+04  0.91310128998E+02 0.  0.
         13    1    3    3    0    0  0.12576928434E+01 -0.22313677686E+02 -0.16788316802E+04  0.16789804325E+04  0.00000000000E+00 0. -1.
        -13    1    3    3    0    0  0.15634404906E+02 -0.61373150944E+00 -0.47741282035E+02  0.50239837714E+02  0.00000000000E+00 0.  1.
         22    1    1    2    0    0 -0.16892097749E+02  0.22927409196E+02 -0.14227090738E+03  0.14509314300E+03  0.00000000000E+00 0.  1.
<mgrwt>
<rscale>  0 0.70653762E+02</rscale>
<asrwt>0</asrwt>
<pdfrwt beam="1">  1        2 0.28793535E+00 0.95648046E+02</pdfrwt>
<pdfrwt beam="2">  1       -2 0.42073386E-03 0.95648046E+02</pdfrwt>
<totfact> 0.59728375E+04</totfact>
</mgrwt>
</event>
<event>
 6    1  0.2995420E-002  0.9473552E+02  0.7546771E-02  0.1368895E+00
         -2   -1    0    0    0  501 -0.00000000000E+00  0.00000000000E+00  0.13920914224E+02  0.13920914224E+02  0.00000000000E+00 0.  1.
          2   -1    0    0  501    0  0.00000000000E+00 -0.00000000000E+00 -0.27618114918E+03  0.27618114918E+03  0.00000000000E+00 0. -1.
         23    2    1    2    0    0 -0.21840806129E+02 -0.10834607071E+02 -0.23581648273E+03  0.25413427845E+03  0.91544570744E+02 0.  0.
         13    1    3    3    0    0 -0.29413255365E+01  0.37881869278E+02 -0.13919918209E+03  0.14429171740E+03  0.00000000000E+00 0. -1.
        -13    1    3    3    0    0 -0.18899480593E+02 -0.48716476349E+02 -0.96617300639E+02  0.10984256105E+03  0.00000000000E+00 0.  1.
         22    1    1    2    0    0  0.21840806129E+02  0.10834607071E+02 -0.26443752224E+02  0.35967784953E+02  0.00000000000E+00 0. -1.
<mgrwt>
<rscale>  0 0.67475380E+02</rscale>
<asrwt>0</asrwt>
<pdfrwt beam="1">  1        2 0.42489404E-01 0.94735516E+02</pdfrwt>
<pdfrwt beam="2">  1       -2 0.21416793E-02 0.94735516E+02</pdfrwt>
<totfact> 0.72734543E+04</totfact>
</mgrwt>
</event>
<event>
 6    1  0.2995420E-002  0.9087308E+02  0.7546771E-02  0.1394366E+00
         -2   -1    0    0    0  501 -0.00000000000E+00  0.00000000000E+00  0.27091359697E+02  0.27091359697E+02  0.00000000000E+00 0.  1.
          2   -1    0    0  501    0  0.00000000000E+00 -0.00000000000E+00 -0.11020392526E+03  0.11020392526E+03  0.00000000000E+00 0. -1.
         23    2    1    2    0    0  0.18064914823E+02  0.25940483314E+01 -0.71886091608E+02  0.11586857378E+03  0.89021604058E+02 0.  0.
         13    1    3    3    0    0  0.32155711112E+02 -0.10990499517E+02  0.69104005859E+01  0.34677578822E+02  0.00000000000E+00 0.  1.
        -13    1    3    3    0    0 -0.14090796289E+02  0.13584547848E+02 -0.78796492194E+02  0.81190994958E+02  0.00000000000E+00 0. -1.
         22    1    1    2    0    0 -0.18064914823E+02 -0.25940483314E+01 -0.11226473954E+02  0.21426711174E+02  0.00000000000E+00 0.  1.
<mgrwt>
<rscale>  0 0.60833584E+02</rscale>
<asrwt>0</asrwt>
<pdfrwt beam="1">  1        2 0.16954450E-01 0.90873078E+02</pdfrwt>
<pdfrwt beam="2">  1       -2 0.41679015E-02 0.90873078E+02</pdfrwt>
<totfact> 0.74392058E+04</totfact>
</mgrwt>
</event>
<event>
 6    1  0.2995420E-002  0.9225492E+02  0.7546771E-02  0.1420651E+00
          2   -1    0    0  501    0  0.00000000000E+00  0.00000000000E+00  0.79926074400E+02  0.79926074400E+02  0.00000000000E+00 0.  1.
         -2   -1    0    0    0  501 -0.00000000000E+00 -0.00000000000E+00 -0.34070627927E+02  0.34070627927E+02  0.00000000000E+00 0. -1.
         23    2    1    2    0    0 -0.93300120263E+01 -0.68179963838E+01  0.36833342798E+02  0.99336124105E+02  0.91528335566E+02 0.  0.
         11    1    3    3    0    0 -0.35999451868E+02 -0.37088565225E+02  0.24116439630E+02  0.57036171556E+02  0.00000000000E+00 0.  1.
        -11    1    3    3    0    0  0.26669439842E+02  0.30270568842E+02  0.12716903168E+02  0.42299952549E+02  0.00000000000E+00 0. -1.
         22    1    1    2    0    0  0.93300120263E+01  0.68179963838E+01  0.90221036740E+01  0.14660578222E+02  0.00000000000E+00 0. -1.
<mgrwt>
<rscale>  0 0.54883427E+02</rscale>
<asrwt>0</asrwt>
<pdfrwt beam="1">  1        2 0.12296319E-01 0.92254921E+02</pdfrwt>
<pdfrwt beam="2">  1       -2 0.52416351E-02 0.92254921E+02</pdfrwt>
<totfact> 0.77116934E+04</totfact>
</mgrwt>
</event>
<event>
 6    1  0.2995420E-002  0.1108701E+03  0.7546771E-02  0.1285556E+00
         -2   -1    0    0    0  501 -0.00000000000E+00  0.00000000000E+00  0.51691693284E+03  0.51691693284E+03  0.00000000000E+00 0. -1.
          2   -1    0    0  501    0  0.00000000000E+00 -0.00000000000E+00 -0.16399874389E+02  0.16399874389E+02  0.00000000000E+00 0.  1.
         23    2    1    2    0    0  0.51188885296E+02 -0.42320496137E+02  0.37838098519E+03  0.39428966325E+03  0.88774107837E+02 0.  0.
         11    1    3    3    0    0  0.71311601247E+02 -0.51313642955E+02  0.27951952182E+03  0.29300101963E+03  0.00000000000E+00 0. -1.
        -11    1    3    3    0    0 -0.20122715951E+02  0.89931468187E+01  0.98861463367E+02  0.10128864362E+03  0.00000000000E+00 0.  1.
         22    1    1    2    0    0 -0.51188885296E+02  0.42320496137E+02  0.12213607326E+03  0.13902714398E+03  0.00000000000E+00 0.  1.
<mgrwt>
<rscale>  0 0.97539795E+02</rscale>
<asrwt>0</asrwt>
<pdfrwt beam="1">  1        2 0.25230580E-02 0.11087005E+03</pdfrwt>
<pdfrwt beam="2">  1       -2 0.79525669E-01 0.11087005E+03</pdfrwt>
<totfact> 0.53165927E+03</totfact>
</mgrwt>
</event>
<event>
 6    1  0.2995420E-002  0.9243952E+02  0.7546771E-02  0.1376493E+00
          2   -1    0    0  501    0  0.00000000000E+00  0.00000000000E+00  0.45244809153E+02  0.45244809153E+02  0.00000000000E+00 0. -1.
         -2   -1    0    0    0  501 -0.00000000000E+00 -0.00000000000E+00 -0.88862030623E+02  0.88862030623E+02  0.00000000000E+00 0.  1.
         23    2    1    2    0    0  0.23110153416E+02 -0.13973499448E+01 -0.95701219446E+01  0.92933586761E+02  0.89493198269E+02 0.  0.
         11    1    3    3    0    0  0.32769340111E+02 -0.11895402828E+02 -0.43723695191E+02  0.55920405765E+02  0.00000000000E+00 0.  1.
        -11    1    3    3    0    0 -0.96591866955E+01  0.10498052883E+02  0.34153573246E+02  0.37013180996E+02  0.00000000000E+00 0. -1.
         22    1    1    2    0    0 -0.23110153416E+02  0.13973499448E+01 -0.34047099526E+02  0.41173253015E+02  0.00000000000E+00 0. -1.
<mgrwt>
<rscale>  0 0.65394627E+02</rscale>
<asrwt>0</asrwt>
<pdfrwt beam="1">  1        2 0.69607399E-02 0.92439517E+02</pdfrwt>
<pdfrwt beam="2">  1       -2 0.13671082E-01 0.92439517E+02</pdfrwt>
<totfact> 0.35362781E+04</totfact>
</mgrwt>
</event>
<event>
 6    1  0.2995420E-002  0.1151249E+03  0.7546771E-02  0.1275548E+00
          2   -1    0    0  501    0  0.00000000000E+00  0.00000000000E+00  0.26620716952E+04  0.26620716952E+04  0.00000000000E+00 0. -1.
         -2   -1    0    0    0  501 -0.00000000000E+00 -0.00000000000E+00 -0.11252414935E+02  0.11252414935E+02  0.00000000000E+00 0.  1.
         23    2    1    2    0    0 -0.59620068498E+02  0.39931333567E+02  0.25313133340E+04  0.25339299383E+04  0.90025957069E+02 0.  0.
         11    1    3    3    0    0  0.13329598073E+02  0.77254402703E+01  0.12725673366E+04  0.12726605937E+04  0.00000000000E+00 0.  1.
        -11    1    3    3    0    0 -0.72949666571E+02  0.32205893297E+02  0.12587459975E+04  0.12612693446E+04  0.00000000000E+00 0. -1.
         22    1    1    2    0    0  0.59620068498E+02 -0.39931333567E+02  0.11950594618E+03  0.13939417183E+03  0.00000000000E+00 0.  1.
<mgrwt>
<rscale>  0 0.10229229E+03</rscale>
<asrwt>0</asrwt>
<pdfrwt beam="1">  1        2 0.40954899E+00 0.11512488E+03</pdfrwt>
<pdfrwt beam="2">  1       -2 0.17311429E-02 0.11512488E+03</pdfrwt>
<totfact> 0.31561546E+03</totfact>
</mgrwt>
</event>
<event>
 6    1  0.2995420E-002  0.9307044E+02  0.7546771E-02  0.1397272E+00
         -3   -1    0    0    0  501 -0.00000000000E+00  0.00000000000E+00  0.23725868708E+02  0.23725868708E+02  0.00000000000E+00 0.  1.
          3   -1    0    0  501    0  0.00000000000E+00 -0.00000000000E+00 -0.14283360716E+03  0.14283360716E+03  0.00000000000E+00 0. -1.
         23    2    1    2    0    0  0.91278047440E+01 -0.13407121520E+02 -0.11802171019E+03  0.15030379426E+03  0.91646269795E+02 0.  0.
         13    1    3    3    0    0 -0.59080759474E+01  0.27007834359E+02 -0.99681490356E+02  0.10344432318E+03  0.00000000000E+00 0. -1.
        -13    1    3    3    0    0  0.15035880691E+02 -0.40414955879E+02 -0.18340219833E+02  0.46859471085E+02  0.00000000000E+00 0.  1.
         22    1    1    2    0    0 -0.91278047440E+01  0.13407121520E+02 -0.10860282592E+01  0.16255681600E+02  0.00000000000E+00 0.  1.
<mgrwt>
<rscale>  0 0.60133609E+02</rscale>
<asrwt>0</asrwt>
<pdfrwt beam="1">  1        3 0.21974401E-01 0.93070438E+02</pdfrwt>
<pdfrwt beam="2">  1       -3 0.36501337E-02 0.93070438E+02</pdfrwt>
<totfact> 0.14686790E+04</totfact>
</mgrwt>
</event>
<event>
 6    1  0.2995420E-002  0.9323643E+02  0.7546771E-02  0.1400349E+00
          1   -1    0    0  501    0  0.00000000000E+00  0.00000000000E+00  0.74553895976E+01  0.74553895976E+01  0.00000000000E+00 0. -1.
         -1   -1    0    0    0  501 -0.00000000000E+00 -0.00000000000E+00 -0.39600575995E+03  0.39600575995E+03  0.00000000000E+00 0.  1.
         23    2    1    2    0    0  0.15203978082E+02 -0.22137958914E+01 -0.33847814474E+03  0.35108472718E+03  0.91961782029E+02 0.  0.
         11    1    3    3    0    0  0.21769308587E+02  0.29429743027E+02 -0.29308728348E+03  0.29536446690E+03  0.00000000000E+00 0.  1.
        -11    1    3    3    0    0 -0.65653305057E+01 -0.31643538919E+02 -0.45390861257E+02  0.55720260280E+02  0.00000000000E+00 0. -1.
         22    1    1    2    0    0 -0.15203978082E+02  0.22137958914E+01 -0.50072225618E+02  0.52376422368E+02  0.00000000000E+00 0. -1.
<mgrwt>
<rscale>  0 0.59404239E+02</rscale>
<asrwt>0</asrwt>
<pdfrwt beam="1">  1        1 0.11469831E-02 0.93236426E+02</pdfrwt>
<pdfrwt beam="2">  1       -1 0.60923956E-01 0.93236426E+02</pdfrwt>
<totfact> 0.33029067E+04</totfact>
</mgrwt>
</event>
<event>
 6    1  0.2995420E-002  0.9304394E+02  0.7546771E-02  0.1369287E+00
          2   -1    0    0  501    0  0.00000000000E+00  0.00000000000E+00  0.16421110024E+03  0.16421110024E+03  0.00000000000E+00 0. -1.
         -2   -1    0    0    0  501 -0.00000000000E+00 -0.00000000000E+00 -0.47226115808E+02  0.47226115808E+02  0.00000000000E+00 0.  1.
         23    2    1    2    0    0  0.75627927812E+01  0.24423836285E+02  0.14577182354E+03  0.17293524571E+03  0.89462031382E+02 0.  0.
         13    1    3    3    0    0 -0.34071734174E+02 -0.76496044188E+01  0.30968506670E+02  0.46673846240E+02  0.00000000000E+00 0.  1.
        -13    1    3    3    0    0  0.41634526955E+02  0.32073440704E+02  0.11480331687E+03  0.12626139947E+03  0.00000000000E+00 0. -1.
         22    1    1    2    0    0 -0.75627927812E+01 -0.24423836285E+02 -0.28786839108E+02  0.38501970331E+02  0.00000000000E+00 0.  1.
<mgrwt>
<rscale>  0 0.67365883E+02</rscale>
<asrwt>0</asrwt>
<pdfrwt beam="1">  1        2 0.25263246E-01 0.93043939E+02</pdfrwt>
<pdfrwt beam="2">  1       -2 0.72655563E-02 0.93043939E+02</pdfrwt>
<totfact> 0.20860773E+04</totfact>
</mgrwt>
</event>
<event>
 6    1  0.2995420E-002  0.9440262E+02  0.7546771E-02  0.1386827E+00
          4   -1    0    0  501    0  0.00000000000E+00  0.00000000000E+00  0.24433750822E+02  0.24433750822E+02  0.00000000000E+00 0. -1.
         -4   -1    0    0    0  501 -0.00000000000E+00 -0.00000000000E+00 -0.13212570845E+03  0.13212570845E+03  0.00000000000E+00 0.  1.
         23    2    1    2    0    0  0.14577438113E+02 -0.11184311097E+02 -0.82452961260E+02  0.12534091584E+03  0.92597320940E+02 0.  0.
         11    1    3    3    0    0 -0.33851910190E+02  0.17188796464E+02 -0.38284465712E+02  0.53917593254E+02  0.00000000000E+00 0.  1.
        -11    1    3    3    0    0  0.48429348303E+02 -0.28373107561E+02 -0.44168495548E+02  0.71423322582E+02  0.00000000000E+00 0. -1.
         22    1    1    2    0    0 -0.14577438113E+02  0.11184311097E+02 -0.25238996370E+02  0.31218543438E+02  0.00000000000E+00 0.  1.
<mgrwt>
<rscale>  0 0.62702782E+02</rscale>
<asrwt>0</asrwt>
<pdfrwt beam="1">  1        4 0.37590386E-02 0.94402618E+02</pdfrwt>
<pdfrwt beam="2">  1       -4 0.20327032E-01 0.94402618E+02</pdfrwt>
<totfact> 0.12121745E+04</totfact>
</mgrwt>
</event>
<event>
 6    1  0.2995420E-002  0.2144793E+03  0.7546771E-02  0.1142161E+00
          2   -1    0    0  501    0  0.00000000000E+00  0.00000000000E+00  0.15357657997E+04  0.15357657997E+04  0.00000000000E+00 0.  1.
         -2   -1    0    0    0  501 -0.00000000000E+00 -0.00000000000E+00 -0.33377195577E+02  0.33377195577E+02  0.00000000000E+00 0. -1.
         23    2    1    2    0    0 -0.67039564515E+02 -0.18238411045E+03  0.44430138245E+03  0.49336103055E+03  0.90791635436E+02 0.  0.
         13    1    3    3    0    0  0.17498963470E+02 -0.73613248993E+02  0.13476399974E+03  0.15455244992E+03  0.00000000000E+00 0.  1.
        -13    1    3    3    0    0 -0.84538527985E+02 -0.10877086146E+03  0.30953738271E+03  0.33880858063E+03  0.00000000000E+00 0. -1.
         22    1    1    2    0    0  0.67039564515E+02  0.18238411045E+03  0.10580872217E+04  0.10757819647E+04  0.00000000000E+00 0.  1.
<mgrwt>
<rscale>  0 0.20925007E+03</rscale>
<asrwt>0</asrwt>
<pdfrwt beam="1">  1        2 0.23627161E+00 0.21447934E+03</pdfrwt>
<pdfrwt beam="2">  1       -2 0.51349543E-02 0.21447934E+03</pdfrwt>
<totfact> 0.24551582E+03</totfact>
</mgrwt>
</event>
<event>
 6    1  0.2995420E-002  0.9286827E+02  0.7546771E-02  0.1413566E+00
          2   -1    0    0  501    0  0.00000000000E+00  0.00000000000E+00  0.99861072383E+01  0.99861072383E+01  0.00000000000E+00 0. -1.
         -2   -1    0    0    0  501 -0.00000000000E+00 -0.00000000000E+00 -0.29039926444E+03  0.29039926444E+03  0.00000000000E+00 0.  1.
         23    2    1    2    0    0  0.75155244664E+01 -0.10160814819E+02 -0.22238898076E+03  0.24100077505E+03  0.92004290890E+02 0.  0.
         13    1    3    3    0    0  0.18838791906E+02 -0.36867711645E+02 -0.44575640582E+02  0.60836797876E+02  0.00000000000E+00 0. -1.
        -13    1    3    3    0    0 -0.11323267440E+02  0.26706896826E+02 -0.17781334018E+03  0.18016397717E+03  0.00000000000E+00 0.  1.
         22    1    1    2    0    0 -0.75155244664E+01  0.10160814819E+02 -0.58024176440E+02  0.59384596634E+02  0.00000000000E+00 0.  1.
<mgrwt>
<rscale>  0 0.56405598E+02</rscale>
<asrwt>0</asrwt>
<pdfrwt beam="1">  1        2 0.15363243E-02 0.92868266E+02</pdfrwt>
<pdfrwt beam="2">  1       -2 0.44676805E-01 0.92868266E+02</pdfrwt>
<totfact> 0.33067196E+04</totfact>
</mgrwt>
</event>
<event>
 6    1  0.2995420E-002  0.8624590E+02  0.7546771E-02  0.1417834E+00
          2   -1    0    0  501    0  0.00000000000E+00  0.00000000000E+00  0.27600965030E+02  0.27600965030E+02  0.00000000000E+00 0. -1.
         -2   -1    0    0    0  501 -0.00000000000E+00 -0.00000000000E+00 -0.98639522395E+02  0.98639522395E+02  0.00000000000E+00 0.  1.
         23    2    1    2    0    0 -0.12662427450E+02 -0.76043297440E+01 -0.47526514007E+02  0.98473977334E+02  0.84971711636E+02 0.  0.
         13    1    3    3    0    0  0.69556890702E+00  0.34686603443E+02 -0.17515670608E+01  0.34737764201E+02  0.00000000000E+00 0. -1.
        -13    1    3    3    0    0 -0.13357996357E+02 -0.42290933187E+02 -0.45774946946E+02  0.63736213132E+02  0.00000000000E+00 0.  1.
         22    1    1    2    0    0  0.12662427450E+02  0.76043297440E+01 -0.23512043358E+02  0.27766510092E+02  0.00000000000E+00 0. -1.
<mgrwt>
<rscale>  0 0.55481915E+02</rscale>
<asrwt>0</asrwt>
<pdfrwt beam="1">  1        2 0.42463024E-02 0.86245897E+02</pdfrwt>
<pdfrwt beam="2">  1       -2 0.15175311E-01 0.86245897E+02</pdfrwt>
<totfact> 0.55730052E+04</totfact>
</mgrwt>
</event>
<event>
 6    1  0.2995420E-002  0.9019264E+02  0.7546771E-02  0.1401759E+00
         -2   -1    0    0    0  501 -0.00000000000E+00  0.00000000000E+00  0.60640726649E+01  0.60640726649E+01  0.00000000000E+00 0.  1.
          2   -1    0    0  501    0  0.00000000000E+00 -0.00000000000E+00 -0.74545982903E+03  0.74545982903E+03  0.00000000000E+00 0. -1.
         23    2    1    2    0    0  0.13137830969E+02 -0.10144525653E+02 -0.72149980978E+03  0.72711531904E+03  0.88652115916E+02 0.  0.
         11    1    3    3    0    0  0.10562783631E+02 -0.58112581675E+01 -0.10183688466E+02  0.15781338039E+02  0.00000000000E+00 0.  1.
        -11    1    3    3    0    0  0.25750473385E+01 -0.43332674854E+01 -0.71131612132E+03  0.71133398100E+03  0.00000000000E+00 0. -1.
         22    1    1    2    0    0 -0.13137830969E+02  0.10144525653E+02 -0.17895946577E+02  0.24408582654E+02  0.00000000000E+00 0.  1.
<mgrwt>
<rscale>  0 0.59073985E+02</rscale>
<asrwt>0</asrwt>
<pdfrwt beam="1">  1        2 0.11468617E+00 0.90192636E+02</pdfrwt>
<pdfrwt beam="2">  1       -2 0.93293388E-03 0.90192636E+02</pdfrwt>
<totfact> 0.80528627E+04</totfact>
</mgrwt>
</event>
<event>
 6    1  0.2995420E-002  0.9200791E+02  0.7546771E-02  0.1425733E+00
         -2   -1    0    0    0  501 -0.00000000000E+00  0.00000000000E+00  0.47834771026E+01  0.47834771026E+01  0.00000000000E+00 0.  1.
          2   -1    0    0  501    0  0.00000000000E+00 -0.00000000000E+00 -0.62501684077E+03  0.62501684077E+03  0.00000000000E+00 0. -1.
         23    2    1    2    0    0  0.96055974859E+01 -0.48861878420E+01 -0.59861566677E+03  0.60564525311E+03  0.91374579470E+02 0.  0.
         11    1    3    3    0    0  0.17473221568E+02  0.22525858564E+02 -0.53692826784E+03  0.53768456606E+03  0.00000000000E+00 0. -1.
        -11    1    3    3    0    0 -0.78676240821E+01 -0.27412046406E+02 -0.61687398938E+02  0.67960687052E+02  0.00000000000E+00 0.  1.
         22    1    1    2    0    0 -0.96055974859E+01  0.48861878420E+01 -0.21617696895E+02  0.24155064764E+02  0.00000000000E+00 0.  1.
<mgrwt>
<rscale>  0 0.53826074E+02</rscale>
<asrwt>0</asrwt>
<pdfrwt beam="1">  1        2 0.96156467E-01 0.92007913E+02</pdfrwt>
<pdfrwt beam="2">  1       -2 0.73591932E-03 0.92007913E+02</pdfrwt>
<totfact> 0.13843305E+05</totfact>
</mgrwt>
</event>
<event>
 6    1  0.2995420E-002  0.9249409E+02  0.7546771E-02  0.1382514E+00
         -3   -1    0    0    0  501 -0.00000000000E+00  0.00000000000E+00  0.51400980269E+02  0.51400980269E+02  0.00000000000E+00 0.  1.
          3   -1    0    0  501    0  0.00000000000E+00 -0.00000000000E+00 -0.71142873160E+02  0.71142873160E+02  0.00000000000E+00 0. -1.
         23    2    1    2    0    0 -0.20734643382E+02 -0.29844645315E+01 -0.32474744316E+02  0.98029409316E+02  0.90090641067E+02 0.  0.
         11    1    3    3    0    0  0.27848098736E+01  0.37028126565E+02  0.61604512353E+01  0.37640250827E+02  0.00000000000E+00 0.  1.
        -11    1    3    3    0    0 -0.23519453256E+02 -0.40012591096E+02 -0.38635195552E+02  0.60389158489E+02  0.00000000000E+00 0. -1.
         22    1    1    2    0    0  0.20734643382E+02  0.29844645315E+01  0.12732851425E+02  0.24514444112E+02  0.00000000000E+00 0.  1.
<mgrwt>
<rscale>  0 0.63807660E+02</rscale>
<asrwt>0</asrwt>
<pdfrwt beam="1">  1        3 0.10945057E-01 0.92494087E+02</pdfrwt>
<pdfrwt beam="2">  1       -3 0.79078431E-02 0.92494087E+02</pdfrwt>
<totfact> 0.14212727E+04</totfact>
</mgrwt>
</event>
<event>
 6    1  0.2995420E-002  0.9476462E+02  0.7546771E-02  0.1366848E+00
          2   -1    0    0  501    0  0.00000000000E+00  0.00000000000E+00  0.11305901812E+02  0.11305901812E+02  0.00000000000E+00 0. -1.
         -2   -1    0    0    0  501 -0.00000000000E+00 -0.00000000000E+00 -0.33578939819E+03  0.33578939819E+03  0.00000000000E+00 0.  1.
         23    2    1    2    0    0  0.17023107663E+02 -0.18581577657E+02 -0.21864588470E+03  0.23829887879E+03  0.91352457622E+02 0.  0.
         11    1    3    3    0    0  0.11997030463E+02 -0.20585042890E+02 -0.22705379943E+03  0.22830046116E+03  0.00000000000E+00 0.  1.
        -11    1    3    3    0    0  0.50260771997E+01  0.20034652330E+01  0.84079147306E+01  0.99984176285E+01  0.00000000000E+00 0. -1.
         22    1    1    2    0    0 -0.17023107663E+02  0.18581577657E+02 -0.10583761168E+03  0.10879642122E+03  0.00000000000E+00 0.  1.
<mgrwt>
<rscale>  0 0.68051329E+02</rscale>
<asrwt>0</asrwt>
<pdfrwt beam="1">  1        2 0.17393694E-02 0.94764618E+02</pdfrwt>
<pdfrwt beam="2">  1       -2 0.51659910E-01 0.94764618E+02</pdfrwt>
<totfact> 0.21116563E+04</totfact>
</mgrwt>
</event>
<event>
 6    1  0.2995420E-002  0.9227205E+02  0.7546771E-02  0.1429370E+00
         -2   -1    0    0    0  501 -0.00000000000E+00  0.00000000000E+00  0.21923418632E+01  0.21923418632E+01  0.00000000000E+00 0.  1.
          2   -1    0    0  501    0  0.00000000000E+00 -0.00000000000E+00 -0.12882959192E+04  0.12882959192E+04  0.00000000000E+00 0. -1.
         23    2    1    2    0    0  0.26367756660E+01  0.97596190378E+01 -0.12318376203E+04  0.12352886520E+04  0.91716564356E+02 0.  0.
         11    1    3    3    0    0  0.15758705858E+02 -0.45420927505E+01 -0.11770558288E+04  0.11771700775E+04  0.00000000000E+00 0. -1.
        -11    1    3    3    0    0 -0.13121930192E+02  0.14301711788E+02 -0.54781791585E+02  0.58118574495E+02  0.00000000000E+00 0.  1.
         22    1    1    2    0    0 -0.26367756660E+01 -0.97596190378E+01 -0.54265957023E+02  0.55199609069E+02  0.00000000000E+00 0. -1.
<mgrwt>
<rscale>  0 0.53086665E+02</rscale>
<asrwt>0</asrwt>
<pdfrwt beam="1">  1        2 0.19819991E+00 0.92272048E+02</pdfrwt>
<pdfrwt beam="2">  1       -2 0.33728245E-03 0.92272048E+02</pdfrwt>
<totfact> 0.16084170E+05</totfact>
</mgrwt>
</event>
<event>
 6    1  0.2995420E-002  0.9130531E+02  0.7546771E-02  0.1404121E+00
          2   -1    0    0  501    0  0.00000000000E+00  0.00000000000E+00  0.11493015060E+03  0.11493015060E+03  0.00000000000E+00 0. -1.
         -2   -1    0    0    0  501 -0.00000000000E+00 -0.00000000000E+00 -0.24779360653E+02  0.24779360653E+02  0.00000000000E+00 0.  1.
         23    2    1    2    0    0 -0.47184366549E+01 -0.14674423003E+02  0.77849616205E+02  0.11998842583E+03  0.89994762372E+02 0.  0.
         13    1    3    3    0    0 -0.40431072230E+02  0.16250188968E+02  0.31170171390E+02  0.53575365865E+02  0.00000000000E+00 0. -1.
        -13    1    3    3    0    0  0.35712635575E+02 -0.30924611971E+02  0.46679444815E+02  0.66413059962E+02  0.00000000000E+00 0.  1.
         22    1    1    2    0    0  0.47184366549E+01  0.14674423003E+02  0.12301173747E+02  0.19721085429E+02  0.00000000000E+00 0. -1.
<mgrwt>
<rscale>  0 0.58526609E+02</rscale>
<asrwt>0</asrwt>
<pdfrwt beam="1">  1        2 0.17681561E-01 0.91305310E+02</pdfrwt>
<pdfrwt beam="2">  1       -2 0.38122094E-02 0.91305310E+02</pdfrwt>
<totfact> 0.80919208E+04</totfact>
</mgrwt>
</event>
<event>
 6    1  0.2995420E-002  0.9287774E+02  0.7546771E-02  0.1420873E+00
          2   -1    0    0  501    0  0.00000000000E+00  0.00000000000E+00  0.17840660244E+04  0.17840660244E+04  0.00000000000E+00 0. -1.
         -2   -1    0    0    0  501 -0.00000000000E+00 -0.00000000000E+00 -0.23033188938E+01  0.23033188938E+01  0.00000000000E+00 0.  1.
         23    2    1    2    0    0  0.47213449421E+01  0.10251300326E+02  0.17531885833E+04  0.17556470270E+04  0.92189449870E+02 0.  0.
         11    1    3    3    0    0  0.13690043618E+02  0.30530413360E+02  0.16381075914E+04  0.16384492681E+04  0.00000000000E+00 0. -1.
        -11    1    3    3    0    0 -0.89686986762E+01 -0.20279113035E+02  0.11508099192E+03  0.11719775886E+03  0.00000000000E+00 0.  1.
         22    1    1    2    0    0 -0.47213449421E+01 -0.10251300326E+02  0.28574122203E+02  0.30722316255E+02  0.00000000000E+00 0.  1.
<mgrwt>
<rscale>  0 0.54836724E+02</rscale>
<asrwt>0</asrwt>
<pdfrwt beam="1">  1        2 0.27447059E+00 0.92877742E+02</pdfrwt>
<pdfrwt beam="2">  1       -2 0.35435818E-03 0.92877742E+02</pdfrwt>
<totfact> 0.83778164E+04</totfact>
</mgrwt>
</event>
<event>
 6    1  0.2995420E-002  0.9879979E+02  0.7546771E-02  0.1400000E+00
         -1   -1    0    0    0  501 -0.00000000000E+00  0.00000000000E+00  0.99371515363E+01  0.99371515363E+01  0.00000000000E+00 0.  1.
          1   -1    0    0  501    0  0.00000000000E+00 -0.00000000000E+00 -0.34478070633E+03  0.34478070633E+03  0.00000000000E+00 0. -1.
         23    2    1    2    0    0 -0.16329778541E+01 -0.12880765251E+02 -0.32044246074E+03  0.33532785426E+03  0.97942934725E+02 0.  0.
         13    1    3    3    0    0 -0.40790157239E+02  0.89016855874E+01 -0.75078898599E+02  0.85906448819E+02  0.00000000000E+00 0. -1.
        -13    1    3    3    0    0  0.39157179385E+02 -0.21782450838E+02 -0.24536356215E+03  0.24942140544E+03  0.00000000000E+00 0.  1.
         22    1    1    2    0    0  0.16329778541E+01  0.12880765251E+02 -0.14401094047E+02  0.19390003606E+02  0.00000000000E+00 0. -1.
<mgrwt>
<rscale>  0 0.59486445E+02</rscale>
<asrwt>0</asrwt>
<pdfrwt beam="1">  1        1 0.53043186E-01 0.98799793E+02</pdfrwt>
<pdfrwt beam="2">  1       -1 0.15287925E-02 0.98799793E+02</pdfrwt>
<totfact> 0.65549515E+04</totfact>
</mgrwt>
</event>
<event>
 6    1  0.2995420E-002  0.9322922E+02  0.7546771E-02  0.1384590E+00
         -1   -1    0    0    0  501 -0.00000000000E+00  0.00000000000E+00  0.14794198723E+02  0.14794198723E+02  0.00000000000E+00 0.  1.
          1   -1    0    0  501    0  0.00000000000E+00 -0.00000000000E+00 -0.39417230262E+03  0.39417230262E+03  0.00000000000E+00 0. -1.
         23    2    1    2    0    0  0.16823768603E+02 -0.10400702788E+02 -0.37779043103E+03  0.38912375673E+03  0.91106939746E+02 0.  0.
         11    1    3    3    0    0  0.19247648518E+02  0.24380420311E+02 -0.45995017440E+02  0.55501517973E+02  0.00000000000E+00 0.  1.
        -11    1    3    3    0    0 -0.24238799153E+01 -0.34781123099E+02 -0.33179541359E+03  0.33362223876E+03  0.00000000000E+00 0. -1.
         22    1    1    2    0    0 -0.16823768603E+02  0.10400702788E+02 -0.15876728685E+01  0.19842744609E+02  0.00000000000E+00 0.  1.
<mgrwt>
<rscale>  0 0.63272621E+02</rscale>
<asrwt>0</asrwt>
<pdfrwt beam="1">  1        1 0.60641888E-01 0.93229224E+02</pdfrwt>
<pdfrwt beam="2">  1       -1 0.22760307E-02 0.93229224E+02</pdfrwt>
<totfact> 0.31249625E+04</totfact>
</mgrwt>
</event>
<event>
 6    1  0.2995420E-002  0.8885843E+02  0.7546771E-02  0.1434634E+00
         -2   -1    0    0    0  501 -0.00000000000E+00  0.00000000000E+00  0.19926781257E+02  0.19926781257E+02  0.00000000000E+00 0.  1.
          2   -1    0    0  501    0  0.00000000000E+00 -0.00000000000E+00 -0.12542583974E+03  0.12542583974E+03  0.00000000000E+00 0. -1.
         23    2    1    2    0    0 -0.30724673931E+01  0.99924639886E+01 -0.99062283848E+02  0.13307575413E+03  0.88241321742E+02 0.  0.
         11    1    3    3    0    0  0.63935180226E+01 -0.19016697756E+01  0.15832224715E+02  0.17180010479E+02  0.00000000000E+00 0.  1.
        -11    1    3    3    0    0 -0.94659854157E+01  0.11894133764E+02 -0.11489450856E+03  0.11589574365E+03  0.00000000000E+00 0. -1.
         22    1    1    2    0    0  0.30724673931E+01 -0.99924639886E+01 -0.64367746336E+01  0.12276866869E+02  0.00000000000E+00 0.  1.
<mgrwt>
<rscale>  0 0.52041070E+02</rscale>
<asrwt>0</asrwt>
<pdfrwt beam="1">  1        2 0.19296283E-01 0.88858428E+02</pdfrwt>
<pdfrwt beam="2">  1       -2 0.30656586E-02 0.88858428E+02</pdfrwt>
<totfact> 0.10039145E+05</totfact>
</mgrwt>
</event>
<event>
 6    1  0.2995420E-002  0.9852866E+02  0.7546771E-02  0.1365089E+00
          2   -1    0    0  501    0  0.00000000000E+00  0.00000000000E+00  0.27379721906E+02  0.27379721906E+02  0.00000000000E+00 0.  1.
         -2   -1    0    0    0  501 -0.00000000000E+00 -0.00000000000E+00 -0.16549382776E+03  0.16549382776E+03  0.00000000000E+00 0. -1.
         23    2    1    2    0    0 -0.23087485965E+02 -0.14190536130E+00 -0.69756629161E+02  0.12072234202E+03  0.95785408100E+02 0.  0.
         11    1    3    3    0    0 -0.45878451254E+02  0.28193494258E+02 -0.64431138520E+02  0.83970691428E+02  0.00000000000E+00 0. -1.
        -11    1    3    3    0    0  0.22790965289E+02 -0.28335399620E+02 -0.53254906412E+01  0.36751650589E+02  0.00000000000E+00 0.  1.
         22    1    1    2    0    0  0.23087485965E+02  0.14190536130E+00 -0.68357476689E+02  0.72151207645E+02  0.00000000000E+00 0. -1.
<mgrwt>
<rscale>  0 0.68551686E+02</rscale>
<asrwt>0</asrwt>
<pdfrwt beam="1">  1        2 0.42122650E-02 0.98528659E+02</pdfrwt>
<pdfrwt beam="2">  1       -2 0.25460588E-01 0.98528659E+02</pdfrwt>
<totfact> 0.24116483E+04</totfact>
</mgrwt>
</event>
<event>
 6    1  0.2995420E-002  0.9952707E+02  0.7546771E-02  0.1329407E+00
          1   -1    0    0  501    0  0.00000000000E+00  0.00000000000E+00  0.72303173330E+03  0.72303173330E+03  0.00000000000E+00 0. -1.
         -1   -1    0    0    0  501 -0.00000000000E+00 -0.00000000000E+00 -0.11094741613E+02  0.11094741613E+02  0.00000000000E+00 0.  1.
         23    2    1    2    0    0  0.41059779699E+02 -0.43264257073E+01  0.66150231465E+03  0.66894764310E+03  0.90559447085E+02 0.  0.
         13    1    3    3    0    0  0.19231101458E+02 -0.46982510318E+02  0.38358996562E+03  0.38693468863E+03  0.00000000000E+00 0.  1.
        -13    1    3    3    0    0  0.21828678241E+02  0.42656084611E+02  0.27791234903E+03  0.28201295447E+03  0.00000000000E+00 0. -1.
         22    1    1    2    0    0 -0.41059779699E+02  0.43264257073E+01  0.50434677035E+02  0.65178831809E+02  0.00000000000E+00 0. -1.
<mgrwt>
<rscale>  0 0.79874740E+02</rscale>
<asrwt>0</asrwt>
<pdfrwt beam="1">  1        1 0.11123561E+00 0.99527066E+02</pdfrwt>
<pdfrwt beam="2">  1       -1 0.17068839E-02 0.99527066E+02</pdfrwt>
<totfact> 0.21376215E+04</totfact>
</mgrwt>
</event>
<event>
 6    1  0.2995420E-002  0.9218104E+02  0.7546771E-02  0.1397242E+00
         -2   -1    0    0    0  501 -0.00000000000E+00  0.00000000000E+00  0.35128173432E+01  0.35128173432E+01  0.00000000000E+00 0.  1.
          2   -1    0    0  501    0  0.00000000000E+00 -0.00000000000E+00 -0.11572661368E+04  0.11572661368E+04  0.00000000000E+00 0. -1.
         23    2    1    2    0    0 -0.14406470178E+02 -0.84491848034E+01 -0.11119270157E+04  0.11157414721E+04  0.90655441709E+02 0.  0.
         11    1    3    3    0    0  0.32779469287E+01 -0.34733235575E+02 -0.18426068764E+03  0.18753437978E+03  0.00000000000E+00 0.  1.
        -11    1    3    3    0    0 -0.17684417107E+02  0.26284050772E+02 -0.92766632810E+03  0.92820709232E+03  0.00000000000E+00 0. -1.
         22    1    1    2    0    0  0.14406470178E+02  0.84491848034E+01 -0.41826303736E+02  0.45037482068E+02  0.00000000000E+00 0.  1.
<mgrwt>
<rscale>  0 0.60140786E+02</rscale>
<asrwt>0</asrwt>
<pdfrwt beam="1">  1        2 0.17804101E+00 0.92181040E+02</pdfrwt>
<pdfrwt beam="2">  1       -2 0.54043325E-03 0.92181040E+02</pdfrwt>
<totfact> 0.97873844E+04</totfact>
</mgrwt>
</event>
<event>
 6    1  0.2995420E-002  0.9272977E+02  0.7546771E-02  0.1411961E+00
         -2   -1    0    0    0  501 -0.00000000000E+00  0.00000000000E+00  0.73602764612E+01  0.73602764612E+01  0.00000000000E+00 0. -1.
          2   -1    0    0  501    0  0.00000000000E+00 -0.00000000000E+00 -0.77078187484E+03  0.77078187484E+03  0.00000000000E+00 0.  1.
         23    2    1    2    0    0  0.12914297470E+02 -0.16216197467E+01 -0.75862405137E+03  0.76427041071E+03  0.91811767443E+02 0.  0.
         11    1    3    3    0    0 -0.16632744498E+01 -0.45892281163E+02 -0.40149113968E+03  0.40410890016E+03  0.00000000000E+00 0.  1.
        -11    1    3    3    0    0  0.14577571919E+02  0.44270661416E+02 -0.35713291169E+03  0.36016151055E+03  0.00000000000E+00 0. -1.
         22    1    1    2    0    0 -0.12914297470E+02  0.16216197467E+01 -0.47975470102E+01  0.13871740592E+02  0.00000000000E+00 0. -1.
<mgrwt>
<rscale>  0 0.56758557E+02</rscale>
<asrwt>0</asrwt>
<pdfrwt beam="1">  1        2 0.11858180E+00 0.92729765E+02</pdfrwt>
<pdfrwt beam="2">  1       -2 0.11323505E-02 0.92729765E+02</pdfrwt>
<totfact> 0.59009624E+04</totfact>
</mgrwt>
</event>
<event>
 6    1  0.2995420E-002  0.9928937E+02  0.7546771E-02  0.1335051E+00
          1   -1    0    0  501    0  0.00000000000E+00  0.00000000000E+00  0.12812541020E+03  0.12812541020E+03  0.00000000000E+00 0. -1.
         -1   -1    0    0    0  501 -0.00000000000E+00 -0.00000000000E+00 -0.44950372476E+02  0.44950372476E+02  0.00000000000E+00 0.  1.
         23    2    1    2    0    0 -0.27348153486E+02 -0.25900861930E+02  0.90911620959E+02  0.13462281312E+03  0.91867311048E+02 0.  0.
         13    1    3    3    0    0 -0.49628429240E+02 -0.44281748516E+01  0.14053512599E+02  0.51769594722E+02  0.00000000000E+00 0.  1.
        -13    1    3    3    0    0  0.22280275755E+02 -0.21472687078E+02  0.76858108360E+02  0.82853218397E+02  0.00000000000E+00 0. -1.
         22    1    1    2    0    0  0.27348153486E+02  0.25900861930E+02 -0.77365832328E+01  0.38452969559E+02  0.00000000000E+00 0.  1.
<mgrwt>
<rscale>  0 0.77923114E+02</rscale>
<asrwt>0</asrwt>
<pdfrwt beam="1">  1        1 0.19711601E-01 0.99289370E+02</pdfrwt>
<pdfrwt beam="2">  1       -1 0.69154420E-02 0.99289370E+02</pdfrwt>
<totfact> 0.24964986E+04</totfact>
</mgrwt>
</event>
<event>
 6    1  0.2995420E-002  0.9144024E+02  0.7546771E-02  0.1428081E+00
         -2   -1    0    0    0  501 -0.00000000000E+00  0.00000000000E+00  0.39040898518E+01  0.39040898518E+01  0.00000000000E+00 0.  1.
          2   -1    0    0  501    0  0.00000000000E+00 -0.00000000000E+00 -0.78219378668E+03  0.78219378668E+03  0.00000000000E+00 0. -1.
         23    2    1    2    0    0  0.81405761637E+01  0.67787091630E+01 -0.75493926337E+03  0.76045684260E+03  0.90824546287E+02 0.  0.
         11    1    3    3    0    0  0.19446369424E+02  0.19998403106E+02 -0.72706731703E+03  0.72760221337E+03  0.00000000000E+00 0. -1.
        -11    1    3    3    0    0 -0.11305793260E+02 -0.13219693943E+02 -0.27871946335E+02  0.32854629228E+02  0.00000000000E+00 0.  1.
         22    1    1    2    0    0 -0.81405761637E+01 -0.67787091630E+01 -0.23350433463E+02  0.25641033932E+02  0.00000000000E+00 0.  1.
<mgrwt>
<rscale>  0 0.53347215E+02</rscale>
<asrwt>0</asrwt>
<pdfrwt beam="1">  1        2 0.12033756E+00 0.91440243E+02</pdfrwt>
<pdfrwt beam="2">  1       -2 0.60062892E-03 0.91440243E+02</pdfrwt>
<totfact> 0.14163133E+05</totfact>
</mgrwt>
</event>
<event>
 6    1  0.2995420E-002  0.9320571E+02  0.7546771E-02  0.1418947E+00
         -4   -1    0    0    0  501 -0.00000000000E+00  0.00000000000E+00  0.26223194180E+02  0.26223194180E+02  0.00000000000E+00 0.  1.
          4   -1    0    0  501    0  0.00000000000E+00 -0.00000000000E+00 -0.26097274199E+03  0.26097274199E+03  0.00000000000E+00 0. -1.
         23    2    1    2    0    0 -0.22531924095E+01  0.11280429341E+02 -0.25073698815E+03  0.26750016985E+03  0.92493127756E+02 0.  0.
         11    1    3    3    0    0 -0.17976902619E+02  0.31948164509E+02 -0.36625949110E+02  0.51820019215E+02  0.00000000000E+00 0.  1.
        -11    1    3    3    0    0  0.15723710210E+02 -0.20667735168E+02 -0.21411103904E+03  0.21568015064E+03  0.00000000000E+00 0. -1.
         22    1    1    2    0    0  0.22531924095E+01 -0.11280429341E+02  0.15987440342E+02  0.19695766317E+02  0.00000000000E+00 0.  1.
<mgrwt>
<rscale>  0 0.55244252E+02</rscale>
<asrwt>0</asrwt>
<pdfrwt beam="1">  1        4 0.40149654E-01 0.93205706E+02</pdfrwt>
<pdfrwt beam="2">  1       -4 0.40343374E-02 0.93205706E+02</pdfrwt>
<totfact> 0.30365090E+03</totfact>
</mgrwt>
</event>
<event>
 6    1  0.2995420E-002  0.8922834E+02  0.7546771E-02  0.1393729E+00
         -2   -1    0    0    0  501 -0.00000000000E+00  0.00000000000E+00  0.11271380901E+02  0.11271380901E+02  0.00000000000E+00 0.  1.
          2   -1    0    0  501    0  0.00000000000E+00 -0.00000000000E+00 -0.26282563165E+03  0.26282563165E+03  0.00000000000E+00 0. -1.
         23    2    1    2    0    0  0.17569968637E+02  0.84015511272E+01 -0.21182390236E+03  0.22985008675E+03  0.87077017125E+02 0.  0.
         11    1    3    3    0    0  0.76279761244E+01  0.11273546915E+02 -0.21758208814E+03  0.21800744015E+03  0.00000000000E+00 0. -1.
        -11    1    3    3    0    0  0.99419925125E+01 -0.28719957877E+01  0.57581857892E+01  0.11842646601E+02  0.00000000000E+00 0.  1.
         22    1    1    2    0    0 -0.17569968637E+02 -0.84015511272E+01 -0.39730348391E+02  0.44246925797E+02  0.00000000000E+00 0.  1.
<mgrwt>
<rscale>  0 0.60988579E+02</rscale>
<asrwt>0</asrwt>
<pdfrwt beam="1">  1        2 0.40434715E-01 0.89228341E+02</pdfrwt>
<pdfrwt beam="2">  1       -2 0.17340585E-02 0.89228341E+02</pdfrwt>
<totfact> 0.10282593E+05</totfact>
</mgrwt>
</event>
<event>
 6    1  0.2995420E-002  0.9073486E+02  0.7546771E-02  0.1422049E+00
          1   -1    0    0  501    0  0.00000000000E+00  0.00000000000E+00  0.41746377497E+03  0.41746377497E+03  0.00000000000E+00 0.  1.
         -1   -1    0    0    0  501 -0.00000000000E+00 -0.00000000000E+00 -0.66919108954E+01  0.66919108954E+01  0.00000000000E+00 0. -1.
         23    2    1    2    0    0 -0.11831734825E+02  0.11587087927E+01  0.38799162906E+03  0.39845993403E+03  0.89952666729E+02 0.  0.
         11    1    3    3    0    0 -0.22893014925E+02 -0.51433197051E+01  0.21739785421E+02  0.31986905760E+02  0.00000000000E+00 0. -1.
        -11    1    3    3    0    0  0.11061280100E+02  0.63020284978E+01  0.36625184364E+03  0.36647302827E+03  0.00000000000E+00 0.  1.
         22    1    1    2    0    0  0.11831734825E+02 -0.11587087927E+01  0.22780235012E+02  0.25695751832E+02  0.00000000000E+00 0. -1.
<mgrwt>
<rscale>  0 0.54589725E+02</rscale>
<asrwt>0</asrwt>
<pdfrwt beam="1">  1        1 0.64225176E-01 0.90734860E+02</pdfrwt>
<pdfrwt beam="2">  1       -1 0.10295251E-02 0.90734860E+02</pdfrwt>
<totfact> 0.89479741E+04</totfact>
</mgrwt>
</event>
<event>
 6    1  0.2995420E-002  0.9152107E+02  0.7546771E-02  0.1424608E+00
         -2   -1    0    0    0  501 -0.00000000000E+00  0.00000000000E+00  0.66940276820E+01  0.66940276820E+01  0.00000000000E+00 0.  1.
          2   -1    0    0  501    0  0.00000000000E+00 -0.00000000000E+00 -0.56185369535E+03  0.56185369535E+03  0.00000000000E+00 0. -1.
         23    2    1    2    0    0 -0.11129310712E+02  0.48010340545E+00 -0.54733650221E+03  0.55493545011E+03  0.90840602624E+02 0.  0.
         13    1    3    3    0    0  0.25621180949E+02 -0.30478849843E+02 -0.32730167907E+03  0.32971471657E+03  0.00000000000E+00 0. -1.
        -13    1    3    3    0    0 -0.36750491661E+02  0.30958953249E+02 -0.22003482314E+03  0.22522073354E+03  0.00000000000E+00 0.  1.
         22    1    1    2    0    0  0.11129310712E+02 -0.48010340545E+00 -0.78231654561E+01  0.13612272916E+02  0.00000000000E+00 0.  1.
<mgrwt>
<rscale>  0 0.54057858E+02</rscale>
<asrwt>0</asrwt>
<pdfrwt beam="1">  1        2 0.86439050E-01 0.91521075E+02</pdfrwt>
<pdfrwt beam="2">  1       -2 0.10298502E-02 0.91521075E+02</pdfrwt>
<totfact> 0.96915803E+04</totfact>
</mgrwt>
</event>
<event>
 6    1  0.2995420E-002  0.6869485E+02  0.7546771E-02  0.1487820E+00
          4   -1    0    0  501    0  0.00000000000E+00  0.00000000000E+00  0.18529532152E+02  0.18529532152E+02  0.00000000000E+00 0. -1.
         -4   -1    0    0    0  501 -0.00000000000E+00 -0.00000000000E+00 -0.85158481764E+02  0.85158481764E+02  0.00000000000E+00 0.  1.
         23    2    1    2    0    0  0.81248863791E+01 -0.65867329114E+01 -0.54621062312E+02  0.87763561445E+02  0.67893913131E+02 0.  0.
         11    1    3    3    0    0  0.30518704152E+02  0.94233670397E+01 -0.69083414610E+01  0.32678989140E+02  0.00000000000E+00 0. -1.
        -11    1    3    3    0    0 -0.22393817773E+02 -0.16010099951E+02 -0.47712720851E+02  0.55084572304E+02  0.00000000000E+00 0.  1.
         22    1    1    2    0    0 -0.81248863791E+01  0.65867329114E+01 -0.12007887299E+02  0.15924452471E+02  0.00000000000E+00 0. -1.
<mgrwt>
<rscale>  0 0.42911107E+02</rscale>
<asrwt>0</asrwt>
<pdfrwt beam="1">  1        4 0.28506973E-02 0.68694849E+02</pdfrwt>
<pdfrwt beam="2">  1       -4 0.13101305E-01 0.68694849E+02</pdfrwt>
<totfact> 0.36016102E+04</totfact>
</mgrwt>
</event>
<event>
 6    1  0.2995420E-002  0.9043471E+02  0.7546771E-02  0.1421468E+00
          2   -1    0    0  501    0  0.00000000000E+00  0.00000000000E+00  0.14927230338E+03  0.14927230338E+03  0.00000000000E+00 0. -1.
         -2   -1    0    0    0  501 -0.00000000000E+00 -0.00000000000E+00 -0.17729650939E+02  0.17729650939E+02  0.00000000000E+00 0.  1.
         23    2    1    2    0    0  0.12114523232E+02  0.24277262241E-01  0.11127348420E+03  0.14338836832E+03  0.89619605115E+02 0.  0.
         13    1    3    3    0    0 -0.11070226716E+02  0.25331037378E+01  0.11844678331E+03  0.11898994500E+03  0.00000000000E+00 0. -1.
        -13    1    3    3    0    0  0.23184749948E+02 -0.25088264755E+01 -0.71732991097E+01  0.24398423322E+02  0.00000000000E+00 0.  1.
         22    1    1    2    0    0 -0.12114523232E+02 -0.24277262241E-01  0.20269168235E+02  0.23613585993E+02  0.00000000000E+00 0. -1.
<mgrwt>
<rscale>  0 0.54711440E+02</rscale>
<asrwt>0</asrwt>
<pdfrwt beam="1">  1        2 0.22964969E-01 0.90434705E+02</pdfrwt>
<pdfrwt beam="2">  1       -2 0.27276387E-02 0.90434705E+02</pdfrwt>
<totfact> 0.98327310E+04</totfact>
</mgrwt>
</event>
<event>
 6    1  0.2995420E-002  0.1017163E+03  0.7546771E-02  0.1322974E+00
          2   -1    0    0  501    0  0.00000000000E+00  0.00000000000E+00  0.12274980516E+04  0.12274980516E+04  0.00000000000E+00 0. -1.
         -2   -1    0    0    0  501 -0.00000000000E+00 -0.00000000000E+00 -0.57508272312E+01  0.57508272312E+01  0.00000000000E+00 0.  1.
         23    2    1    2    0    0 -0.40849014770E+02  0.14488749203E+02  0.10859336686E+04  0.10906870053E+04  0.92019807703E+02 0.  0.
         11    1    3    3    0    0  0.61194350980E+00  0.21662207194E+02  0.58383018842E+02  0.62275216455E+02  0.00000000000E+00 0.  1.
        -11    1    3    3    0    0 -0.41460958280E+02 -0.71734579906E+01  0.10275506498E+04  0.10284117888E+04  0.00000000000E+00 0. -1.
         22    1    1    2    0    0  0.40849014770E+02 -0.14488749203E+02  0.13581355570E+03  0.14256187349E+03  0.00000000000E+00 0.  1.
<mgrwt>
<rscale>  0 0.82180977E+02</rscale>
<asrwt>0</asrwt>
<pdfrwt beam="1">  1        2 0.18884565E+00 0.10171633E+03</pdfrwt>
<pdfrwt beam="2">  1       -2 0.88474363E-03 0.10171633E+03</pdfrwt>
<totfact> 0.45208577E+04</totfact>
</mgrwt>
</event>
<event>
 6    1  0.2995420E-002  0.9309905E+02  0.7546771E-02  0.1419506E+00
          2   -1    0    0  501    0  0.00000000000E+00  0.00000000000E+00  0.15273965321E+03  0.15273965321E+03  0.00000000000E+00 0. -1.
         -2   -1    0    0    0  501 -0.00000000000E+00 -0.00000000000E+00 -0.17979742899E+02  0.17979742899E+02  0.00000000000E+00 0.  1.
         23    2    1    2    0    0  0.45274181773E+01  0.10510275522E+02  0.12355037832E+03  0.15470012601E+03  0.92393017048E+02 0.  0.
         13    1    3    3    0    0  0.29409534293E+00 -0.11799994312E+02  0.13043740641E+03  0.13097039112E+03  0.00000000000E+00 0. -1.
        -13    1    3    3    0    0  0.42333228344E+01  0.22310269835E+02 -0.68870280938E+01  0.23729734897E+02  0.00000000000E+00 0.  1.
         22    1    1    2    0    0 -0.45274181773E+01 -0.10510275522E+02  0.11209531994E+02  0.16019270097E+02  0.00000000000E+00 0. -1.
<mgrwt>
<rscale>  0 0.55125518E+02</rscale>
<asrwt>0</asrwt>
<pdfrwt beam="1">  1        2 0.23498407E-01 0.93099049E+02</pdfrwt>
<pdfrwt beam="2">  1       -2 0.27661144E-02 0.93099049E+02</pdfrwt>
<totfact> 0.94366102E+04</totfact>
</mgrwt>
</event>
<event>
 6    1  0.2995420E-002  0.6448286E+02  0.7546771E-02  0.1491954E+00
          2   -1    0    0  501    0  0.00000000000E+00  0.00000000000E+00  0.35619417130E+03  0.35619417130E+03  0.00000000000E+00 0. -1.
         -2   -1    0    0    0  501 -0.00000000000E+00 -0.00000000000E+00 -0.57397317293E+01  0.57397317293E+01  0.00000000000E+00 0.  1.
         23    2    1    2    0    0 -0.63183298763E+01  0.10128695747E+02  0.34001459298E+03  0.34607508318E+03  0.63368193865E+02 0.  0.
         13    1    3    3    0    0  0.16404980941E+02 -0.14202306907E+02  0.23283811177E+03  0.23384699103E+03  0.00000000000E+00 0. -1.
        -13    1    3    3    0    0 -0.22723310817E+02  0.24331002654E+02  0.10717648120E+03  0.11222809215E+03  0.00000000000E+00 0.  1.
         22    1    1    2    0    0  0.63183298763E+01 -0.10128695747E+02  0.10439846592E+02  0.15858819843E+02  0.00000000000E+00 0.  1.
<mgrwt>
<rscale>  0 0.42297489E+02</rscale>
<asrwt>0</asrwt>
<pdfrwt beam="1">  1        2 0.54799086E-01 0.64482864E+02</pdfrwt>
<pdfrwt beam="2">  1       -2 0.88303593E-03 0.64482864E+02</pdfrwt>
<totfact> 0.18437401E+05</totfact>
</mgrwt>
</event>
<event>
 6    1  0.2995420E-002  0.1061730E+03  0.7546771E-02  0.1311059E+00
         -2   -1    0    0    0  501 -0.00000000000E+00  0.00000000000E+00  0.12635046320E+02  0.12635046320E+02  0.00000000000E+00 0.  1.
          2   -1    0    0  501    0  0.00000000000E+00 -0.00000000000E+00 -0.73943459853E+03  0.73943459853E+03  0.00000000000E+00 0. -1.
         23    2    1    2    0    0 -0.39692300869E+02  0.25539136166E+02 -0.66934819237E+03  0.67771653481E+03  0.95105061422E+02 0.  0.
         11    1    3    3    0    0  0.12077287047E+01  0.43452246294E+02 -0.14257354947E+03  0.14905292122E+03  0.00000000000E+00 0.  1.
        -11    1    3    3    0    0 -0.40900029573E+02 -0.17913110128E+02 -0.52677464290E+03  0.52866361359E+03  0.00000000000E+00 0. -1.
         22    1    1    2    0    0  0.39692300869E+02 -0.25539136166E+02 -0.57451359841E+02  0.74353110036E+02  0.00000000000E+00 0.  1.
<mgrwt>
<rscale>  0 0.86694829E+02</rscale>
<asrwt>0</asrwt>
<pdfrwt beam="1">  1        2 0.11375918E+00 0.10617297E+03</pdfrwt>
<pdfrwt beam="2">  1       -2 0.19438531E-02 0.10617297E+03</pdfrwt>
<totfact> 0.29067479E+04</totfact>
</mgrwt>
</event>
<event>
 6    1  0.2995420E-002  0.9910775E+02  0.7546771E-02  0.1331590E+00
          2   -1    0    0  501    0  0.00000000000E+00  0.00000000000E+00  0.14848322426E+04  0.14848322426E+04  0.00000000000E+00 0. -1.
         -2   -1    0    0    0  501 -0.00000000000E+00 -0.00000000000E+00 -0.43245247920E+01  0.43245247920E+01  0.00000000000E+00 0.  1.
         23    2    1    2    0    0 -0.35023465999E+02  0.19812509875E+02  0.13187631909E+04  0.13224820221E+04  0.90571333799E+02 0.  0.
         13    1    3    3    0    0 -0.19620792403E+02  0.31103217594E+02  0.12630733490E+04  0.12636085907E+04  0.00000000000E+00 0. -1.
        -13    1    3    3    0    0 -0.15402673596E+02 -0.11290707719E+02  0.55689841931E+02  0.58873431435E+02  0.00000000000E+00 0.  1.
         22    1    1    2    0    0  0.35023465999E+02 -0.19812509875E+02  0.16174452688E+03  0.16667474521E+03  0.00000000000E+00 0. -1.
<mgrwt>
<rscale>  0 0.79112033E+02</rscale>
<asrwt>0</asrwt>
<pdfrwt beam="1">  1        2 0.22843532E+00 0.99107746E+02</pdfrwt>
<pdfrwt beam="2">  1       -2 0.66531269E-03 0.99107746E+02</pdfrwt>
<totfact> 0.49399302E+04</totfact>
</mgrwt>
</event>
<event>
 6    1  0.2995420E-002  0.9600124E+02  0.7546771E-02  0.1362879E+00
          2   -1    0    0  501    0  0.00000000000E+00  0.00000000000E+00  0.25337757973E+03  0.25337757973E+03  0.00000000000E+00 0. -1.
         -2   -1    0    0    0  501 -0.00000000000E+00 -0.00000000000E+00 -0.64930520301E+02  0.64930520301E+02  0.00000000000E+00 0.  1.
         23    2    1    2    0    0  0.12099100506E+02  0.22898670815E+02  0.24116592369E+03  0.25957126315E+03  0.92441876578E+02 0.  0.
         13    1    3    3    0    0 -0.36477375774E+00  0.41727483325E+02  0.23112021367E+03  0.23485712485E+03  0.00000000000E+00 0. -1.
        -13    1    3    3    0    0  0.12463874264E+02 -0.18828812510E+02  0.10045710021E+02  0.24714138302E+02  0.00000000000E+00 0.  1.
         22    1    1    2    0    0 -0.12099100506E+02 -0.22898670815E+02 -0.52718864260E+02  0.58736836883E+02  0.00000000000E+00 0.  1.
<mgrwt>
<rscale>  0 0.69187349E+02</rscale>
<asrwt>0</asrwt>
<pdfrwt beam="1">  1        2 0.38981166E-01 0.96001239E+02</pdfrwt>
<pdfrwt beam="2">  1       -2 0.99893109E-02 0.96001239E+02</pdfrwt>
<totfact> 0.80691551E+03</totfact>
</mgrwt>
</event>
<event>
 6    1  0.2995420E-002  0.9142694E+02  0.7546771E-02  0.1427795E+00
         -1   -1    0    0    0  501 -0.00000000000E+00  0.00000000000E+00  0.68364244190E+01  0.68364244190E+01  0.00000000000E+00 0.  1.
          1   -1    0    0  501    0  0.00000000000E+00 -0.00000000000E+00 -0.55048979434E+03  0.55048979434E+03  0.00000000000E+00 0. -1.
         23    2    1    2    0    0  0.44129294031E+01  0.96863581151E+01 -0.53710095862E+03  0.54482687584E+03  0.90805205867E+02 0.  0.
         13    1    3    3    0    0 -0.11123508775E+02 -0.38372574853E+02 -0.19862626953E+03  0.20260449624E+03  0.00000000000E+00 0. -1.
        -13    1    3    3    0    0  0.15536438178E+02  0.48058932968E+02 -0.33847468908E+03  0.34222237960E+03  0.00000000000E+00 0.  1.
         22    1    1    2    0    0 -0.44129294031E+01 -0.96863581151E+01 -0.65524113023E+01  0.12499342916E+02  0.00000000000E+00 0.  1.
<mgrwt>
<rscale>  0 0.53405270E+02</rscale>
<asrwt>0</asrwt>
<pdfrwt beam="1">  1        1 0.84690723E-01 0.91426937E+02</pdfrwt>
<pdfrwt beam="2">  1       -1 0.10517578E-02 0.91426937E+02</pdfrwt>
<totfact> 0.61056665E+04</totfact>
</mgrwt>
</event>
<event>
 6    1  0.2995420E-002  0.9163288E+02  0.7546771E-02  0.1407998E+00
         -1   -1    0    0    0  501 -0.00000000000E+00  0.00000000000E+00  0.86569686687E+02  0.86569686687E+02  0.00000000000E+00 0.  1.
          1   -1    0    0  501    0  0.00000000000E+00 -0.00000000000E+00 -0.36629982322E+02  0.36629982322E+02  0.00000000000E+00 0. -1.
         23    2    1    2    0    0  0.13233416127E+02 -0.55479685208E+01  0.25933800895E+02  0.95232068853E+02  0.90502384787E+02 0.  0.
         11    1    3    3    0    0 -0.29260400047E+02 -0.30570877679E+02  0.12260347958E+02  0.44057527223E+02  0.00000000000E+00 0. -1.
        -11    1    3    3    0    0  0.42493816174E+02  0.25022909158E+02  0.13673452937E+02  0.51174541630E+02  0.00000000000E+00 0.  1.
         22    1    1    2    0    0 -0.13233416127E+02  0.55479685208E+01  0.24005903470E+02  0.27967600156E+02  0.00000000000E+00 0.  1.
<mgrwt>
<rscale>  0 0.57642978E+02</rscale>
<asrwt>0</asrwt>
<pdfrwt beam="1">  1        1 0.56353819E-02 0.91632881E+02</pdfrwt>
<pdfrwt beam="2">  1       -1 0.13318413E-01 0.91632881E+02</pdfrwt>
<totfact> 0.47154832E+04</totfact>
</mgrwt>
</event>
<event>
 6    1  0.2995420E-002  0.9294467E+02  0.7546771E-02  0.1416531E+00
         -1   -1    0    0    0  501 -0.00000000000E+00  0.00000000000E+00  0.65641411394E+02  0.65641411394E+02  0.00000000000E+00 0.  1.
          1   -1    0    0  501    0  0.00000000000E+00 -0.00000000000E+00 -0.44901754768E+02  0.44901754768E+02  0.00000000000E+00 0. -1.
         23    2    1    2    0    0  0.10442654613E+02  0.59949821492E+01  0.84342830330E+01  0.93326573422E+02  0.92161398264E+02 0.  0.
         11    1    3    3    0    0  0.45744659703E+02  0.20086653620E+02  0.19665313033E+02  0.53691452594E+02  0.00000000000E+00 0.  1.
        -11    1    3    3    0    0 -0.35302005089E+02 -0.14091671470E+02 -0.11231030000E+02  0.39635120828E+02  0.00000000000E+00 0. -1.
         22    1    1    2    0    0 -0.10442654613E+02 -0.59949821492E+01  0.12305373593E+02  0.17216592741E+02  0.00000000000E+00 0. -1.
<mgrwt>
<rscale>  0 0.55761597E+02</rscale>
<asrwt>0</asrwt>
<pdfrwt beam="1">  1        1 0.69079623E-02 0.92944673E+02</pdfrwt>
<pdfrwt beam="2">  1       -1 0.10098679E-01 0.92944673E+02</pdfrwt>
<totfact> 0.54835282E+04</totfact>
</mgrwt>
</event>
<event>
 6    1  0.2995420E-002  0.9388735E+02  0.7546771E-02  0.1385441E+00
         -1   -1    0    0    0  501 -0.00000000000E+00  0.00000000000E+00  0.44582885910E+02  0.44582885910E+02  0.00000000000E+00 0. -1.
          1   -1    0    0  501    0  0.00000000000E+00 -0.00000000000E+00 -0.85388531259E+02  0.85388531259E+02  0.00000000000E+00 0.  1.
         23    2    1    2    0    0  0.15633486038E+02 -0.10974380426E+02 -0.52505935443E+02  0.10757187030E+03  0.91923833213E+02 0.  0.
         13    1    3    3    0    0  0.34184835643E+02  0.24382920840E+02 -0.48312164275E+00  0.41992418639E+02  0.00000000000E+00 0. -1.
        -13    1    3    3    0    0 -0.18551349605E+02 -0.35357301266E+02 -0.52022813800E+02  0.65579451665E+02  0.00000000000E+00 0.  1.
         22    1    1    2    0    0 -0.15633486038E+02  0.10974380426E+02  0.11700290094E+02  0.22399546865E+02  0.00000000000E+00 0. -1.
<mgrwt>
<rscale>  0 0.63054856E+02</rscale>
<asrwt>0</asrwt>
<pdfrwt beam="1">  1        1 0.13136697E-01 0.93887348E+02</pdfrwt>
<pdfrwt beam="2">  1       -1 0.68589056E-02 0.93887348E+02</pdfrwt>
<totfact> 0.42111491E+04</totfact>
</mgrwt>
</event>
<event>
 6    1  0.2995420E-002  0.9307667E+02  0.7546771E-02  0.1402233E+00
          2   -1    0    0  501    0  0.00000000000E+00  0.00000000000E+00  0.26579700347E+03  0.26579700347E+03  0.00000000000E+00 0.  1.
         -2   -1    0    0    0  501 -0.00000000000E+00 -0.00000000000E+00 -0.11029797559E+02  0.11029797559E+02  0.00000000000E+00 0. -1.
         23    2    1    2    0    0 -0.35027366212E+01  0.14575434668E+02  0.22520043975E+03  0.24367704808E+03  0.91861598268E+02 0.  0.
         13    1    3    3    0    0  0.19086329268E+02  0.23429993924E+02  0.18237347060E+02  0.35296648679E+02  0.00000000000E+00 0. -1.
        -13    1    3    3    0    0 -0.22589065890E+02 -0.88545592554E+01  0.20696309269E+03  0.20838039940E+03  0.00000000000E+00 0.  1.
         22    1    1    2    0    0  0.35027366212E+01 -0.14575434668E+02  0.29566766162E+02  0.33149752953E+02  0.00000000000E+00 0. -1.
<mgrwt>
<rscale>  0 0.58963602E+02</rscale>
<asrwt>0</asrwt>
<pdfrwt beam="1">  1        2 0.40891842E-01 0.93076666E+02</pdfrwt>
<pdfrwt beam="2">  1       -2 0.16968921E-02 0.93076666E+02</pdfrwt>
<totfact> 0.10549711E+05</totfact>
</mgrwt>
</event>
<event>
 6    1  0.2995420E-002  0.9189225E+02  0.7546771E-02  0.1399325E+00
         -2   -1    0    0    0  501 -0.00000000000E+00  0.00000000000E+00  0.58518798914E+02  0.58518798914E+02  0.00000000000E+00 0.  1.
          2   -1    0    0  501    0  0.00000000000E+00 -0.00000000000E+00 -0.71719509173E+03  0.71719509173E+03  0.00000000000E+00 0. -1.
         23    2    1    2    0    0  0.15962754958E+02  0.33521448597E+01 -0.71304980670E+03  0.71894659870E+03  0.90433061021E+02 0.  0.
         11    1    3    3    0    0  0.15802071368E+02  0.44417580164E+02 -0.47967844792E+03  0.48198966823E+03  0.00000000000E+00 0. -1.
        -11    1    3    3    0    0  0.16068358985E+00 -0.41065435304E+02 -0.23337135879E+03  0.23695693047E+03  0.00000000000E+00 0.  1.
         22    1    1    2    0    0 -0.15962754958E+02 -0.33521448597E+01  0.54373513892E+02  0.56767291938E+02  0.00000000000E+00 0.  1.
<mgrwt>
<rscale>  0 0.59645657E+02</rscale>
<asrwt>0</asrwt>
<pdfrwt beam="1">  1        2 0.11033771E+00 0.91892246E+02</pdfrwt>
<pdfrwt beam="2">  1       -2 0.90028921E-02 0.91892246E+02</pdfrwt>
<totfact> 0.30794780E+03</totfact>
</mgrwt>
</event>
<event>
 6    1  0.2995420E-002  0.9492307E+02  0.7546771E-02  0.1384365E+00
          2   -1    0    0  501    0  0.00000000000E+00  0.00000000000E+00  0.10832956250E+04  0.10832956250E+04  0.00000000000E+00 0. -1.
         -2   -1    0    0    0  501 -0.00000000000E+00 -0.00000000000E+00 -0.33791487332E+01  0.33791487332E+01  0.00000000000E+00 0.  1.
         23    2    1    2    0    0 -0.97560059590E+01 -0.16079013103E+02  0.10034368971E+04  0.10079166609E+04  0.93041251336E+02 0.  0.
         11    1    3    3    0    0 -0.24838248403E+02  0.24224425583E+02  0.75378568600E+03  0.75458374074E+03  0.00000000000E+00 0. -1.
        -11    1    3    3    0    0  0.15082242444E+02 -0.40303438686E+02  0.24965121111E+03  0.25333292012E+03  0.00000000000E+00 0.  1.
         22    1    1    2    0    0  0.97560059590E+01  0.16079013103E+02  0.76479579130E+02  0.78758112843E+02  0.00000000000E+00 0.  1.
<mgrwt>
<rscale>  0 0.63330133E+02</rscale>
<asrwt>0</asrwt>
<pdfrwt beam="1">  1        2 0.16666059E+00 0.94923068E+02</pdfrwt>
<pdfrwt beam="2">  1       -2 0.51986990E-03 0.94923068E+02</pdfrwt>
<totfact> 0.11408301E+05</totfact>
</mgrwt>
</event>
<event>
 6    1  0.2995420E-002  0.9200054E+02  0.7546771E-02  0.1394631E+00
          2   -1    0    0  501    0  0.00000000000E+00  0.00000000000E+00  0.14001786826E+04  0.14001786826E+04  0.00000000000E+00 0. -1.
         -2   -1    0    0    0  501 -0.00000000000E+00 -0.00000000000E+00 -0.60625662001E+01  0.60625662001E+01  0.00000000000E+00 0.  1.
         23    2    1    2    0    0  0.51931900555E+01  0.16725605588E+02  0.13817326378E+04  0.13847921079E+04  0.90318240082E+02 0.  0.
         13    1    3    3    0    0  0.15301630278E+02  0.42886022862E+02  0.12039677223E+04  0.12048284638E+04  0.00000000000E+00 0. -1.
        -13    1    3    3    0    0 -0.10108440223E+02 -0.26160417274E+02  0.17776491547E+03  0.17996364402E+03  0.00000000000E+00 0.  1.
         22    1    1    2    0    0 -0.51931900555E+01 -0.16725605588E+02  0.12383478594E+02  0.21449140946E+02  0.00000000000E+00 0.  1.
<mgrwt>
<rscale>  0 0.60769363E+02</rscale>
<asrwt>0</asrwt>
<pdfrwt beam="1">  1        2 0.21541185E+00 0.92000541E+02</pdfrwt>
<pdfrwt beam="2">  1       -2 0.93270361E-03 0.92000541E+02</pdfrwt>
<totfact> 0.33675477E+04</totfact>
</mgrwt>
</event>
<event>
 6    1  0.2995420E-002  0.9503359E+02  0.7546771E-02  0.1370657E+00
         -1   -1    0    0    0  501 -0.00000000000E+00  0.00000000000E+00  0.14483685193E+03  0.14483685193E+03  0.00000000000E+00 0.  1.
          1   -1    0    0  501    0  0.00000000000E+00 -0.00000000000E+00 -0.10349847350E+03  0.10349847350E+03  0.00000000000E+00 0. -1.
         23    2    1    2    0    0  0.22283798638E+02  0.73256582981E+01 -0.80324151630E+02  0.12443212057E+03  0.92093161223E+02 0.  0.
         11    1    3    3    0    0  0.11370131678E+02 -0.41633488605E+01  0.19720040765E+02  0.23140729804E+02  0.00000000000E+00 0.  1.
        -11    1    3    3    0    0  0.10913666960E+02  0.11489007159E+02 -0.10004419240E+03  0.10129139077E+03  0.00000000000E+00 0. -1.
         22    1    1    2    0    0 -0.22283798638E+02 -0.73256582981E+01  0.12166253006E+03  0.12390320485E+03  0.00000000000E+00 0.  1.
<mgrwt>
<rscale>  0 0.66984786E+02</rscale>
<asrwt>0</asrwt>
<pdfrwt beam="1">  1        1 0.15922842E-01 0.95033590E+02</pdfrwt>
<pdfrwt beam="2">  1       -1 0.22282593E-01 0.95033590E+02</pdfrwt>
<totfact> 0.53944092E+03</totfact>
</mgrwt>
</event>
<event>
 6    1  0.2995420E-002  0.9118968E+02  0.7546771E-02  0.1428212E+00
          1   -1    0    0  501    0  0.00000000000E+00  0.00000000000E+00  0.46472647839E+03  0.46472647839E+03  0.00000000000E+00 0. -1.
         -1   -1    0    0    0  501 -0.00000000000E+00 -0.00000000000E+00 -0.61508671891E+01  0.61508671891E+01  0.00000000000E+00 0.  1.
         23    2    1    2    0    0  0.10580307315E+02  0.12978748041E+01  0.44093891358E+03  0.45026956829E+03  0.90564514218E+02 0.  0.
         11    1    3    3    0    0  0.32579763312E+02 -0.34577440749E+02  0.27524294302E+03  0.27931293932E+03  0.00000000000E+00 0. -1.
        -11    1    3    3    0    0 -0.21999455997E+02  0.35875315553E+02  0.16569597055E+03  0.17095662897E+03  0.00000000000E+00 0.  1.
         22    1    1    2    0    0 -0.10580307315E+02 -0.12978748041E+01  0.17636697621E+02  0.20607777291E+02  0.00000000000E+00 0. -1.
<mgrwt>
<rscale>  0 0.53320555E+02</rscale>
<asrwt>0</asrwt>
<pdfrwt beam="1">  1        1 0.71496353E-01 0.91189685E+02</pdfrwt>
<pdfrwt beam="2">  1       -1 0.94628763E-03 0.91189685E+02</pdfrwt>
<totfact> 0.88121918E+04</totfact>
</mgrwt>
</event>
<event>
 6    1  0.2995420E-002  0.9256794E+02  0.7546771E-02  0.1392786E+00
          4   -1    0    0  501    0  0.00000000000E+00  0.00000000000E+00  0.12360063566E+03  0.12360063566E+03  0.00000000000E+00 0.  1.
         -4   -1    0    0    0  501 -0.00000000000E+00 -0.00000000000E+00 -0.33601765727E+02  0.33601765727E+02  0.00000000000E+00 0. -1.
         23    2    1    2    0    0  0.55493804560E+01  0.16815819773E+02  0.10048408614E+03  0.13662311139E+03  0.90858437035E+02 0.  0.
         11    1    3    3    0    0  0.39551747882E+02 -0.63472049849E+01  0.16929182711E+02  0.43488216782E+02  0.00000000000E+00 0. -1.
        -11    1    3    3    0    0 -0.34002367426E+02  0.23163024758E+02  0.83554903428E+02  0.93134894607E+02  0.00000000000E+00 0.  1.
         22    1    1    2    0    0 -0.55493804560E+01 -0.16815819773E+02 -0.10485216203E+02  0.20579290000E+02  0.00000000000E+00 0. -1.
<mgrwt>
<rscale>  0 0.61219081E+02</rscale>
<asrwt>0</asrwt>
<pdfrwt beam="1">  1        4 0.19015482E-01 0.92567937E+02</pdfrwt>
<pdfrwt beam="2">  1       -4 0.51695025E-02 0.92567937E+02</pdfrwt>
<totfact> 0.81944894E+03</totfact>
</mgrwt>
</event>
<event>
 6    1  0.2995420E-002  0.9310165E+02  0.7546771E-02  0.1388172E+00
         -1   -1    0    0    0  501 -0.00000000000E+00  0.00000000000E+00  0.32651806337E+02  0.32651806337E+02  0.00000000000E+00 0.  1.
          1   -1    0    0  501    0  0.00000000000E+00 -0.00000000000E+00 -0.18781597154E+03  0.18781597154E+03  0.00000000000E+00 0. -1.
         23    2    1    2    0    0  0.15352917069E+02 -0.10752192938E+02 -0.17180083461E+03  0.19540584490E+03  0.91195371217E+02 0.  0.
         13    1    3    3    0    0  0.42615276934E+02  0.11692608452E+02 -0.14350491433E+03  0.15015471807E+03  0.00000000000E+00 0. -1.
        -13    1    3    3    0    0 -0.27262359865E+02 -0.22444801390E+02 -0.28295920278E+02  0.45251126829E+02  0.00000000000E+00 0.  1.
         22    1    1    2    0    0 -0.15352917069E+02  0.10752192938E+02  0.16636669410E+02  0.25061932977E+02  0.00000000000E+00 0.  1.
<mgrwt>
<rscale>  0 0.62363598E+02</rscale>
<asrwt>0</asrwt>
<pdfrwt beam="1">  1        1 0.28894765E-01 0.93101651E+02</pdfrwt>
<pdfrwt beam="2">  1       -1 0.50233548E-02 0.93101651E+02</pdfrwt>
<totfact> 0.24666131E+04</totfact>
</mgrwt>
</event>
<event>
 6    1  0.2995420E-002  0.9310400E+02  0.7546771E-02  0.1428202E+00
         -2   -1    0    0    0  501 -0.00000000000E+00  0.00000000000E+00  0.17260481125E+02  0.17260481125E+02  0.00000000000E+00 0.  1.
          2   -1    0    0  501    0  0.00000000000E+00 -0.00000000000E+00 -0.17432624810E+03  0.17432624810E+03  0.00000000000E+00 0. -1.
         23    2    1    2    0    0 -0.15462399462E+01  0.98969906621E+01 -0.15578734033E+03  0.18148842953E+03  0.92563563911E+02 0.  0.
         13    1    3    3    0    0 -0.16559800926E+02  0.69259683551E+01 -0.16340834154E+03  0.16439124712E+03  0.00000000000E+00 0. -1.
        -13    1    3    3    0    0  0.15013560979E+02  0.29710223070E+01  0.76210012127E+01  0.17097182409E+02  0.00000000000E+00 0.  1.
         22    1    1    2    0    0  0.15462399462E+01 -0.98969906621E+01 -0.12784266513E+01  0.10098299700E+02  0.00000000000E+00 0. -1.
<mgrwt>
<rscale>  0 0.53322587E+02</rscale>
<asrwt>0</asrwt>
<pdfrwt beam="1">  1        2 0.26819425E-01 0.93103999E+02</pdfrwt>
<pdfrwt beam="2">  1       -2 0.26554584E-02 0.93103999E+02</pdfrwt>
<totfact> 0.86688391E+04</totfact>
</mgrwt>
</event>
<event>
 6    1  0.2995420E-002  0.9500866E+02  0.7546771E-02  0.1387427E+00
         -1   -1    0    0    0  501 -0.00000000000E+00  0.00000000000E+00  0.53076401503E+02  0.53076401503E+02  0.00000000000E+00 0.  1.
          1   -1    0    0  501    0  0.00000000000E+00 -0.00000000000E+00 -0.60011898592E+02  0.60011898592E+02  0.00000000000E+00 0. -1.
         23    2    1    2    0    0  0.18370605185E+01  0.17755760597E+02 -0.51379516569E+01  0.95147480847E+02  0.93316679852E+02 0.  0.
         11    1    3    3    0    0 -0.37975854880E+02  0.24186010225E+02 -0.23554194289E+02  0.50812682601E+02  0.00000000000E+00 0. -1.
        -11    1    3    3    0    0  0.39812915399E+02 -0.64302496280E+01  0.18416242632E+02  0.44334798246E+02  0.00000000000E+00 0.  1.
         22    1    1    2    0    0 -0.18370605185E+01 -0.17755760597E+02 -0.17975454325E+01  0.17940819248E+02  0.00000000000E+00 0.  1.
<mgrwt>
<rscale>  0 0.62551140E+02</rscale>
<asrwt>0</asrwt>
<pdfrwt beam="1">  1        1 0.92325998E-02 0.95008655E+02</pdfrwt>
<pdfrwt beam="2">  1       -1 0.81656002E-02 0.95008655E+02</pdfrwt>
<totfact> 0.51529841E+04</totfact>
</mgrwt>
</event>
<event>
 6    1  0.2995420E-002  0.9147707E+02  0.7546771E-02  0.1403545E+00
         -2   -1    0    0    0  501 -0.00000000000E+00  0.00000000000E+00  0.10816272688E+02  0.10816272688E+02  0.00000000000E+00 0.  1.
          2   -1    0    0  501    0  0.00000000000E+00 -0.00000000000E+00 -0.59142667309E+03  0.59142667309E+03  0.00000000000E+00 0. -1.
         23    2    1    2    0    0 -0.87690498275E+01  0.12741421397E+02 -0.57956546530E+03  0.58674030266E+03  0.90159936469E+02 0.  0.
         13    1    3    3    0    0 -0.23471689288E+02  0.45576954002E+02 -0.42295567791E+03  0.42605126970E+03  0.00000000000E+00 0. -1.
        -13    1    3    3    0    0  0.14702639461E+02 -0.32835532605E+02 -0.15660978739E+03  0.16068903296E+03  0.00000000000E+00 0.  1.
         22    1    1    2    0    0  0.87690498275E+01 -0.12741421397E+02 -0.10449350968E+01  0.15502643112E+02  0.00000000000E+00 0.  1.
<mgrwt>
<rscale>  0 0.58659508E+02</rscale>
<asrwt>0</asrwt>
<pdfrwt beam="1">  1        2 0.90988699E-01 0.91477069E+02</pdfrwt>
<pdfrwt beam="2">  1       -2 0.16640423E-02 0.91477069E+02</pdfrwt>
<totfact> 0.46252316E+04</totfact>
</mgrwt>
</event>
<event>
 6    1  0.2995420E-002  0.9914587E+02  0.7546771E-02  0.1331123E+00
         -4   -1    0    0    0  501 -0.00000000000E+00  0.00000000000E+00  0.87945413624E+02  0.87945413624E+02  0.00000000000E+00 0.  1.
          4   -1    0    0  501    0  0.00000000000E+00 -0.00000000000E+00 -0.56027386924E+02  0.56027386924E+02  0.00000000000E+00 0. -1.
         23    2    1    2    0    0  0.25080785235E+02  0.31829743076E+02  0.29207214230E+02  0.10335843318E+03  0.90486054254E+02 0.  0.
         11    1    3    3    0    0  0.35066507134E+02  0.14009494698E+01 -0.23108056422E+02  0.42019101057E+02  0.00000000000E+00 0. -1.
        -11    1    3    3    0    0 -0.99857218991E+01  0.30428793606E+02  0.52315270652E+02  0.61339332125E+02  0.00000000000E+00 0.  1.
         22    1    1    2    0    0 -0.25080785235E+02 -0.31829743076E+02  0.27108124690E+01  0.40614367366E+02  0.00000000000E+00 0.  1.
<mgrwt>
<rscale>  0 0.79274502E+02</rscale>
<asrwt>0</asrwt>
<pdfrwt beam="1">  1        4 0.86195980E-02 0.99145874E+02</pdfrwt>
<pdfrwt beam="2">  1       -4 0.13530064E-01 0.99145874E+02</pdfrwt>
<totfact> 0.65941104E+03</totfact>
</mgrwt>
</event>
<event>
 6    1  0.2995420E-002  0.1062239E+03  0.7546771E-02  0.1396024E+00
         -2   -1    0    0    0  501 -0.00000000000E+00  0.00000000000E+00  0.32415531505E+01  0.32415531505E+01  0.00000000000E+00 0.  1.
          2   -1    0    0  501    0  0.00000000000E+00 -0.00000000000E+00 -0.17000787988E+04  0.17000787988E+04  0.00000000000E+00 0. -1.
         23    2    1    2    0    0 -0.72300924993E+01  0.84596208882E+01 -0.16785885053E+04  0.16819461632E+04  0.10563941559E+03 0.  0.
         11    1    3    3    0    0 -0.45999578715E+02  0.28917352189E+01 -0.13837624085E+04  0.13845297853E+04  0.00000000000E+00 0. -1.
        -11    1    3    3    0    0  0.38769486215E+02  0.55678856693E+01 -0.29482609684E+03  0.29741637781E+03  0.00000000000E+00 0.  1.
         22    1    1    2    0    0  0.72300924993E+01 -0.84596208882E+01 -0.18248740319E+02  0.21374188788E+02  0.00000000000E+00 0.  1.
<mgrwt>
<rscale>  0 0.60433002E+02</rscale>
<asrwt>0</asrwt>
<pdfrwt beam="1">  1        2 0.26155126E+00 0.10622394E+03</pdfrwt>
<pdfrwt beam="2">  1       -2 0.49869920E-03 0.10622394E+03</pdfrwt>
<totfact> 0.57959392E+04</totfact>
</mgrwt>
</event>
<event>
 6    1  0.2995420E-002  0.9613204E+02  0.7546771E-02  0.1382708E+00
         -2   -1    0    0    0  501 -0.00000000000E+00  0.00000000000E+00  0.56030412650E+01  0.56030412650E+01  0.00000000000E+00 0.  1.
          2   -1    0    0  501    0  0.00000000000E+00 -0.00000000000E+00 -0.16482902001E+04  0.16482902001E+04  0.00000000000E+00 0. -1.
         23    2    1    2    0    0  0.87971361962E+01  0.16388313740E+02 -0.16261966571E+04  0.16290355850E+04  0.94315445262E+02 0.  0.
         11    1    3    3    0    0 -0.15767328222E+02  0.18984523849E+02 -0.11414971251E+03  0.11678688990E+03  0.00000000000E+00 0.  1.
        -11    1    3    3    0    0  0.24564464418E+02 -0.25962101092E+01 -0.15120469445E+04  0.15122486951E+04  0.00000000000E+00 0. -1.
         22    1    1    2    0    0 -0.87971361962E+01 -0.16388313740E+02 -0.16490501749E+02  0.24857656374E+02  0.00000000000E+00 0.  1.
<mgrwt>
<rscale>  0 0.63757367E+02</rscale>
<asrwt>0</asrwt>
<pdfrwt beam="1">  1        2 0.25358303E+00 0.96132043E+02</pdfrwt>
<pdfrwt beam="2">  1       -2 0.86200661E-03 0.96132043E+02</pdfrwt>
<totfact> 0.28216696E+04</totfact>
</mgrwt>
</event>
<event>
 6    1  0.2995420E-002  0.9451288E+02  0.7546771E-02  0.1343742E+00
         -2   -1    0    0    0  501 -0.00000000000E+00  0.00000000000E+00  0.42208009541E+02  0.42208009541E+02  0.00000000000E+00 0.  1.
          2   -1    0    0  501    0  0.00000000000E+00 -0.00000000000E+00 -0.10865615996E+03  0.10865615996E+03  0.00000000000E+00 0. -1.
         23    2    1    2    0    0  0.35273278424E+02 -0.12908228451E+02 -0.62015608435E+02  0.11304256244E+03  0.86728649827E+02 0.  0.
         11    1    3    3    0    0 -0.18672813276E+02  0.40767317575E+01  0.99220642715E+01  0.21534647823E+02  0.00000000000E+00 0. -1.
        -11    1    3    3    0    0  0.53946091700E+02 -0.16984960209E+02 -0.71937672706E+02  0.91507914616E+02  0.00000000000E+00 0.  1.
         22    1    1    2    0    0 -0.35273278424E+02  0.12908228451E+02 -0.44325419874E+01  0.37821607065E+02  0.00000000000E+00 0. -1.
<mgrwt>
<rscale>  0 0.75041665E+02</rscale>
<asrwt>0</asrwt>
<pdfrwt beam="1">  1        2 0.16716332E-01 0.94512884E+02</pdfrwt>
<pdfrwt beam="2">  1       -2 0.64935400E-02 0.94512884E+02</pdfrwt>
<totfact> 0.39260270E+04</totfact>
</mgrwt>
</event>
<event>
 6    1  0.2995420E-002  0.9092000E+02  0.7546771E-02  0.1426660E+00
          2   -1    0    0  501    0  0.00000000000E+00  0.00000000000E+00  0.69355048547E+03  0.69355048547E+03  0.00000000000E+00 0.  1.
         -2   -1    0    0    0  501 -0.00000000000E+00 -0.00000000000E+00 -0.52214939171E+01  0.52214939171E+01  0.00000000000E+00 0. -1.
         23    2    1    2    0    0 -0.10736620445E+02 -0.24463015549E+01  0.67660894124E+03  0.68269034423E+03  0.90250691584E+02 0.  0.
         13    1    3    3    0    0 -0.11368346541E+02 -0.24181864511E+02  0.63654647975E+03  0.63710707322E+03  0.00000000000E+00 0.  1.
        -13    1    3    3    0    0  0.63172609591E+00  0.21735562956E+02  0.40062461497E+02  0.45583271011E+02  0.00000000000E+00 0. -1.
         22    1    1    2    0    0  0.10736620445E+02  0.24463015549E+01  0.11720050306E+02  0.16081635148E+02  0.00000000000E+00 0. -1.
<mgrwt>
<rscale>  0 0.53636324E+02</rscale>
<asrwt>0</asrwt>
<pdfrwt beam="1">  1        2 0.10670000E+00 0.90920002E+02</pdfrwt>
<pdfrwt beam="2">  1       -2 0.80330731E-03 0.90920002E+02</pdfrwt>
<totfact> 0.10840306E+05</totfact>
</mgrwt>
</event>
<event>
 6    1  0.2995420E-002  0.9602193E+02  0.7546771E-02  0.1400702E+00
          2   -1    0    0  501    0  0.00000000000E+00  0.00000000000E+00  0.32181960121E+01  0.32181960121E+01  0.00000000000E+00 0. -1.
         -2   -1    0    0    0  501 -0.00000000000E+00 -0.00000000000E+00 -0.96424554209E+03  0.96424554209E+03  0.00000000000E+00 0.  1.
         23    2    1    2    0    0 -0.12655138613E+02 -0.59571885127E+01 -0.88164248951E+03  0.88685607048E+03  0.94997735748E+02 0.  0.
         13    1    3    3    0    0 -0.29094690480E+02 -0.25163308050E+02 -0.80947664053E+03  0.81039010646E+03  0.00000000000E+00 0.  1.
        -13    1    3    3    0    0  0.16439551867E+02  0.19206119538E+02 -0.72165848981E+02  0.76465964013E+02  0.00000000000E+00 0. -1.
         22    1    1    2    0    0  0.12655138613E+02  0.59571885127E+01 -0.79384856568E+02  0.80607667629E+02  0.00000000000E+00 0. -1.
<mgrwt>
<rscale>  0 0.59321236E+02</rscale>
<asrwt>0</asrwt>
<pdfrwt beam="1">  1        2 0.49510589E-03 0.96021927E+02</pdfrwt>
<pdfrwt beam="2">  1       -2 0.14834582E+00 0.96021927E+02</pdfrwt>
<totfact> 0.11298060E+04</totfact>
</mgrwt>
</event>
<event>
 6    1  0.2995420E-002  0.9122018E+02  0.7546771E-02  0.1409892E+00
          4   -1    0    0  501    0  0.00000000000E+00  0.00000000000E+00  0.54599810856E+03  0.54599810856E+03  0.00000000000E+00 0. -1.
         -4   -1    0    0    0  501 -0.00000000000E+00 -0.00000000000E+00 -0.71674749882E+01  0.71674749882E+01  0.00000000000E+00 0.  1.
         23    2    1    2    0    0  0.26215776149E+01 -0.13875249481E+02  0.52672652577E+03  0.53456707170E+03  0.90120619033E+02 0.  0.
         13    1    3    3    0    0 -0.27724350211E+01 -0.59420527950E+01 -0.11040631486E+01  0.66493114531E+01  0.00000000000E+00 0.  1.
        -13    1    3    3    0    0  0.53940126360E+01 -0.79331966856E+01  0.52783058892E+03  0.52791776025E+03  0.00000000000E+00 0. -1.
         22    1    1    2    0    0 -0.26215776149E+01  0.13875249481E+02  0.12104107795E+02  0.18598511845E+02  0.00000000000E+00 0.  1.
<mgrwt>
<rscale>  0 0.57217982E+02</rscale>
<asrwt>0</asrwt>
<pdfrwt beam="1">  1        4 0.83999676E-01 0.91220180E+02</pdfrwt>
<pdfrwt beam="2">  1       -4 0.11026889E-02 0.91220180E+02</pdfrwt>
<totfact> 0.47681351E+03</totfact>
</mgrwt>
</event>
<event>
 6    1  0.2995420E-002  0.9737172E+02  0.7546771E-02  0.1402283E+00
          1   -1    0    0  501    0  0.00000000000E+00  0.00000000000E+00  0.42165729408E+03  0.42165729408E+03  0.00000000000E+00 0. -1.
         -1   -1    0    0    0  501 -0.00000000000E+00 -0.00000000000E+00 -0.25671582502E+02  0.25671582502E+02  0.00000000000E+00 0.  1.
         23    2    1    2    0    0  0.13037033315E+02 -0.10911262526E+01  0.41387010208E+03  0.42517021647E+03  0.96488842803E+02 0.  0.
         11    1    3    3    0    0 -0.25020185324E+02 -0.13564229960E+02  0.33959796158E+03  0.34078845861E+03  0.00000000000E+00 0. -1.
        -11    1    3    3    0    0  0.38057218638E+02  0.12473103708E+02  0.74272140500E+02  0.84381757869E+02  0.00000000000E+00 0.  1.
         22    1    1    2    0    0 -0.13037033315E+02  0.10911262526E+01 -0.17884390503E+02  0.22158660109E+02  0.00000000000E+00 0.  1.
<mgrwt>
<rscale>  0 0.58951962E+02</rscale>
<asrwt>0</asrwt>
<pdfrwt beam="1">  1        1 0.64870348E-01 0.97371719E+02</pdfrwt>
<pdfrwt beam="2">  1       -1 0.39494745E-02 0.97371719E+02</pdfrwt>
<totfact> 0.13030251E+04</totfact>
</mgrwt>
</event>
<event>
 6    1  0.2995420E-002  0.9300002E+02  0.7546771E-02  0.1408926E+00
          2   -1    0    0  501    0  0.00000000000E+00  0.00000000000E+00  0.52430511560E+03  0.52430511560E+03  0.00000000000E+00 0. -1.
         -2   -1    0    0    0  501 -0.00000000000E+00 -0.00000000000E+00 -0.54565388279E+01  0.54565388279E+01  0.00000000000E+00 0.  1.
         23    2    1    2    0    0  0.13010804081E+02  0.37046338764E+01  0.46753318123E+03  0.47669306527E+03  0.92010855858E+02 0.  0.
         13    1    3    3    0    0  0.69103704827E+01 -0.17589249030E+02  0.44390019768E+03  0.44430228494E+03  0.00000000000E+00 0. -1.
        -13    1    3    3    0    0  0.61004335980E+01  0.21293882907E+02  0.23632983550E+02  0.32390780336E+02  0.00000000000E+00 0.  1.
         22    1    1    2    0    0 -0.13010804081E+02 -0.37046338764E+01  0.51315395541E+02  0.53068589151E+02  0.00000000000E+00 0.  1.
<mgrwt>
<rscale>  0 0.57434155E+02</rscale>
<asrwt>0</asrwt>
<pdfrwt beam="1">  1        2 0.80662285E-01 0.93000016E+02</pdfrwt>
<pdfrwt beam="2">  1       -2 0.83946793E-03 0.93000016E+02</pdfrwt>
<totfact> 0.13992404E+05</totfact>
</mgrwt>
</event>
<event>
 6    1  0.2995420E-002  0.9541154E+02  0.7546771E-02  0.1363182E+00
         -1   -1    0    0    0  501 -0.00000000000E+00  0.00000000000E+00  0.46692740671E+01  0.46692740671E+01  0.00000000000E+00 0.  1.
          1   -1    0    0  501    0  0.00000000000E+00 -0.00000000000E+00 -0.10380521838E+04  0.10380521838E+04  0.00000000000E+00 0. -1.
         23    2    1    2    0    0 -0.18969138310E+02  0.18141931569E+02 -0.96102879120E+03  0.96575343621E+03  0.91730061300E+02 0.  0.
         13    1    3    3    0    0  0.10616802439E+02 -0.15606165548E+02 -0.73864098617E+03  0.73888211194E+03  0.00000000000E+00 0. -1.
        -13    1    3    3    0    0 -0.29585940749E+02  0.33748097118E+02 -0.22238780503E+03  0.22687132427E+03  0.00000000000E+00 0.  1.
         22    1    1    2    0    0  0.18969138310E+02 -0.18141931569E+02 -0.72354118546E+02  0.76968021670E+02  0.00000000000E+00 0. -1.
<mgrwt>
<rscale>  0 0.69099478E+02</rscale>
<asrwt>0</asrwt>
<pdfrwt beam="1">  1        1 0.15970026E+00 0.95411540E+02</pdfrwt>
<pdfrwt beam="2">  1       -1 0.71835020E-03 0.95411540E+02</pdfrwt>
<totfact> 0.41392173E+04</totfact>
</mgrwt>
</event>
<event>
 6    1  0.2995420E-002  0.9317744E+02  0.7546771E-02  0.1404398E+00
          2   -1    0    0  501    0  0.00000000000E+00  0.00000000000E+00  0.15567648707E+04  0.15567648707E+04  0.00000000000E+00 0. -1.
         -2   -1    0    0    0  501 -0.00000000000E+00 -0.00000000000E+00 -0.34969577562E+01  0.34969577562E+01  0.00000000000E+00 0.  1.
         23    2    1    2    0    0  0.10807686626E+02  0.95775069805E+01  0.15302823193E+04  0.15331164376E+04  0.92051614299E+02 0.  0.
         13    1    3    3    0    0  0.31609548732E+02  0.43260870785E+02  0.89103488385E+03  0.89264429128E+03  0.00000000000E+00 0. -1.
        -13    1    3    3    0    0 -0.20801862106E+02 -0.33683363805E+02  0.63924743548E+03  0.64047214634E+03  0.00000000000E+00 0.  1.
         22    1    1    2    0    0 -0.10807686626E+02 -0.95775069805E+01  0.22985593603E+02  0.27145390832E+02  0.00000000000E+00 0. -1.
<mgrwt>
<rscale>  0 0.58462901E+02</rscale>
<asrwt>0</asrwt>
<pdfrwt beam="1">  1        2 0.23950173E+00 0.93177435E+02</pdfrwt>
<pdfrwt beam="2">  1       -2 0.53799474E-03 0.93177435E+02</pdfrwt>
<totfact> 0.60829053E+04</totfact>
</mgrwt>
</event>
<event>
 6    1  0.2995420E-002  0.8661028E+02  0.7546771E-02  0.1429929E+00
          2   -1    0    0  501    0  0.00000000000E+00  0.00000000000E+00  0.15236694183E+03  0.15236694183E+03  0.00000000000E+00 0. -1.
         -2   -1    0    0    0  501 -0.00000000000E+00 -0.00000000000E+00 -0.43325835745E+02  0.43325835745E+02  0.00000000000E+00 0.  1.
         23    2    1    2    0    0 -0.96834016871E+01  0.72911549375E+01  0.13877427381E+03  0.16358373724E+03  0.85757861513E+02 0.  0.
         13    1    3    3    0    0 -0.34701875440E+02  0.74476520504E+01  0.13333818590E+03  0.13798101137E+03  0.00000000000E+00 0. -1.
        -13    1    3    3    0    0  0.25018473753E+02 -0.15649711292E+00  0.54360879064E+01  0.25602725871E+02  0.00000000000E+00 0.  1.
         22    1    1    2    0    0  0.96834016871E+01 -0.72911549375E+01 -0.29733167720E+02  0.32109040335E+02  0.00000000000E+00 0.  1.
<mgrwt>
<rscale>  0 0.52974344E+02</rscale>
<asrwt>0</asrwt>
<pdfrwt beam="1">  1        2 0.23441068E-01 0.86610277E+02</pdfrwt>
<pdfrwt beam="2">  1       -2 0.66655133E-02 0.86610277E+02</pdfrwt>
<totfact> 0.25581361E+04</totfact>
</mgrwt>
</event>
<event>
 6    1  0.2995420E-002  0.1107227E+03  0.7546771E-02  0.1289058E+00
         -2   -1    0    0    0  501 -0.00000000000E+00  0.00000000000E+00  0.54245992053E+01  0.54245992053E+01  0.00000000000E+00 0.  1.
          2   -1    0    0  501    0  0.00000000000E+00 -0.00000000000E+00 -0.22737029426E+04  0.22737029426E+04  0.00000000000E+00 0. -1.
         23    2    1    2    0    0 -0.54247007511E+02  0.30905135036E+02 -0.20230110091E+04  0.20260387620E+04  0.91442096190E+02 0.  0.
         11    1    3    3    0    0 -0.66631182918E+01 -0.23600735043E+02 -0.10715669118E+04  0.10718474883E+04  0.00000000000E+00 0. -1.
        -11    1    3    3    0    0 -0.47583889220E+02  0.54505870079E+02 -0.95144409732E+03  0.95419127365E+03  0.00000000000E+00 0.  1.
         22    1    1    2    0    0  0.54247007511E+02 -0.30905135036E+02 -0.24526733428E+03  0.25308877980E+03  0.00000000000E+00 0.  1.
<mgrwt>
<rscale>  0 0.95946896E+02</rscale>
<asrwt>0</asrwt>
<pdfrwt beam="1">  1        2 0.34980041E+00 0.11072273E+03</pdfrwt>
<pdfrwt beam="2">  1       -2 0.83455382E-03 0.11072273E+03</pdfrwt>
<totfact> 0.14349510E+04</totfact>
</mgrwt>
</event>
<event>
 6    1  0.2995420E-002  0.9268104E+02  0.7546771E-02  0.1429188E+00
          2   -1    0    0  501    0  0.00000000000E+00  0.00000000000E+00  0.11745995256E+03  0.11745995256E+03  0.00000000000E+00 0. -1.
         -2   -1    0    0    0  501 -0.00000000000E+00 -0.00000000000E+00 -0.27343636466E+02  0.27343636466E+02  0.00000000000E+00 0.  1.
         23    2    1    2    0    0  0.37638382742E+01  0.92689147708E+01  0.95802735665E+02  0.13329643354E+03  0.92139545122E+02 0.  0.
         13    1    3    3    0    0  0.12197573043E+01  0.31309522471E+02 -0.35157739999E+01  0.31529901237E+02  0.00000000000E+00 0.  1.
        -13    1    3    3    0    0  0.25440809700E+01 -0.22040607700E+02  0.99318509665E+02  0.10176653231E+03  0.00000000000E+00 0. -1.
         22    1    1    2    0    0 -0.37638382742E+01 -0.92689147708E+01 -0.56864195751E+01  0.11507155477E+02  0.00000000000E+00 0.  1.
<mgrwt>
<rscale>  0 0.53123439E+02</rscale>
<asrwt>0</asrwt>
<pdfrwt beam="1">  1        2 0.18070762E-01 0.92681039E+02</pdfrwt>
<pdfrwt beam="2">  1       -2 0.42067134E-02 0.92681039E+02</pdfrwt>
<totfact> 0.68451151E+04</totfact>
</mgrwt>
</event>
<event>
 6    1  0.2995420E-002  0.8835769E+02  0.7546771E-02  0.1406535E+00
         -2   -1    0    0    0  501 -0.00000000000E+00  0.00000000000E+00  0.55874157650E+02  0.55874157650E+02  0.00000000000E+00 0.  1.
          2   -1    0    0  501    0  0.00000000000E+00 -0.00000000000E+00 -0.11572655380E+03  0.11572655380E+03  0.00000000000E+00 0. -1.
         23    2    1    2    0    0 -0.11523181412E+02 -0.11635536192E+02 -0.96875246348E+02  0.13111786510E+03  0.86826907005E+02 0.  0.
         11    1    3    3    0    0  0.27292744605E+02 -0.34242960037E+01 -0.11890612731E+01  0.27532409591E+02  0.00000000000E+00 0.  1.
        -11    1    3    3    0    0 -0.38815926017E+02 -0.82112401886E+01 -0.95686185075E+02  0.10358545551E+03  0.00000000000E+00 0. -1.
         22    1    1    2    0    0  0.11523181412E+02  0.11635536192E+02  0.37022850196E+02  0.40482846355E+02  0.00000000000E+00 0.  1.
<mgrwt>
<rscale>  0 0.57974153E+02</rscale>
<asrwt>0</asrwt>
<pdfrwt beam="1">  1        2 0.17804085E-01 0.88357689E+02</pdfrwt>
<pdfrwt beam="2">  1       -2 0.85960242E-02 0.88357689E+02</pdfrwt>
<totfact> 0.23652165E+04</totfact>
</mgrwt>
</event>
<event>
 6    1  0.2995420E-002  0.9702231E+02  0.7546771E-02  0.1349367E+00
          2   -1    0    0  501    0  0.00000000000E+00  0.00000000000E+00  0.13822728525E+04  0.13822728525E+04  0.00000000000E+00 0. -1.
         -2   -1    0    0    0  501 -0.00000000000E+00 -0.00000000000E+00 -0.64922125487E+01  0.64922125487E+01  0.00000000000E+00 0.  1.
         23    2    1    2    0    0 -0.28170868022E+02  0.14156437317E+02  0.13278804397E+04  0.13314202160E+04  0.91756891090E+02 0.  0.
         11    1    3    3    0    0 -0.50337649259E+02  0.11174716356E+02  0.12273104015E+04  0.12283930864E+04  0.00000000000E+00 0. -1.
        -11    1    3    3    0    0  0.22166781237E+02  0.29817209615E+01  0.10057003816E+03  0.10302712956E+03  0.00000000000E+00 0.  1.
         22    1    1    2    0    0  0.28170868022E+02 -0.14156437317E+02  0.47900200292E+02  0.57344849034E+02  0.00000000000E+00 0.  1.
<mgrwt>
<rscale>  0 0.73253294E+02</rscale>
<asrwt>0</asrwt>
<pdfrwt beam="1">  1        2 0.21265713E+00 0.97022315E+02</pdfrwt>
<pdfrwt beam="2">  1       -2 0.99880303E-03 0.97022315E+02</pdfrwt>
<totfact> 0.31370224E+04</totfact>
</mgrwt>
</event>
<event>
 6    1  0.2995420E-002  0.9429387E+02  0.7546771E-02  0.1362578E+00
         -3   -1    0    0    0  501 -0.00000000000E+00  0.00000000000E+00  0.16179604512E+03  0.16179604512E+03  0.00000000000E+00 0.  1.
          3   -1    0    0  501    0  0.00000000000E+00 -0.00000000000E+00 -0.79237623752E+02  0.79237623752E+02  0.00000000000E+00 0. -1.
         23    2    1    2    0    0 -0.11166915400E+02  0.25096484521E+02 -0.49258689387E+02  0.10638492501E+03  0.90204214176E+02 0.  0.
         11    1    3    3    0    0 -0.14976768626E+02  0.21906884765E+02 -0.75317959304E+02  0.79856184433E+02  0.00000000000E+00 0. -1.
        -11    1    3    3    0    0  0.38098532262E+01  0.31895997560E+01  0.26059269916E+02  0.26528740580E+02  0.00000000000E+00 0.  1.
         22    1    1    2    0    0  0.11166915400E+02 -0.25096484521E+02  0.13181711076E+03  0.13464874386E+03  0.00000000000E+00 0.  1.
<mgrwt>
<rscale>  0 0.69274342E+02</rscale>
<asrwt>0</asrwt>
<pdfrwt beam="1">  1        3 0.12190404E-01 0.94293869E+02</pdfrwt>
<pdfrwt beam="2">  1       -3 0.24891699E-01 0.94293869E+02</pdfrwt>
<totfact> 0.17192136E+03</totfact>
</mgrwt>
</event>
<event>
 6    1  0.2995420E-002  0.9196209E+02  0.7546771E-02  0.1421094E+00
         -2   -1    0    0    0  501 -0.00000000000E+00  0.00000000000E+00  0.55644857638E+01  0.55644857638E+01  0.00000000000E+00 0.  1.
          2   -1    0    0  501    0  0.00000000000E+00 -0.00000000000E+00 -0.49232659706E+03  0.49232659706E+03  0.00000000000E+00 0. -1.
         23    2    1    2    0    0  0.89404403562E+01 -0.73710703118E+01 -0.45162172205E+03  0.46088958140E+03  0.91229174411E+02 0.  0.
         13    1    3    3    0    0 -0.59616358383E+01 -0.24760619457E+02 -0.33208706912E+02  0.41850299790E+02  0.00000000000E+00 0.  1.
        -13    1    3    3    0    0  0.14902076195E+02  0.17389549146E+02 -0.41841301514E+03  0.41903928161E+03  0.00000000000E+00 0. -1.
         22    1    1    2    0    0 -0.89404403562E+01  0.73710703118E+01 -0.35140389249E+02  0.37001501428E+02  0.00000000000E+00 0.  1.
<mgrwt>
<rscale>  0 0.54790043E+02</rscale>
<asrwt>0</asrwt>
<pdfrwt beam="1">  1        2 0.75742565E-01 0.91962092E+02</pdfrwt>
<pdfrwt beam="2">  1       -2 0.85607460E-03 0.91962092E+02</pdfrwt>
<totfact> 0.14547046E+05</totfact>
</mgrwt>
</event>
<event>
 6    1  0.2995420E-002  0.1085760E+03  0.7546771E-02  0.1294903E+00
          2   -1    0    0  501    0  0.00000000000E+00  0.00000000000E+00  0.25879837189E+03  0.25879837189E+03  0.00000000000E+00 0. -1.
         -2   -1    0    0    0  501 -0.00000000000E+00 -0.00000000000E+00 -0.92593422582E+02  0.92593422582E+02  0.00000000000E+00 0.  1.
         23    2    1    2    0    0  0.51109338085E+02  0.30198568631E+02  0.23599207006E+03  0.25977105333E+03  0.90909983101E+02 0.  0.
         13    1    3    3    0    0 -0.58050257299E+01  0.29762489818E+01  0.16366300863E+03  0.16379296925E+03  0.00000000000E+00 0. -1.
        -13    1    3    3    0    0  0.56914363815E+02  0.27222319649E+02  0.72329061433E+02  0.95978084078E+02  0.00000000000E+00 0.  1.
         22    1    1    2    0    0 -0.51109338085E+02 -0.30198568631E+02 -0.69787120748E+02  0.91620741152E+02  0.00000000000E+00 0.  1.
<mgrwt>
<rscale>  0 0.93364466E+02</rscale>
<asrwt>0</asrwt>
<pdfrwt beam="1">  1        2 0.39815134E-01 0.10857598E+03</pdfrwt>
<pdfrwt beam="2">  1       -2 0.14245142E-01 0.10857598E+03</pdfrwt>
<totfact> 0.45354125E+03</totfact>
</mgrwt>
</event>
<event>
 6    1  0.2995420E-002  0.8517330E+02  0.7546771E-02  0.1444938E+00
          1   -1    0    0  501    0  0.00000000000E+00  0.00000000000E+00  0.32476919309E+02  0.32476919309E+02  0.00000000000E+00 0. -1.
         -1   -1    0    0    0  501 -0.00000000000E+00 -0.00000000000E+00 -0.70097031020E+02  0.70097031020E+02  0.00000000000E+00 0.  1.
         23    2    1    2    0    0 -0.10089673229E+02  0.13213896990E+01 -0.32307880921E+02  0.91094953310E+02  0.84563253086E+02 0.  0.
         13    1    3    3    0    0  0.16670540429E+02 -0.16765548559E+02  0.19092063031E+02  0.30389100142E+02  0.00000000000E+00 0. -1.
        -13    1    3    3    0    0 -0.26760213657E+02  0.18086938258E+02 -0.51399943952E+02  0.60705853168E+02  0.00000000000E+00 0.  1.
         22    1    1    2    0    0  0.10089673229E+02 -0.13213896990E+01 -0.53122307900E+01  0.11478997019E+02  0.00000000000E+00 0. -1.
<mgrwt>
<rscale>  0 0.50074902E+02</rscale>
<asrwt>0</asrwt>
<pdfrwt beam="1">  1        1 0.49964491E-02 0.85173302E+02</pdfrwt>
<pdfrwt beam="2">  1       -1 0.10784159E-01 0.85173302E+02</pdfrwt>
<totfact> 0.75662546E+04</totfact>
</mgrwt>
</event>
<event>
 6    1  0.2995420E-002  0.9238506E+02  0.7546771E-02  0.1413214E+00
          2   -1    0    0  501    0  0.00000000000E+00  0.00000000000E+00  0.21881147841E+02  0.21881147841E+02  0.00000000000E+00 0.  1.
         -2   -1    0    0    0  501 -0.00000000000E+00 -0.00000000000E+00 -0.13782578334E+03  0.13782578334E+03  0.00000000000E+00 0. -1.
         23    2    1    2    0    0 -0.18566952378E+01 -0.12773699104E+02 -0.82507377220E+02  0.12386470821E+03  0.91478871545E+02 0.  0.
         13    1    3    3    0    0 -0.18121525228E+01  0.38862659281E+02 -0.47876027379E+02  0.61690389695E+02  0.00000000000E+00 0. -1.
        -13    1    3    3    0    0 -0.44542715002E-01 -0.51636358386E+02 -0.34631349841E+02  0.62174318518E+02  0.00000000000E+00 0.  1.
         22    1    1    2    0    0  0.18566952378E+01  0.12773699104E+02 -0.33437258280E+02  0.35842222968E+02  0.00000000000E+00 0. -1.
<mgrwt>
<rscale>  0 0.56482702E+02</rscale>
<asrwt>0</asrwt>
<pdfrwt beam="1">  1        2 0.33663304E-02 0.92385056E+02</pdfrwt>
<pdfrwt beam="2">  1       -2 0.21203967E-01 0.92385056E+02</pdfrwt>
<totfact> 0.43928263E+04</totfact>
</mgrwt>
</event>
<event>
 6    1  0.2995420E-002  0.9419091E+02  0.7546771E-02  0.1380761E+00
          2   -1    0    0  501    0  0.00000000000E+00  0.00000000000E+00  0.98948473912E+02  0.98948473912E+02  0.00000000000E+00 0. -1.
         -2   -1    0    0    0  501 -0.00000000000E+00 -0.00000000000E+00 -0.33412411976E+02  0.33412411976E+02  0.00000000000E+00 0.  1.
         23    2    1    2    0    0  0.40440118321E+00 -0.20406325513E+02  0.57929690843E+02  0.11057927570E+03  0.91952952490E+02 0.  0.
         13    1    3    3    0    0  0.43260042459E+02 -0.26032301887E+02  0.25636354833E+02  0.56624506216E+02  0.00000000000E+00 0.  1.
        -13    1    3    3    0    0 -0.42855641275E+02  0.56259763746E+01  0.32293336010E+02  0.53954769483E+02  0.00000000000E+00 0. -1.
         22    1    1    2    0    0 -0.40440118321E+00  0.20406325513E+02  0.76063710924E+01  0.21781610189E+02  0.00000000000E+00 0. -1.
<mgrwt>
<rscale>  0 0.64264222E+02</rscale>
<asrwt>0</asrwt>
<pdfrwt beam="1">  1        2 0.15222842E-01 0.94190908E+02</pdfrwt>
<pdfrwt beam="2">  1       -2 0.51403711E-02 0.94190908E+02</pdfrwt>
<totfact> 0.62025529E+04</totfact>
</mgrwt>
</event>
<event>
 6    1  0.2995420E-002  0.9264358E+02  0.7546771E-02  0.1388669E+00
          1   -1    0    0  501    0  0.00000000000E+00  0.00000000000E+00  0.57391747495E+03  0.57391747495E+03  0.00000000000E+00 0. -1.
         -1   -1    0    0    0  501 -0.00000000000E+00 -0.00000000000E+00 -0.57108550658E+01  0.57108550658E+01  0.00000000000E+00 0.  1.
         23    2    1    2    0    0 -0.87265618340E+01 -0.16732349011E+02  0.51265888657E+03  0.52096253878E+03  0.90701204232E+02 0.  0.
         13    1    3    3    0    0  0.18356636063E+02 -0.19933827356E+02  0.46695347955E+03  0.46773911065E+03  0.00000000000E+00 0. -1.
        -13    1    3    3    0    0 -0.27083197897E+02  0.32014783447E+01  0.45705407014E+02  0.53223428133E+02  0.00000000000E+00 0.  1.
         22    1    1    2    0    0  0.87265618340E+01  0.16732349011E+02  0.55547733318E+02  0.58665791239E+02  0.00000000000E+00 0.  1.
<mgrwt>
<rscale>  0 0.62238871E+02</rscale>
<asrwt>0</asrwt>
<pdfrwt beam="1">  1        1 0.88294951E-01 0.92643580E+02</pdfrwt>
<pdfrwt beam="2">  1       -1 0.87859354E-03 0.92643580E+02</pdfrwt>
<totfact> 0.74612646E+04</totfact>
</mgrwt>
</event>
<event>
 6    1  0.2995420E-002  0.9498944E+02  0.7546771E-02  0.1378774E+00
         -2   -1    0    0    0  501 -0.00000000000E+00  0.00000000000E+00  0.67038167442E+01  0.67038167442E+01  0.00000000000E+00 0.  1.
          2   -1    0    0  501    0  0.00000000000E+00 -0.00000000000E+00 -0.99250726784E+03  0.99250726784E+03  0.00000000000E+00 0. -1.
         23    2    1    2    0    0  0.14616016025E+02  0.14453567722E+02 -0.96602951831E+03  0.97068842759E+03  0.92738663247E+02 0.  0.
         13    1    3    3    0    0  0.91384870564E+01 -0.16465803946E+02 -0.40910938527E+02  0.45037090674E+02  0.00000000000E+00 0.  1.
        -13    1    3    3    0    0  0.54775289688E+01  0.30919371668E+02 -0.92511857978E+03  0.92565133691E+03  0.00000000000E+00 0. -1.
         22    1    1    2    0    0 -0.14616016025E+02 -0.14453567722E+02 -0.19773932784E+02  0.28522656996E+02  0.00000000000E+00 0.  1.
<mgrwt>
<rscale>  0 0.64787189E+02</rscale>
<asrwt>0</asrwt>
<pdfrwt beam="1">  1        2 0.15269345E+00 0.94989437E+02</pdfrwt>
<pdfrwt beam="2">  1       -2 0.10313562E-02 0.94989437E+02</pdfrwt>
<totfact> 0.48986550E+04</totfact>
</mgrwt>
</event>
<event>
 6    1  0.2995420E-002  0.9516684E+02  0.7546771E-02  0.1408431E+00
         -4   -1    0    0    0  501 -0.00000000000E+00  0.00000000000E+00  0.92281909351E+01  0.92281909351E+01  0.00000000000E+00 0. -1.
          4   -1    0    0  501    0  0.00000000000E+00 -0.00000000000E+00 -0.33493521177E+03  0.33493521177E+03  0.00000000000E+00 0.  1.
         23    2    1    2    0    0  0.40475923927E+01  0.12061916350E+02 -0.30794465757E+03  0.32231450390E+03  0.94312536115E+02 0.  0.
         11    1    3    3    0    0 -0.32711463626E+02 -0.24858499447E+02 -0.10402113482E+03  0.11184087507E+03  0.00000000000E+00 0.  1.
        -11    1    3    3    0    0  0.36759056019E+02  0.36920415797E+02 -0.20392352275E+03  0.21047362883E+03  0.00000000000E+00 0. -1.
         22    1    1    2    0    0 -0.40475923927E+01 -0.12061916350E+02 -0.17762363264E+02  0.21848898803E+02  0.00000000000E+00 0.  1.
<mgrwt>
<rscale>  0 0.57545448E+02</rscale>
<asrwt>0</asrwt>
<pdfrwt beam="1">  1        4 0.51528497E-01 0.95166839E+02</pdfrwt>
<pdfrwt beam="2">  1       -4 0.14197216E-02 0.95166839E+02</pdfrwt>
<totfact> 0.92870986E+03</totfact>
</mgrwt>
</event>
<event>
 6    1  0.2995420E-002  0.1084948E+03  0.7546771E-02  0.1295129E+00
         -2   -1    0    0    0  501 -0.00000000000E+00  0.00000000000E+00  0.21307695459E+03  0.21307695459E+03  0.00000000000E+00 0.  1.
          2   -1    0    0  501    0  0.00000000000E+00 -0.00000000000E+00 -0.34138185024E+02  0.34138185024E+02  0.00000000000E+00 0. -1.
         23    2    1    2    0    0 -0.35360731817E+02  0.47539380657E+02  0.13634978218E+03  0.17424805173E+03  0.90888648154E+02 0.  0.
         13    1    3    3    0    0 -0.60382609246E+01  0.59087311199E+02  0.36899279559E+02  0.69923728245E+02  0.00000000000E+00 0. -1.
        -13    1    3    3    0    0 -0.29322470892E+02 -0.11547930543E+02  0.99450502617E+02  0.10432432348E+03  0.00000000000E+00 0.  1.
         22    1    1    2    0    0  0.35360731817E+02 -0.47539380657E+02  0.42588987387E+02  0.72967087885E+02  0.00000000000E+00 0.  1.
<mgrwt>
<rscale>  0 0.93266537E+02</rscale>
<asrwt>0</asrwt>
<pdfrwt beam="1">  1        2 0.52520286E-02 0.10849479E+03</pdfrwt>
<pdfrwt beam="2">  1       -2 0.32781069E-01 0.10849479E+03</pdfrwt>
<totfact> 0.11682344E+04</totfact>
</mgrwt>
</event>
<event>
 6    1  0.2995420E-002  0.9197197E+02  0.7546771E-02  0.1412239E+00
         -1   -1    0    0    0  501 -0.00000000000E+00  0.00000000000E+00  0.17140929575E+02  0.17140929575E+02  0.00000000000E+00 0.  1.
          1   -1    0    0  501    0  0.00000000000E+00 -0.00000000000E+00 -0.16255295456E+03  0.16255295456E+03  0.00000000000E+00 0. -1.
         23    2    1    2    0    0 -0.13018052700E+02 -0.26375777943E+01 -0.12210218552E+03  0.15286525896E+03  0.91007786351E+02 0.  0.
         13    1    3    3    0    0 -0.41070849050E+02  0.28477491710E+02 -0.69963591335E+02  0.85980732076E+02  0.00000000000E+00 0. -1.
        -13    1    3    3    0    0  0.28052796351E+02 -0.31115069505E+02 -0.52138594186E+02  0.66884526889E+02  0.00000000000E+00 0.  1.
         22    1    1    2    0    0  0.13018052700E+02  0.26375777943E+01 -0.23309839461E+02  0.26828625168E+02  0.00000000000E+00 0.  1.
<mgrwt>
<rscale>  0 0.56697265E+02</rscale>
<asrwt>0</asrwt>
<pdfrwt beam="1">  1        1 0.25008147E-01 0.91971972E+02</pdfrwt>
<pdfrwt beam="2">  1       -1 0.26370661E-02 0.91971972E+02</pdfrwt>
<totfact> 0.74912976E+04</totfact>
</mgrwt>
</event>
<event>
 6    1  0.2995420E-002  0.9588349E+02  0.7546771E-02  0.1366406E+00
          4   -1    0    0  501    0  0.00000000000E+00  0.00000000000E+00  0.97457982311E+02  0.97457982311E+02  0.00000000000E+00 0. -1.
         -4   -1    0    0    0  501 -0.00000000000E+00 -0.00000000000E+00 -0.37221192597E+02  0.37221192597E+02  0.00000000000E+00 0.  1.
         23    2    1    2    0    0 -0.17657799405E+02  0.16995361210E+02  0.49751017046E+02  0.10802225065E+03  0.92698450665E+02 0.  0.
         11    1    3    3    0    0  0.97703936528E+01 -0.16973287282E+02  0.60051084592E+02  0.63163959930E+02  0.00000000000E+00 0. -1.
        -11    1    3    3    0    0 -0.27428193058E+02  0.33968648492E+02 -0.10300067547E+02  0.44858290719E+02  0.00000000000E+00 0.  1.
         22    1    1    2    0    0  0.17657799405E+02 -0.16995361210E+02  0.10485772668E+02  0.26656924259E+02  0.00000000000E+00 0.  1.
<mgrwt>
<rscale>  0 0.68176493E+02</rscale>
<asrwt>0</asrwt>
<pdfrwt beam="1">  1        4 0.14993536E-01 0.95883486E+02</pdfrwt>
<pdfrwt beam="2">  1       -4 0.57263374E-02 0.95883486E+02</pdfrwt>
<totfact> 0.10657120E+04</totfact>
</mgrwt>
</event>
<event>
 6    1  0.2995420E-002  0.9892235E+02  0.7546771E-02  0.1331289E+00
          1   -1    0    0  501    0  0.00000000000E+00  0.00000000000E+00  0.85554565061E+03  0.85554565061E+03  0.00000000000E+00 0. -1.
         -1   -1    0    0    0  501 -0.00000000000E+00 -0.00000000000E+00 -0.72794242726E+01  0.72794242726E+01  0.00000000000E+00 0.  1.
         23    2    1    2    0    0 -0.28129592553E+02 -0.29387568352E+02  0.74963601916E+03  0.75613477111E+03  0.90170547913E+02 0.  0.
         11    1    3    3    0    0  0.20517062495E+02  0.14759779348E+00  0.48568436270E+03  0.48611754937E+03  0.00000000000E+00 0. -1.
        -11    1    3    3    0    0 -0.48646655048E+02 -0.29535166146E+02  0.26395165646E+03  0.27001722174E+03  0.00000000000E+00 0.  1.
         22    1    1    2    0    0  0.28129592553E+02  0.29387568352E+02  0.98630207175E+02  0.10669030377E+03  0.00000000000E+00 0.  1.
<mgrwt>
<rscale>  0 0.79216816E+02</rscale>
<asrwt>0</asrwt>
<pdfrwt beam="1">  1        1 0.13162233E+00 0.98922348E+02</pdfrwt>
<pdfrwt beam="2">  1       -1 0.11199121E-02 0.98922348E+02</pdfrwt>
<totfact> 0.30317390E+04</totfact>
</mgrwt>
</event>
<event>
 6    1  0.2995420E-002  0.1691985E+03  0.7546771E-02  0.1186598E+00
          1   -1    0    0  501    0  0.00000000000E+00  0.00000000000E+00  0.11304938575E+04  0.11304938575E+04  0.00000000000E+00 0. -1.
         -1   -1    0    0    0  501 -0.00000000000E+00 -0.00000000000E+00 -0.21702312111E+02  0.21702312111E+02  0.00000000000E+00 0.  1.
         23    2    1    2    0    0 -0.85443029603E+02 -0.11309992481E+03  0.53284884757E+03  0.55906709810E+03  0.92390592170E+02 0.  0.
         11    1    3    3    0    0 -0.73037135012E+02 -0.10102625394E+03  0.52579937635E+03  0.54037552798E+03  0.00000000000E+00 0.  1.
        -11    1    3    3    0    0 -0.12405894590E+02 -0.12073670875E+02  0.70494712244E+01  0.18691570119E+02  0.00000000000E+00 0. -1.
         22    1    1    2    0    0  0.85443029603E+02  0.11309992481E+03  0.57594269784E+03  0.59312907153E+03  0.00000000000E+00 0. -1.
<mgrwt>
<rscale>  0 0.16187341E+03</rscale>
<asrwt>0</asrwt>
<pdfrwt beam="1">  1        1 0.17392209E+00 0.16919848E+03</pdfrwt>
<pdfrwt beam="2">  1       -1 0.33388181E-02 0.16919848E+03</pdfrwt>
<totfact> 0.40800514E+03</totfact>
</mgrwt>
</event>
<event>
 6    1  0.2995420E-002  0.1221753E+03  0.7546771E-02  0.1330954E+00
         -2   -1    0    0    0  501 -0.00000000000E+00  0.00000000000E+00  0.25964435102E+01  0.25964435102E+01  0.00000000000E+00 0.  1.
          2   -1    0    0  501    0  0.00000000000E+00 -0.00000000000E+00 -0.23628804162E+04  0.23628804162E+04  0.00000000000E+00 0. -1.
         23    2    1    2    0    0  0.14527103805E+02 -0.16147775306E+02 -0.22340159491E+04  0.22373542576E+04  0.12022905532E+03 0.  0.
         13    1    3    3    0    0  0.67302603772E+01  0.34685051340E+02 -0.23173783984E+03  0.23441581773E+03  0.00000000000E+00 0.  1.
        -13    1    3    3    0    0  0.77968434278E+01 -0.50832826646E+02 -0.20022781093E+04  0.20029384398E+04  0.00000000000E+00 0. -1.
         22    1    1    2    0    0 -0.14527103805E+02  0.16147775306E+02 -0.12626802363E+03  0.12812260216E+03  0.00000000000E+00 0.  1.
<mgrwt>
<rscale>  0 0.79333379E+02</rscale>
<asrwt>0</asrwt>
<pdfrwt beam="1">  1        2 0.36351908E+00 0.12217534E+03</pdfrwt>
<pdfrwt beam="2">  1       -2 0.39945393E-03 0.12217534E+03</pdfrwt>
<totfact> 0.36716365E+04</totfact>
</mgrwt>
</event>
<event>
 6    1  0.2995420E-002  0.1072223E+03  0.7546771E-02  0.1365376E+00
          2   -1    0    0  501    0  0.00000000000E+00  0.00000000000E+00  0.75672498919E+02  0.75672498919E+02  0.00000000000E+00 0. -1.
         -2   -1    0    0    0  501 -0.00000000000E+00 -0.00000000000E+00 -0.12784748603E+03  0.12784748603E+03  0.00000000000E+00 0.  1.
         23    2    1    2    0    0  0.15428536785E+02 -0.89353803559E+01  0.36350779724E+02  0.11321665077E+03  0.10572960823E+03 0.  0.
         13    1    3    3    0    0  0.61066644891E+02 -0.49109889227E+01  0.17894975337E+02  0.63823844077E+02  0.00000000000E+00 0. -1.
        -13    1    3    3    0    0 -0.45638108105E+02 -0.40243914332E+01  0.18455804387E+02  0.49392806697E+02  0.00000000000E+00 0.  1.
         22    1    1    2    0    0 -0.15428536785E+02  0.89353803559E+01 -0.88525766834E+02  0.90303334174E+02  0.00000000000E+00 0.  1.
<mgrwt>
<rscale>  0 0.68469476E+02</rscale>
<asrwt>0</asrwt>
<pdfrwt beam="1">  1        2 0.11641923E-01 0.10722234E+03</pdfrwt>
<pdfrwt beam="2">  1       -2 0.19668844E-01 0.10722234E+03</pdfrwt>
<totfact> 0.10530829E+04</totfact>
</mgrwt>
</event>
<event>
 6    1  0.2995420E-002  0.9032214E+02  0.7546771E-02  0.1426983E+00
         -1   -1    0    0    0  501 -0.00000000000E+00  0.00000000000E+00  0.54298814775E+02  0.54298814775E+02  0.00000000000E+00 0. -1.
          1   -1    0    0  501    0  0.00000000000E+00 -0.00000000000E+00 -0.14956270101E+03  0.14956270101E+03  0.00000000000E+00 0.  1.
         23    2    1    2    0    0  0.70773295312E+01 -0.86506587666E+01 -0.13508623334E+03  0.16250040096E+03  0.89627938628E+02 0.  0.
         13    1    3    3    0    0  0.14153758166E+02  0.14239927907E+02 -0.13700119910E+03  0.13846455493E+03  0.00000000000E+00 0.  1.
        -13    1    3    3    0    0 -0.70764286352E+01 -0.22890586673E+02  0.19149657577E+01  0.24035846029E+02  0.00000000000E+00 0. -1.
         22    1    1    2    0    0 -0.70773295312E+01  0.86506587666E+01  0.39822347108E+02  0.41361114825E+02  0.00000000000E+00 0. -1.
<mgrwt>
<rscale>  0 0.53570508E+02</rscale>
<asrwt>0</asrwt>
<pdfrwt beam="1">  1        1 0.23009646E-01 0.90322145E+02</pdfrwt>
<pdfrwt beam="2">  1       -1 0.83536641E-02 0.90322145E+02</pdfrwt>
<totfact> 0.15361143E+04</totfact>
</mgrwt>
</event>
<event>
 6    1  0.2995420E-002  0.1227870E+03  0.7546771E-02  0.1259941E+00
          2   -1    0    0  501    0  0.00000000000E+00  0.00000000000E+00  0.54386986773E+03  0.54386986773E+03  0.00000000000E+00 0. -1.
         -2   -1    0    0    0  501 -0.00000000000E+00 -0.00000000000E+00 -0.19242017536E+02  0.19242017536E+02  0.00000000000E+00 0.  1.
         23    2    1    2    0    0 -0.40428666301E+02 -0.69115717998E+02  0.28077740914E+03  0.30645160954E+03  0.93086926973E+02 0.  0.
         11    1    3    3    0    0 -0.18483278799E+01 -0.78211147956E+01 -0.64054039305E+01  0.10276933011E+02  0.00000000000E+00 0.  1.
        -11    1    3    3    0    0 -0.38580338421E+02 -0.61294603202E+02  0.28718281307E+03  0.29617467653E+03  0.00000000000E+00 0. -1.
         22    1    1    2    0    0  0.40428666301E+02  0.69115717998E+02  0.24385044105E+03  0.25666027572E+03  0.00000000000E+00 0. -1.
<mgrwt>
<rscale>  0 0.11034020E+03</rscale>
<asrwt>0</asrwt>
<pdfrwt beam="1">  1        2 0.83672276E-01 0.12278695E+03</pdfrwt>
<pdfrwt beam="2">  1       -2 0.29603108E-02 0.12278695E+03</pdfrwt>
<totfact> 0.22756775E+04</totfact>
</mgrwt>
</event>
<event>
 6    1  0.2995420E-002  0.9449745E+02  0.7546771E-02  0.1383257E+00
          2   -1    0    0  501    0  0.00000000000E+00  0.00000000000E+00  0.97539738916E+02  0.97539738916E+02  0.00000000000E+00 0.  1.
         -2   -1    0    0    0  501 -0.00000000000E+00 -0.00000000000E+00 -0.39206840420E+02  0.39206840420E+02  0.00000000000E+00 0. -1.
         23    2    1    2    0    0 -0.37204699129E+01 -0.19048278054E+02  0.24305234067E+02  0.97573109491E+02  0.92482909229E+02 0.  0.
         11    1    3    3    0    0 -0.20078476364E+02 -0.79029842503E+01 -0.31601567785E+02  0.38265669466E+02  0.00000000000E+00 0. -1.
        -11    1    3    3    0    0  0.16358006451E+02 -0.11145293804E+02  0.55906801852E+02  0.59307440026E+02  0.00000000000E+00 0.  1.
         22    1    1    2    0    0  0.37204699129E+01  0.19048278054E+02  0.34027664429E+02  0.39173469845E+02  0.00000000000E+00 0. -1.
<mgrwt>
<rscale>  0 0.63615281E+02</rscale>
<asrwt>0</asrwt>
<pdfrwt beam="1">  1        2 0.15006114E-01 0.94497446E+02</pdfrwt>
<pdfrwt beam="2">  1       -2 0.60318216E-02 0.94497446E+02</pdfrwt>
<totfact> 0.49670150E+04</totfact>
</mgrwt>
</event>
<event>
 6    1  0.2995420E-002  0.9554535E+02  0.7546771E-02  0.1365092E+00
         -2   -1    0    0    0  501 -0.00000000000E+00  0.00000000000E+00  0.57724570764E+01  0.57724570764E+01  0.00000000000E+00 0.  1.
          2   -1    0    0  501    0  0.00000000000E+00 -0.00000000000E+00 -0.64788792717E+03  0.64788792717E+03  0.00000000000E+00 0. -1.
         23    2    1    2    0    0  0.24735593590E+02 -0.53954272602E+01 -0.54426131592E+03  0.55258419658E+03  0.92130093182E+02 0.  0.
         13    1    3    3    0    0  0.74577193085E+01 -0.12011981087E+02 -0.84868071771E+01  0.16490335441E+02  0.00000000000E+00 0.  1.
        -13    1    3    3    0    0  0.17277874281E+02  0.66165538264E+01 -0.53577450875E+03  0.53609386114E+03  0.00000000000E+00 0. -1.
         22    1    1    2    0    0 -0.24735593590E+02  0.53954272602E+01 -0.97854154173E+02  0.10107618767E+03  0.00000000000E+00 0.  1.
<mgrwt>
<rscale>  0 0.68550568E+02</rscale>
<asrwt>0</asrwt>
<pdfrwt beam="1">  1        2 0.99675035E-01 0.95545352E+02</pdfrwt>
<pdfrwt beam="2">  1       -2 0.88807059E-03 0.95545352E+02</pdfrwt>
<totfact> 0.10247127E+05</totfact>
</mgrwt>
</event>
<event>
 6    1  0.2995420E-002  0.8893971E+02  0.7546771E-02  0.1424555E+00
          1   -1    0    0  501    0  0.00000000000E+00  0.00000000000E+00  0.46699036251E+03  0.46699036251E+03  0.00000000000E+00 0. -1.
         -1   -1    0    0    0  501 -0.00000000000E+00 -0.00000000000E+00 -0.55444716012E+01  0.55444716012E+01  0.00000000000E+00 0.  1.
         23    2    1    2    0    0 -0.10743771693E+02 -0.56690711757E+01  0.42156429437E+03  0.43084420278E+03  0.88106218762E+02 0.  0.
         13    1    3    3    0    0  0.28442360174E+02  0.24814745138E+02  0.22271307888E+03  0.22588903235E+03  0.00000000000E+00 0. -1.
        -13    1    3    3    0    0 -0.39186131867E+02 -0.30483816313E+02  0.19885121548E+03  0.20495517043E+03  0.00000000000E+00 0.  1.
         22    1    1    2    0    0  0.10743771693E+02  0.56690711757E+01  0.39881596538E+02  0.41690631329E+02  0.00000000000E+00 0. -1.
<mgrwt>
<rscale>  0 0.54068641E+02</rscale>
<asrwt>0</asrwt>
<pdfrwt beam="1">  1        1 0.71844640E-01 0.88939714E+02</pdfrwt>
<pdfrwt beam="2">  1       -1 0.85299600E-03 0.88939714E+02</pdfrwt>
<totfact> 0.10099048E+05</totfact>
</mgrwt>
</event>
<event>
 6    1  0.2995420E-002  0.9636814E+02  0.7546771E-02  0.1417778E+00
          2   -1    0    0  501    0  0.00000000000E+00  0.00000000000E+00  0.58846994000E+03  0.58846994000E+03  0.00000000000E+00 0. -1.
         -2   -1    0    0    0  501 -0.00000000000E+00 -0.00000000000E+00 -0.59927644425E+01  0.59927644425E+01  0.00000000000E+00 0.  1.
         23    2    1    2    0    0  0.29543550626E+01 -0.10176785832E+02  0.57001706888E+03  0.57810576579E+03  0.95783727431E+02 0.  0.
         13    1    3    3    0    0  0.32020529055E+02  0.90776144736E+01  0.77349500424E+02  0.84206072117E+02  0.00000000000E+00 0.  1.
        -13    1    3    3    0    0 -0.29066173992E+02 -0.19254400305E+02  0.49266756846E+03  0.49389969367E+03  0.00000000000E+00 0. -1.
         22    1    1    2    0    0 -0.29543550626E+01  0.10176785832E+02  0.12460106679E+02  0.16356938654E+02  0.00000000000E+00 0.  1.
<mgrwt>
<rscale>  0 0.55493898E+02</rscale>
<asrwt>0</asrwt>
<pdfrwt beam="1">  1        2 0.90533791E-01 0.96368136E+02</pdfrwt>
<pdfrwt beam="2">  1       -2 0.92196423E-03 0.96368136E+02</pdfrwt>
<totfact> 0.10846560E+05</totfact>
</mgrwt>
</event>
<event>
 6    1  0.2995420E-002  0.9950742E+02  0.7546771E-02  0.1335646E+00
          2   -1    0    0  501    0  0.00000000000E+00  0.00000000000E+00  0.74838248214E+02  0.74838248214E+02  0.00000000000E+00 0. -1.
         -2   -1    0    0    0  501 -0.00000000000E+00 -0.00000000000E+00 -0.62559996184E+02  0.62559996184E+02  0.00000000000E+00 0.  1.
         23    2    1    2    0    0  0.36195665339E+02 -0.78302257015E+01  0.13035174902E+02  0.10035757005E+03  0.92359555314E+02 0.  0.
         11    1    3    3    0    0 -0.64431374768E+01  0.18226658270E+02  0.39379051615E+02  0.43868380393E+02  0.00000000000E+00 0.  1.
        -11    1    3    3    0    0  0.42638802816E+02 -0.26056883971E+02 -0.26343876713E+02  0.56489189657E+02  0.00000000000E+00 0. -1.
         22    1    1    2    0    0 -0.36195665339E+02  0.78302257015E+01 -0.75692287159E+00  0.37040674348E+02  0.00000000000E+00 0.  1.
<mgrwt>
<rscale>  0 0.77721046E+02</rscale>
<asrwt>0</asrwt>
<pdfrwt beam="1">  1        2 0.11513577E-01 0.99507417E+02</pdfrwt>
<pdfrwt beam="2">  1       -2 0.96246148E-02 0.99507417E+02</pdfrwt>
<totfact> 0.33468576E+04</totfact>
</mgrwt>
</event>
<event>
 6    1  0.2995420E-002  0.9619793E+02  0.7546771E-02  0.1420745E+00
          2   -1    0    0  501    0  0.00000000000E+00  0.00000000000E+00  0.35086736584E+03  0.35086736584E+03  0.00000000000E+00 0. -1.
         -2   -1    0    0    0  501 -0.00000000000E+00 -0.00000000000E+00 -0.15120358799E+02  0.15120358799E+02  0.00000000000E+00 0.  1.
         23    2    1    2    0    0 -0.97329892966E+01  0.29747426695E+01  0.34115797368E+03  0.35446128830E+03  0.95658045781E+02 0.  0.
         11    1    3    3    0    0  0.16491483903E+02 -0.88228029842E+01  0.31510144615E+03  0.31565603472E+03  0.00000000000E+00 0. -1.
        -11    1    3    3    0    0 -0.26224473200E+02  0.11797545654E+02  0.26056527538E+02  0.38805253580E+02  0.00000000000E+00 0.  1.
         22    1    1    2    0    0  0.97329892966E+01 -0.29747426695E+01 -0.54109666435E+01  0.11526436336E+02  0.00000000000E+00 0. -1.
<mgrwt>
<rscale>  0 0.54863546E+02</rscale>
<asrwt>0</asrwt>
<pdfrwt beam="1">  1        2 0.53979589E-01 0.96197931E+02</pdfrwt>
<pdfrwt beam="2">  1       -2 0.23262093E-02 0.96197931E+02</pdfrwt>
<totfact> 0.50348107E+04</totfact>
</mgrwt>
</event>
<event>
 6    1  0.2995420E-002  0.9062805E+02  0.7546771E-02  0.1399865E+00
         -2   -1    0    0    0  501 -0.00000000000E+00  0.00000000000E+00  0.73597999369E+01  0.73597999369E+01  0.00000000000E+00 0.  1.
          2   -1    0    0  501    0  0.00000000000E+00 -0.00000000000E+00 -0.75568956374E+03  0.75568956374E+03  0.00000000000E+00 0. -1.
         23    2    1    2    0    0 -0.16149595511E+02  0.48362480429E+01 -0.73742181189E+03  0.74296996764E+03  0.89046310569E+02 0.  0.
         11    1    3    3    0    0 -0.31088449820E+02  0.11415860721E+02 -0.71192833858E+03  0.71269823408E+03  0.00000000000E+00 0. -1.
        -11    1    3    3    0    0  0.14938854309E+02 -0.65796126783E+01 -0.25493473319E+02  0.30271733563E+02  0.00000000000E+00 0.  1.
         22    1    1    2    0    0  0.16149595511E+02 -0.48362480429E+01 -0.10907951904E+02  0.20079396033E+02  0.00000000000E+00 0.  1.
<mgrwt>
<rscale>  0 0.59518196E+02</rscale>
<asrwt>0</asrwt>
<pdfrwt beam="1">  1        2 0.11625984E+00 0.90628054E+02</pdfrwt>
<pdfrwt beam="2">  1       -2 0.11322778E-02 0.90628054E+02</pdfrwt>
<totfact> 0.60265730E+04</totfact>
</mgrwt>
</event>
<event>
 6    1  0.2995420E-002  0.9515713E+02  0.7546771E-02  0.1360707E+00
          1   -1    0    0  501    0  0.00000000000E+00  0.00000000000E+00  0.37517039461E+03  0.37517039461E+03  0.00000000000E+00 0. -1.
         -1   -1    0    0    0  501 -0.00000000000E+00 -0.00000000000E+00 -0.10462680319E+02  0.10462680319E+02  0.00000000000E+00 0.  1.
         23    2    1    2    0    0 -0.76418479539E+01  0.26499772560E+02  0.31138465046E+03  0.32559987643E+03  0.91072735782E+02 0.  0.
         13    1    3    3    0    0  0.40997881215E+02  0.75356932955E+01  0.11239632756E+03  0.11987721796E+03  0.00000000000E+00 0. -1.
        -13    1    3    3    0    0 -0.48639729169E+02  0.18964079265E+02  0.19898832290E+03  0.20572265846E+03  0.00000000000E+00 0.  1.
         22    1    1    2    0    0  0.76418479539E+01 -0.26499772560E+02  0.53323063833E+02  0.60033198502E+02  0.00000000000E+00 0. -1.
<mgrwt>
<rscale>  0 0.69819718E+02</rscale>
<asrwt>0</asrwt>
<pdfrwt beam="1">  1        1 0.57718512E-01 0.95157128E+02</pdfrwt>
<pdfrwt beam="2">  1       -1 0.16096434E-02 0.95157128E+02</pdfrwt>
<totfact> 0.54605367E+04</totfact>
</mgrwt>
</event>
<event>
 6    1  0.2995420E-002  0.9288421E+02  0.7546771E-02  0.1428141E+00
         -2   -1    0    0    0  501 -0.00000000000E+00  0.00000000000E+00  0.11539037575E+02  0.11539037575E+02  0.00000000000E+00 0.  1.
          2   -1    0    0  501    0  0.00000000000E+00 -0.00000000000E+00 -0.32099322142E+03  0.32099322142E+03  0.00000000000E+00 0. -1.
         23    2    1    2    0    0  0.99101477706E+01 -0.19371055140E+01 -0.30873985782E+03  0.32240933115E+03  0.92333707793E+02 0.  0.
         11    1    3    3    0    0 -0.18318983280E+02 -0.33211674199E+02 -0.23000337331E+03  0.23310974280E+03  0.00000000000E+00 0. -1.
        -11    1    3    3    0    0  0.28229131051E+02  0.31274568685E+02 -0.78736484510E+02  0.89299588349E+02  0.00000000000E+00 0.  1.
         22    1    1    2    0    0 -0.99101477706E+01  0.19371055140E+01 -0.71432602431E+00  0.10122927851E+02  0.00000000000E+00 0.  1.
<mgrwt>
<rscale>  0 0.53334960E+02</rscale>
<asrwt>0</asrwt>
<pdfrwt beam="1">  1        2 0.49383568E-01 0.92884213E+02</pdfrwt>
<pdfrwt beam="2">  1       -2 0.17752367E-02 0.92884213E+02</pdfrwt>
<totfact> 0.81154364E+04</totfact>
</mgrwt>
</event>
<event>
 6    1  0.2995420E-002  0.1272108E+03  0.7546771E-02  0.1249178E+00
          1   -1    0    0  501    0  0.00000000000E+00  0.00000000000E+00  0.12380725283E+03  0.12380725283E+03  0.00000000000E+00 0. -1.
         -1   -1    0    0    0  501 -0.00000000000E+00 -0.00000000000E+00 -0.19727031937E+03  0.19727031937E+03  0.00000000000E+00 0.  1.
         23    2    1    2    0    0  0.61497552509E+02  0.64525399314E+02  0.75173402082E+02  0.14776203358E+03  0.90758482064E+02 0.  0.
         13    1    3    3    0    0  0.34642177037E+02  0.47025187086E+02  0.93940818785E+02  0.11061792840E+03  0.00000000000E+00 0. -1.
        -13    1    3    3    0    0  0.26855375472E+02  0.17500212228E+02 -0.18767416703E+02  0.37144105179E+02  0.00000000000E+00 0.  1.
         22    1    1    2    0    0 -0.61497552509E+02 -0.64525399314E+02 -0.14863646863E+03  0.17331553862E+03  0.00000000000E+00 0.  1.
<mgrwt>
<rscale>  0 0.11638791E+03</rscale>
<asrwt>0</asrwt>
<pdfrwt beam="1">  1        1 0.19047270E-01 0.12721076E+03</pdfrwt>
<pdfrwt beam="2">  1       -1 0.30349280E-01 0.12721076E+03</pdfrwt>
<totfact> 0.26316702E+03</totfact>
</mgrwt>
</event>
<event>
 6    1  0.2995420E-002  0.9584870E+02  0.7546771E-02  0.1357407E+00
         -2   -1    0    0    0  501 -0.00000000000E+00  0.00000000000E+00  0.18509694727E+02  0.18509694727E+02  0.00000000000E+00 0.  1.
          2   -1    0    0  501    0  0.00000000000E+00 -0.00000000000E+00 -0.64216585888E+03  0.64216585888E+03  0.00000000000E+00 0. -1.
         23    2    1    2    0    0 -0.53207511626E+01  0.28027797458E+02 -0.62481466355E+03  0.63212367199E+03  0.91504672442E+02 0.  0.
         13    1    3    3    0    0  0.34066138174E+02 -0.14438608942E+02 -0.28772236720E+03  0.29009159896E+03  0.00000000000E+00 0. -1.
        -13    1    3    3    0    0 -0.39386889337E+02  0.42466406400E+02 -0.33709229635E+03  0.34203207303E+03  0.00000000000E+00 0.  1.
         22    1    1    2    0    0  0.53207511626E+01 -0.28027797458E+02  0.11584993921E+01  0.28551881622E+02  0.00000000000E+00 0.  1.
<mgrwt>
<rscale>  0 0.70796029E+02</rscale>
<asrwt>0</asrwt>
<pdfrwt beam="1">  1        2 0.98794729E-01 0.95848698E+02</pdfrwt>
<pdfrwt beam="2">  1       -2 0.28476459E-02 0.95848698E+02</pdfrwt>
<totfact> 0.19529903E+04</totfact>
</mgrwt>
</event>
<event>
 6    1  0.2995420E-002  0.9802203E+02  0.7546771E-02  0.1374765E+00
         -4   -1    0    0    0  501 -0.00000000000E+00  0.00000000000E+00  0.28692638009E+03  0.28692638009E+03  0.00000000000E+00 0.  1.
          4   -1    0    0  501    0  0.00000000000E+00 -0.00000000000E+00 -0.12315680493E+02  0.12315680493E+02  0.00000000000E+00 0. -1.
         23    2    1    2    0    0 -0.11891458333E+02 -0.16051706382E+02  0.21297060995E+03  0.23444572804E+03  0.95964861463E+02 0.  0.
         11    1    3    3    0    0  0.30623457087E+02  0.24517795663E+02  0.87979867928E+02  0.96329515668E+02  0.00000000000E+00 0. -1.
        -11    1    3    3    0    0 -0.42514915421E+02 -0.40569502045E+02  0.12499074202E+03  0.13811621238E+03  0.00000000000E+00 0.  1.
         22    1    1    2    0    0  0.11891458333E+02  0.16051706382E+02  0.61640089642E+02  0.64796332536E+02  0.00000000000E+00 0.  1.
<mgrwt>
<rscale>  0 0.65860209E+02</rscale>
<asrwt>0</asrwt>
<pdfrwt beam="1">  1        4 0.18947203E-02 0.98022032E+02</pdfrwt>
<pdfrwt beam="2">  1       -4 0.44142515E-01 0.98022032E+02</pdfrwt>
<totfact> 0.82427659E+03</totfact>
</mgrwt>
</event>
<event>
 6    1  0.2995420E-002  0.1009659E+03  0.7546771E-02  0.1330706E+00
          1   -1    0    0  501    0  0.00000000000E+00  0.00000000000E+00  0.76945064362E+03  0.76945064362E+03  0.00000000000E+00 0. -1.
         -1   -1    0    0    0  501 -0.00000000000E+00 -0.00000000000E+00 -0.53499574476E+02  0.53499574476E+02  0.00000000000E+00 0.  1.
         23    2    1    2    0    0  0.35179892328E+02 -0.16015713370E+02  0.75865858883E+03  0.76534761280E+03  0.93273716090E+02 0.  0.
         13    1    3    3    0    0  0.55778173657E+02 -0.34217187462E+02  0.37187067602E+03  0.37758418963E+03  0.00000000000E+00 0.  1.
        -13    1    3    3    0    0 -0.20598281329E+02  0.18201474091E+02  0.38678791281E+03  0.38776342317E+03  0.00000000000E+00 0. -1.
         22    1    1    2    0    0 -0.35179892328E+02  0.16015713370E+02 -0.42707519688E+02  0.57602605296E+02  0.00000000000E+00 0.  1.
<mgrwt>
<rscale>  0 0.79419935E+02</rscale>
<asrwt>0</asrwt>
<pdfrwt beam="1">  1        1 0.11837701E+00 0.10096591E+03</pdfrwt>
<pdfrwt beam="2">  1       -1 0.82307043E-02 0.10096591E+03</pdfrwt>
<totfact> 0.19778401E+03</totfact>
</mgrwt>
</event>
<event>
 6    1  0.2995420E-002  0.9113151E+02  0.7546771E-02  0.1423374E+00
          2   -1    0    0  501    0  0.00000000000E+00  0.00000000000E+00  0.11288120637E+04  0.11288120637E+04  0.00000000000E+00 0.  1.
         -2   -1    0    0    0  501 -0.00000000000E+00 -0.00000000000E+00 -0.31444409455E+01  0.31444409455E+01  0.00000000000E+00 0. -1.
         23    2    1    2    0    0 -0.43093029286E+01  0.10659892083E+02  0.11007277585E+04  0.11044937987E+04  0.90403260761E+02 0.  0.
         11    1    3    3    0    0 -0.45587904772E+02  0.16622601824E+02  0.51389611724E+03  0.51618193233E+03  0.00000000000E+00 0. -1.
        -11    1    3    3    0    0  0.41278601843E+02 -0.59627097415E+01  0.58683164129E+03  0.58831186636E+03  0.00000000000E+00 0.  1.
         22    1    1    2    0    0  0.43093029286E+01 -0.10659892083E+02  0.24939864244E+02  0.27462705975E+02  0.00000000000E+00 0. -1.
<mgrwt>
<rscale>  0 0.54313372E+02</rscale>
<asrwt>0</asrwt>
<pdfrwt beam="1">  1        2 0.17366307E+00 0.91131515E+02</pdfrwt>
<pdfrwt beam="2">  1       -2 0.48376104E-03 0.91131515E+02</pdfrwt>
<totfact> 0.11836612E+05</totfact>
</mgrwt>
</event>
<event>
 6    1  0.2995420E-002  0.9407346E+02  0.7546771E-02  0.1404447E+00
         -1   -1    0    0    0  501 -0.00000000000E+00  0.00000000000E+00  0.10357921416E+02  0.10357921416E+02  0.00000000000E+00 0.  1.
          1   -1    0    0  501    0  0.00000000000E+00 -0.00000000000E+00 -0.60075073157E+03  0.60075073157E+03  0.00000000000E+00 0. -1.
         23    2    1    2    0    0  0.23427421922E+01 -0.13824085458E+02 -0.58960783910E+03  0.59706550664E+03  0.93022693499E+02 0.  0.
         13    1    3    3    0    0  0.10271391405E+02 -0.19445323324E+02 -0.58642684272E+03  0.58683904432E+03  0.00000000000E+00 0. -1.
        -13    1    3    3    0    0 -0.79286492129E+01  0.56212378654E+01 -0.31809963834E+01  0.10226462315E+02  0.00000000000E+00 0.  1.
         22    1    1    2    0    0 -0.23427421922E+01  0.13824085458E+02 -0.78497104928E+00  0.14043146346E+02  0.00000000000E+00 0.  1.
<mgrwt>
<rscale>  0 0.58451620E+02</rscale>
<asrwt>0</asrwt>
<pdfrwt beam="1">  1        1 0.92423188E-01 0.94073457E+02</pdfrwt>
<pdfrwt beam="2">  1       -1 0.15935264E-02 0.94073457E+02</pdfrwt>
<totfact> 0.30285685E+04</totfact>
</mgrwt>
</event>
<event>
 6    1  0.2995420E-002  0.8233135E+02  0.7546771E-02  0.1394166E+00
          2   -1    0    0  501    0  0.00000000000E+00  0.00000000000E+00  0.77492848193E+01  0.77492848193E+01  0.00000000000E+00 0. -1.
         -2   -1    0    0    0  501 -0.00000000000E+00 -0.00000000000E+00 -0.37082598624E+03  0.37082598624E+03  0.00000000000E+00 0.  1.
         23    2    1    2    0    0 -0.61608683046E+01  0.23835698473E+02 -0.26787050557E+03  0.28023750340E+03  0.78564328657E+02 0.  0.
         13    1    3    3    0    0  0.85891967816E+01 -0.50216467282E+01  0.45701582496E+00  0.99599247326E+01  0.00000000000E+00 0. -1.
        -13    1    3    3    0    0 -0.14750065086E+02  0.28857345201E+02 -0.26832752139E+03  0.27027757866E+03  0.00000000000E+00 0.  1.
         22    1    1    2    0    0  0.61608683046E+01 -0.23835698473E+02 -0.95206195852E+02  0.98337767661E+02  0.00000000000E+00 0. -1.
<mgrwt>
<rscale>  0 0.60882386E+02</rscale>
<asrwt>0</asrwt>
<pdfrwt beam="1">  1        2 0.11921979E-02 0.82331346E+02</pdfrwt>
<pdfrwt beam="2">  1       -2 0.57050140E-01 0.82331346E+02</pdfrwt>
<totfact> 0.28365139E+04</totfact>
</mgrwt>
</event>
<event>
 6    1  0.2995420E-002  0.9544518E+02  0.7546771E-02  0.1344901E+00
         -2   -1    0    0    0  501 -0.00000000000E+00  0.00000000000E+00  0.60199730234E+01  0.60199730234E+01  0.00000000000E+00 0.  1.
          2   -1    0    0  501    0  0.00000000000E+00 -0.00000000000E+00 -0.88378443487E+03  0.88378443487E+03  0.00000000000E+00 0. -1.
         23    2    1    2    0    0 -0.26759374338E+02 -0.23707727849E+02 -0.77790066708E+03  0.78373415768E+03  0.88496675637E+02 0.  0.
         13    1    3    3    0    0 -0.18887058861E+02  0.21495223317E+02 -0.57494376276E+03  0.57565536214E+03  0.00000000000E+00 0. -1.
        -13    1    3    3    0    0 -0.78723154767E+01 -0.45202951166E+02 -0.20295690432E+03  0.20807879555E+03  0.00000000000E+00 0.  1.
         22    1    1    2    0    0  0.26759374338E+02  0.23707727849E+02 -0.99863794760E+02  0.10607025021E+03  0.00000000000E+00 0.  1.
<mgrwt>
<rscale>  0 0.74668421E+02</rscale>
<asrwt>0</asrwt>
<pdfrwt beam="1">  1        2 0.13596682E+00 0.95445178E+02</pdfrwt>
<pdfrwt beam="2">  1       -2 0.92614984E-03 0.95445178E+02</pdfrwt>
<totfact> 0.66456122E+04</totfact>
</mgrwt>
</event>
<event>
 6    1  0.2995420E-002  0.9461431E+02  0.7546771E-02  0.1404959E+00
         -2   -1    0    0    0  501 -0.00000000000E+00  0.00000000000E+00  0.39295544763E+01  0.39295544763E+01  0.00000000000E+00 0.  1.
          2   -1    0    0  501    0  0.00000000000E+00 -0.00000000000E+00 -0.15408929868E+04  0.15408929868E+04  0.00000000000E+00 0. -1.
         23    2    1    2    0    0 -0.10511508396E+02 -0.87419651080E+01 -0.15204197264E+04  0.15233607620E+04  0.93621328052E+02 0.  0.
         13    1    3    3    0    0  0.24844414710E+01 -0.12454384976E+02 -0.26561802350E+02  0.29441696599E+02  0.00000000000E+00 0.  1.
        -13    1    3    3    0    0 -0.12995949867E+02  0.37124198678E+01 -0.14938579241E+04  0.14939190654E+04  0.00000000000E+00 0. -1.
         22    1    1    2    0    0  0.10511508396E+02  0.87419651080E+01 -0.16543705868E+02  0.21461779203E+02  0.00000000000E+00 0.  1.
<mgrwt>
<rscale>  0 0.58334135E+02</rscale>
<asrwt>0</asrwt>
<pdfrwt beam="1">  1        2 0.23706075E+00 0.94614306E+02</pdfrwt>
<pdfrwt beam="2">  1       -2 0.60454610E-03 0.94614306E+02</pdfrwt>
<totfact> 0.52684346E+04</totfact>
</mgrwt>
</event>
<event>
 6    1  0.2995420E-002  0.9269202E+02  0.7546771E-02  0.1417533E+00
          2   -1    0    0  501    0  0.00000000000E+00  0.00000000000E+00  0.73009048807E+03  0.73009048807E+03  0.00000000000E+00 0. -1.
         -2   -1    0    0    0  501 -0.00000000000E+00 -0.00000000000E+00 -0.39637617482E+01  0.39637617482E+01  0.00000000000E+00 0.  1.
         23    2    1    2    0    0  0.77024183924E+01 -0.91408743091E+01  0.68442640833E+03  0.69067453851E+03  0.91918044473E+02 0.  0.
         11    1    3    3    0    0  0.46979115009E+02 -0.31703620349E+01  0.48829511017E+03  0.49056009118E+03  0.00000000000E+00 0. -1.
        -11    1    3    3    0    0 -0.39276696616E+02 -0.59705122741E+01  0.19613129816E+03  0.20011444734E+03  0.00000000000E+00 0.  1.
         22    1    1    2    0    0 -0.77024183924E+01  0.91408743091E+01  0.41700317993E+02  0.43379711306E+02  0.00000000000E+00 0. -1.
<mgrwt>
<rscale>  0 0.55546187E+02</rscale>
<asrwt>0</asrwt>
<pdfrwt beam="1">  1        2 0.11232151E+00 0.92692015E+02</pdfrwt>
<pdfrwt beam="2">  1       -2 0.60981008E-03 0.92692015E+02</pdfrwt>
<totfact> 0.15087075E+05</totfact>
</mgrwt>
</event>
<event>
 6    1  0.2995420E-002  0.9360510E+02  0.7546771E-02  0.1401143E+00
          2   -1    0    0  501    0  0.00000000000E+00  0.00000000000E+00  0.64009579726E+03  0.64009579726E+03  0.00000000000E+00 0. -1.
         -2   -1    0    0    0  501 -0.00000000000E+00 -0.00000000000E+00 -0.73613946824E+01  0.73613946824E+01  0.00000000000E+00 0.  1.
         23    2    1    2    0    0 -0.11160588133E+02 -0.10012891783E+02  0.62203191378E+03  0.62903546575E+03  0.92396421393E+02 0.  0.
         11    1    3    3    0    0  0.21130171992E+02 -0.36706659970E+02  0.44944438074E+03  0.45143561494E+03  0.00000000000E+00 0. -1.
        -11    1    3    3    0    0 -0.32290760125E+02  0.26693768187E+02  0.17258753303E+03  0.17759985081E+03  0.00000000000E+00 0.  1.
         22    1    1    2    0    0  0.11160588133E+02  0.10012891783E+02  0.10702488800E+02  0.18421726191E+02  0.00000000000E+00 0.  1.
<mgrwt>
<rscale>  0 0.59217930E+02</rscale>
<asrwt>0</asrwt>
<pdfrwt beam="1">  1        2 0.98476233E-01 0.93605104E+02</pdfrwt>
<pdfrwt beam="2">  1       -2 0.11325228E-02 0.93605104E+02</pdfrwt>
<totfact> 0.73410865E+04</totfact>
</mgrwt>
</event>
<event>
 6    1  0.2995420E-002  0.8498324E+02  0.7546771E-02  0.1429156E+00
         -3   -1    0    0    0  501 -0.00000000000E+00  0.00000000000E+00  0.32461641119E+01  0.32461641119E+01  0.00000000000E+00 0.  1.
          3   -1    0    0  501    0  0.00000000000E+00 -0.00000000000E+00 -0.75047382744E+03  0.75047382744E+03  0.00000000000E+00 0. -1.
         23    2    1    2    0    0  0.90149388442E+01 -0.93418560750E+01 -0.67576069634E+03  0.68108345276E+03  0.83985781577E+02 0.  0.
         13    1    3    3    0    0  0.39080252149E+01 -0.40691952472E+02 -0.19314591976E+03  0.19742455262E+03  0.00000000000E+00 0. -1.
        -13    1    3    3    0    0  0.51069136293E+01  0.31350096397E+02 -0.48261477658E+03  0.48365890014E+03  0.00000000000E+00 0.  1.
         22    1    1    2    0    0 -0.90149388442E+01  0.93418560750E+01 -0.71466966988E+02  0.72636538792E+02  0.00000000000E+00 0. -1.
<mgrwt>
<rscale>  0 0.53129734E+02</rscale>
<asrwt>0</asrwt>
<pdfrwt beam="1">  1        3 0.11545755E+00 0.84983239E+02</pdfrwt>
<pdfrwt beam="2">  1       -3 0.49940969E-03 0.84983239E+02</pdfrwt>
<totfact> 0.10207398E+04</totfact>
</mgrwt>
</event>
<event>
 6    1  0.2995420E-002  0.9212260E+02  0.7546771E-02  0.1422625E+00
          4   -1    0    0  501    0  0.00000000000E+00  0.00000000000E+00  0.36286798449E+02  0.36286798449E+02  0.00000000000E+00 0. -1.
         -4   -1    0    0    0  501 -0.00000000000E+00 -0.00000000000E+00 -0.78578917903E+02  0.78578917903E+02  0.00000000000E+00 0.  1.
         23    2    1    2    0    0 -0.99525588011E+01  0.52647639872E+01 -0.27234423152E+02  0.96063977485E+02  0.91431957210E+02 0.  0.
         13    1    3    3    0    0  0.14040095810E+02  0.22674511147E+01  0.30400463839E+02  0.33562685032E+02  0.00000000000E+00 0. -1.
        -13    1    3    3    0    0 -0.23992654611E+02  0.29973128725E+01 -0.57634886991E+02  0.62501292453E+02  0.00000000000E+00 0.  1.
         22    1    1    2    0    0  0.99525588011E+01 -0.52647639872E+01 -0.15057696302E+02  0.18801738868E+02  0.00000000000E+00 0. -1.
<mgrwt>
<rscale>  0 0.54469352E+02</rscale>
<asrwt>0</asrwt>
<pdfrwt beam="1">  1        4 0.55825845E-02 0.92122603E+02</pdfrwt>
<pdfrwt beam="2">  1       -4 0.12089064E-01 0.92122603E+02</pdfrwt>
<totfact> 0.15867976E+04</totfact>
</mgrwt>
</event>
<event>
 6    1  0.2995420E-002  0.8906147E+02  0.7546771E-02  0.1431876E+00
         -2   -1    0    0    0  501 -0.00000000000E+00  0.00000000000E+00  0.59639453420E+01  0.59639453420E+01  0.00000000000E+00 0.  1.
          2   -1    0    0  501    0  0.00000000000E+00 -0.00000000000E+00 -0.46746627655E+03  0.46746627655E+03  0.00000000000E+00 0. -1.
         23    2    1    2    0    0  0.92395390152E+01  0.56382703967E+01 -0.44405406379E+03  0.45289729199E+03  0.88401280266E+02 0.  0.
         13    1    3    3    0    0  0.16569584401E+02  0.13708122276E+01 -0.44410424012E+03  0.44441535341E+03  0.00000000000E+00 0. -1.
        -13    1    3    3    0    0 -0.73300453855E+01  0.42674581691E+01  0.50176324617E-01  0.84819385899E+01  0.00000000000E+00 0.  1.
         22    1    1    2    0    0 -0.92395390152E+01 -0.56382703967E+01 -0.17448267413E+02  0.20532929893E+02  0.00000000000E+00 0.  1.
<mgrwt>
<rscale>  0 0.52585309E+02</rscale>
<asrwt>0</asrwt>
<pdfrwt beam="1">  1        2 0.71917868E-01 0.89061470E+02</pdfrwt>
<pdfrwt beam="2">  1       -2 0.91753032E-03 0.89061470E+02</pdfrwt>
<totfact> 0.13875747E+05</totfact>
</mgrwt>
</event>
<event>
 6    1  0.2995420E-002  0.9353768E+02  0.7546771E-02  0.1371948E+00
         -2   -1    0    0    0  501 -0.00000000000E+00  0.00000000000E+00  0.11205598936E+03  0.11205598936E+03  0.00000000000E+00 0.  1.
          2   -1    0    0  501    0  0.00000000000E+00 -0.00000000000E+00 -0.41709302706E+02  0.41709302706E+02  0.00000000000E+00 0. -1.
         23    2    1    2    0    0  0.24018019637E+02  0.17463353394E+01  0.16775053548E+02  0.95029997498E+02  0.90384639450E+02 0.  0.
         13    1    3    3    0    0  0.52724582541E+02 -0.16495970397E+02 -0.36337918031E+01  0.55364276265E+02  0.00000000000E+00 0. -1.
        -13    1    3    3    0    0 -0.28706562904E+02  0.18242305736E+02  0.20408845351E+02  0.39665721233E+02  0.00000000000E+00 0.  1.
         22    1    1    2    0    0 -0.24018019637E+02 -0.17463353394E+01  0.53571633110E+02  0.58735294572E+02  0.00000000000E+00 0. -1.
<mgrwt>
<rscale>  0 0.66628570E+02</rscale>
<asrwt>0</asrwt>
<pdfrwt beam="1">  1        2 0.64168159E-02 0.93537682E+02</pdfrwt>
<pdfrwt beam="2">  1       -2 0.17239383E-01 0.93537682E+02</pdfrwt>
<totfact> 0.26932870E+04</totfact>
</mgrwt>
</event>
<event>
 6    1  0.2995420E-002  0.9448128E+02  0.7546771E-02  0.1383572E+00
         -2   -1    0    0    0  501 -0.00000000000E+00  0.00000000000E+00  0.22999761332E+02  0.22999761332E+02  0.00000000000E+00 0.  1.
          2   -1    0    0  501    0  0.00000000000E+00 -0.00000000000E+00 -0.15025905250E+03  0.15025905250E+03  0.00000000000E+00 0. -1.
         23    2    1    2    0    0 -0.15895806036E+02  0.10979904336E+02 -0.11974272586E+03  0.15252879447E+03  0.92485013907E+02 0.  0.
         13    1    3    3    0    0 -0.21788331370E+02  0.50236506867E+02 -0.67616286826E+02  0.87008047043E+02  0.00000000000E+00 0.  1.
        -13    1    3    3    0    0  0.58925253340E+01 -0.39256602531E+02 -0.52126439036E+02  0.65520747429E+02  0.00000000000E+00 0. -1.
         22    1    1    2    0    0  0.15895806036E+02 -0.10979904336E+02 -0.75165653078E+01  0.20730019363E+02  0.00000000000E+00 0. -1.
<mgrwt>
<rscale>  0 0.63534135E+02</rscale>
<asrwt>0</asrwt>
<pdfrwt beam="1">  1        2 0.23116777E-01 0.94481283E+02</pdfrwt>
<pdfrwt beam="2">  1       -2 0.35384249E-02 0.94481283E+02</pdfrwt>
<totfact> 0.67248657E+04</totfact>
</mgrwt>
</event>
<event>
 6    1  0.2995420E-002  0.9368615E+02  0.7546771E-02  0.1380611E+00
         -2   -1    0    0    0  501 -0.00000000000E+00  0.00000000000E+00  0.30298737976E+01  0.30298737976E+01  0.00000000000E+00 0.  1.
          2   -1    0    0  501    0  0.00000000000E+00 -0.00000000000E+00 -0.11922158327E+04  0.11922158327E+04  0.00000000000E+00 0. -1.
         23    2    1    2    0    0 -0.11706200175E+02 -0.17184446932E+02 -0.10828970668E+04  0.10869421104E+04  0.91349623885E+02 0.  0.
         11    1    3    3    0    0  0.15124834372E+02 -0.59273198499E+01 -0.97658608591E+03  0.97672118690E+03  0.00000000000E+00 0. -1.
        -11    1    3    3    0    0 -0.26831034546E+02 -0.11257127082E+02 -0.10631098084E+03  0.11022092348E+03  0.00000000000E+00 0.  1.
         22    1    1    2    0    0  0.11706200175E+02  0.17184446932E+02 -0.10628889215E+03  0.10830359613E+03  0.00000000000E+00 0.  1.
<mgrwt>
<rscale>  0 0.64303521E+02</rscale>
<asrwt>0</asrwt>
<pdfrwt beam="1">  1        2 0.18341786E+00 0.93686147E+02</pdfrwt>
<pdfrwt beam="2">  1       -2 0.46613434E-03 0.93686147E+02</pdfrwt>
<totfact> 0.11546881E+05</totfact>
</mgrwt>
</event>
<event>
 6    1  0.2995420E-002  0.9493956E+02  0.7546771E-02  0.1379488E+00
          1   -1    0    0  501    0  0.00000000000E+00  0.00000000000E+00  0.51695941312E+03  0.51695941312E+03  0.00000000000E+00 0. -1.
         -1   -1    0    0    0  501 -0.00000000000E+00 -0.00000000000E+00 -0.11260446023E+02  0.11260446023E+02  0.00000000000E+00 0.  1.
         23    2    1    2    0    0  0.53184052061E+01 -0.19642020069E+02  0.49717301911E+03  0.50615662784E+03  0.92733093268E+02 0.  0.
         11    1    3    3    0    0  0.21272569157E+02 -0.24338499334E+02  0.55921385198E+02  0.64591687320E+02  0.00000000000E+00 0.  1.
        -11    1    3    3    0    0 -0.15954163950E+02  0.46964792647E+01  0.44125163391E+03  0.44156494052E+03  0.00000000000E+00 0. -1.
         22    1    1    2    0    0 -0.53184052061E+01  0.19642020069E+02  0.85259479805E+01  0.22063231298E+02  0.00000000000E+00 0.  1.
<mgrwt>
<rscale>  0 0.64598561E+02</rscale>
<asrwt>0</asrwt>
<pdfrwt beam="1">  1        1 0.79532199E-01 0.94939565E+02</pdfrwt>
<pdfrwt beam="2">  1       -1 0.17323767E-02 0.94939565E+02</pdfrwt>
<totfact> 0.32808565E+04</totfact>
</mgrwt>
</event>
<event>
 6    1  0.2995420E-002  0.1019548E+03  0.7546771E-02  0.1318802E+00
         -2   -1    0    0    0  501 -0.00000000000E+00  0.00000000000E+00  0.12080870945E+02  0.12080870945E+02  0.00000000000E+00 0. -1.
          2   -1    0    0  501    0  0.00000000000E+00 -0.00000000000E+00 -0.81878045490E+03  0.81878045490E+03  0.00000000000E+00 0.  1.
         23    2    1    2    0    0  0.31166920239E+02  0.34327272841E+02 -0.75318791637E+03  0.76005710884E+03  0.90802162720E+02 0.  0.
         13    1    3    3    0    0  0.38123995645E+02  0.14128280552E+02 -0.71612254689E+03  0.71727578345E+03  0.00000000000E+00 0.  1.
        -13    1    3    3    0    0 -0.69570754058E+01  0.20198992289E+02 -0.37065369480E+02  0.42781325393E+02  0.00000000000E+00 0. -1.
         22    1    1    2    0    0 -0.31166920239E+02 -0.34327272841E+02 -0.53511667586E+02  0.70804217006E+02  0.00000000000E+00 0. -1.
<mgrwt>
<rscale>  0 0.83724740E+02</rscale>
<asrwt>0</asrwt>
<pdfrwt beam="1">  1        2 0.12596622E+00 0.10195475E+03</pdfrwt>
<pdfrwt beam="2">  1       -2 0.18585956E-02 0.10195475E+03</pdfrwt>
<totfact> 0.27282740E+04</totfact>
</mgrwt>
</event>
<event>
 6    1  0.2995420E-002  0.9417838E+02  0.7546771E-02  0.1408201E+00
          1   -1    0    0  501    0  0.00000000000E+00  0.00000000000E+00  0.19012191722E+02  0.19012191722E+02  0.00000000000E+00 0. -1.
         -1   -1    0    0    0  501 -0.00000000000E+00 -0.00000000000E+00 -0.15220039681E+03  0.15220039681E+03  0.00000000000E+00 0.  1.
         23    2    1    2    0    0  0.10806662858E+02  0.75364720152E+01 -0.12032472537E+03  0.15279923786E+03  0.93252266364E+02 0.  0.
         11    1    3    3    0    0 -0.12774976147E+02 -0.25773047233E+02 -0.34110217945E+01  0.28966964786E+02  0.00000000000E+00 0. -1.
        -11    1    3    3    0    0  0.23581639004E+02  0.33309519248E+02 -0.11691370357E+03  0.12383227307E+03  0.00000000000E+00 0.  1.
         22    1    1    2    0    0 -0.10806662858E+02 -0.75364720152E+01 -0.12863479717E+02  0.18413350672E+02  0.00000000000E+00 0.  1.
<mgrwt>
<rscale>  0 0.57597233E+02</rscale>
<asrwt>0</asrwt>
<pdfrwt beam="1">  1        1 0.29249527E-02 0.94178382E+02</pdfrwt>
<pdfrwt beam="2">  1       -1 0.23415445E-01 0.94178382E+02</pdfrwt>
<totfact> 0.47518391E+04</totfact>
</mgrwt>
</event>
<event>
 6    1  0.2995420E-002  0.9490632E+02  0.7546771E-02  0.1412755E+00
         -1   -1    0    0    0  501 -0.00000000000E+00  0.00000000000E+00  0.36060124276E+01  0.36060124276E+01  0.00000000000E+00 0.  1.
          1   -1    0    0  501    0  0.00000000000E+00 -0.00000000000E+00 -0.79719123783E+03  0.79719123783E+03  0.00000000000E+00 0. -1.
         23    2    1    2    0    0 -0.11707542361E+02 -0.25945437742E+01 -0.72267740964E+03  0.72888260265E+03  0.94145694665E+02 0.  0.
         13    1    3    3    0    0  0.21548333637E+02 -0.33672701564E+02 -0.50029984029E+03  0.50189452249E+03  0.00000000000E+00 0.  1.
        -13    1    3    3    0    0 -0.33255875998E+02  0.31078157790E+02 -0.22237756936E+03  0.22698808016E+03  0.00000000000E+00 0. -1.
         22    1    1    2    0    0  0.11707542361E+02  0.25945437742E+01 -0.70907815761E+02  0.71914647615E+02  0.00000000000E+00 0. -1.
<mgrwt>
<rscale>  0 0.56583596E+02</rscale>
<asrwt>0</asrwt>
<pdfrwt beam="1">  1        1 0.12264490E+00 0.94906322E+02</pdfrwt>
<pdfrwt beam="2">  1       -1 0.55477070E-03 0.94906322E+02</pdfrwt>
<totfact> 0.90289852E+04</totfact>
</mgrwt>
</event>
<event>
 6    1  0.2995420E-002  0.9268425E+02  0.7546771E-02  0.1408878E+00
         -2   -1    0    0    0  501 -0.00000000000E+00  0.00000000000E+00  0.20927455754E+02  0.20927455754E+02  0.00000000000E+00 0.  1.
          2   -1    0    0  501    0  0.00000000000E+00 -0.00000000000E+00 -0.14902830547E+03  0.14902830547E+03  0.00000000000E+00 0. -1.
         23    2    1    2    0    0  0.89756161994E+01 -0.10319688674E+02 -0.12553063063E+03  0.15603945113E+03  0.91669588316E+02 0.  0.
         13    1    3    3    0    0  0.19463256835E+02 -0.26579717736E+02 -0.13167878977E+03  0.13573725884E+03  0.00000000000E+00 0. -1.
        -13    1    3    3    0    0 -0.10487640636E+02  0.16260029062E+02  0.61481591368E+01  0.20302192294E+02  0.00000000000E+00 0.  1.
         22    1    1    2    0    0 -0.89756161994E+01  0.10319688674E+02 -0.25702190855E+01  0.13916310094E+02  0.00000000000E+00 0. -1.
<mgrwt>
<rscale>  0 0.57444891E+02</rscale>
<asrwt>0</asrwt>
<pdfrwt beam="1">  1        2 0.22927431E-01 0.92684255E+02</pdfrwt>
<pdfrwt beam="2">  1       -2 0.32196087E-02 0.92684255E+02</pdfrwt>
<totfact> 0.77688342E+04</totfact>
</mgrwt>
</event>
<event>
 6    1  0.2995420E-002  0.9391331E+02  0.7546771E-02  0.1389848E+00
          3   -1    0    0  501    0  0.00000000000E+00  0.00000000000E+00  0.40617542441E+02  0.40617542441E+02  0.00000000000E+00 0. -1.
         -3   -1    0    0    0  501 -0.00000000000E+00 -0.00000000000E+00 -0.82529110807E+02  0.82529110807E+02  0.00000000000E+00 0.  1.
         23    2    1    2    0    0  0.88233075464E+01 -0.15431399890E+02 -0.22001612142E+02  0.96456107816E+02  0.92215676214E+02 0.  0.
         13    1    3    3    0    0  0.44382311558E+02 -0.31749574291E+02 -0.95561538609E+01  0.55399865735E+02  0.00000000000E+00 0. -1.
        -13    1    3    3    0    0 -0.35559004011E+02  0.16318174400E+02 -0.12445458281E+02  0.41056242082E+02  0.00000000000E+00 0.  1.
         22    1    1    2    0    0 -0.88233075464E+01  0.15431399890E+02 -0.19909956223E+02  0.26690545432E+02  0.00000000000E+00 0. -1.
<mgrwt>
<rscale>  0 0.61944480E+02</rscale>
<asrwt>0</asrwt>
<pdfrwt beam="1">  1        3 0.62488527E-02 0.93913310E+02</pdfrwt>
<pdfrwt beam="2">  1       -3 0.12696786E-01 0.93913310E+02</pdfrwt>
<totfact> 0.16249215E+04</totfact>
</mgrwt>
</event>
<event>
 6    1  0.2995420E-002  0.9087489E+02  0.7546771E-02  0.1419761E+00
          2   -1    0    0  501    0  0.00000000000E+00  0.00000000000E+00  0.49389476889E+03  0.49389476889E+03  0.00000000000E+00 0. -1.
         -2   -1    0    0    0  501 -0.00000000000E+00 -0.00000000000E+00 -0.65277418514E+01  0.65277418514E+01  0.00000000000E+00 0.  1.
         23    2    1    2    0    0 -0.46733362965E+01 -0.11330948729E+02  0.47247571850E+03  0.48113568775E+03  0.90044516663E+02 0.  0.
         13    1    3    3    0    0 -0.31949872010E+02 -0.15599353882E+02  0.78300439735E+02  0.85994726732E+02  0.00000000000E+00 0.  1.
        -13    1    3    3    0    0  0.27276535714E+02  0.42684051525E+01  0.39417527876E+03  0.39514096101E+03  0.00000000000E+00 0. -1.
         22    1    1    2    0    0  0.46733362965E+01  0.11330948729E+02  0.14891308544E+02  0.19286822999E+02  0.00000000000E+00 0.  1.
<mgrwt>
<rscale>  0 0.55071597E+02</rscale>
<asrwt>0</asrwt>
<pdfrwt beam="1">  1        2 0.75983781E-01 0.90874889E+02</pdfrwt>
<pdfrwt beam="2">  1       -2 0.10042684E-02 0.90874889E+02</pdfrwt>
<totfact> 0.11547063E+05</totfact>
</mgrwt>
</event>
<event>
 6    1  0.2995420E-002  0.9458987E+02  0.7546771E-02  0.1391887E+00
         -2   -1    0    0    0  501 -0.00000000000E+00  0.00000000000E+00  0.46952929308E+01  0.46952929308E+01  0.00000000000E+00 0.  1.
          2   -1    0    0  501    0  0.00000000000E+00 -0.00000000000E+00 -0.86439708950E+03  0.86439708950E+03  0.00000000000E+00 0. -1.
         23    2    1    2    0    0  0.12947316539E+02 -0.10763259882E+02 -0.82620632225E+03  0.83160334978E+03  0.93079340779E+02 0.  0.
         11    1    3    3    0    0  0.14023648391E+02 -0.11230121387E+02 -0.82867517706E+03  0.82886990983E+03  0.00000000000E+00 0. -1.
        -11    1    3    3    0    0 -0.10763318526E+01  0.46686150505E+00  0.24688548114E+01  0.27334399575E+01  0.00000000000E+00 0.  1.
         22    1    1    2    0    0 -0.12947316539E+02  0.10763259882E+02 -0.33495474323E+02  0.37489032649E+02  0.00000000000E+00 0.  1.
<mgrwt>
<rscale>  0 0.61439679E+02</rscale>
<asrwt>0</asrwt>
<pdfrwt beam="1">  1        2 0.13298413E+00 0.94589875E+02</pdfrwt>
<pdfrwt beam="2">  1       -2 0.72235295E-03 0.94589875E+02</pdfrwt>
<totfact> 0.96992304E+04</totfact>
</mgrwt>
</event>
<event>
 6    1  0.2995420E-002  0.9144251E+02  0.7546771E-02  0.1402546E+00
          2   -1    0    0  501    0  0.00000000000E+00  0.00000000000E+00  0.52132439268E+02  0.52132439268E+02  0.00000000000E+00 0. -1.
         -2   -1    0    0    0  501 -0.00000000000E+00 -0.00000000000E+00 -0.59497484512E+02  0.59497484512E+02  0.00000000000E+00 0.  1.
         23    2    1    2    0    0  0.50977556451E+01 -0.14881826560E+02  0.50624237794E+01  0.91582533408E+02  0.90079278508E+02 0.  0.
         11    1    3    3    0    0  0.44124253717E+02 -0.22894494747E+02  0.12010644780E+02  0.51140622248E+02  0.00000000000E+00 0.  1.
        -11    1    3    3    0    0 -0.39026498072E+02  0.80126681878E+01 -0.69482210009E+01  0.40441911161E+02  0.00000000000E+00 0. -1.
         22    1    1    2    0    0 -0.50977556451E+01  0.14881826560E+02 -0.12427469024E+02  0.20047390372E+02  0.00000000000E+00 0.  1.
<mgrwt>
<rscale>  0 0.58890917E+02</rscale>
<asrwt>0</asrwt>
<pdfrwt beam="1">  1        2 0.80203752E-02 0.91442508E+02</pdfrwt>
<pdfrwt beam="2">  1       -2 0.91534592E-02 0.91442508E+02</pdfrwt>
<totfact> 0.55577230E+04</totfact>
</mgrwt>
</event>
<event>
 6    1  0.2995420E-002  0.9434332E+02  0.7546771E-02  0.1368899E+00
         -1   -1    0    0    0  501 -0.00000000000E+00  0.00000000000E+00  0.59311871261E+02  0.59311871261E+02  0.00000000000E+00 0.  1.
          1   -1    0    0  501    0  0.00000000000E+00 -0.00000000000E+00 -0.69728531125E+02  0.69728531125E+02  0.00000000000E+00 0. -1.
         23    2    1    2    0    0  0.24537176346E+02 -0.26909185028E+01 -0.28371246689E+02  0.98516948233E+02  0.91056836015E+02 0.  0.
         11    1    3    3    0    0  0.56605676184E+02  0.15703752292E+01 -0.18048368945E+01  0.56656209641E+02  0.00000000000E+00 0.  1.
        -11    1    3    3    0    0 -0.32068499838E+02 -0.42612937321E+01 -0.26566409794E+02  0.41860738592E+02  0.00000000000E+00 0. -1.
         22    1    1    2    0    0 -0.24537176346E+02  0.26909185028E+01  0.17954586824E+02  0.30523454153E+02  0.00000000000E+00 0. -1.
<mgrwt>
<rscale>  0 0.67474318E+02</rscale>
<asrwt>0</asrwt>
<pdfrwt beam="1">  1        1 0.10727466E-01 0.94343317E+02</pdfrwt>
<pdfrwt beam="2">  1       -1 0.91249033E-02 0.94343317E+02</pdfrwt>
<totfact> 0.35794561E+04</totfact>
</mgrwt>
</event>
<event>
 6    1  0.2995420E-002  0.9225527E+02  0.7546771E-02  0.1426572E+00
          3   -1    0    0  501    0  0.00000000000E+00  0.00000000000E+00  0.32129208849E+03  0.32129208849E+03  0.00000000000E+00 0. -1.
         -3   -1    0    0    0  501 -0.00000000000E+00 -0.00000000000E+00 -0.93211820469E+01  0.93211820469E+01  0.00000000000E+00 0.  1.
         23    2    1    2    0    0  0.34348489386E+01 -0.99801845638E+01  0.30308951877E+03  0.31681902108E+03  0.91649514218E+02 0.  0.
         11    1    3    3    0    0  0.47404156374E+02 -0.81708174698E+01  0.16715024464E+03  0.17393424213E+03  0.00000000000E+00 0. -1.
        -11    1    3    3    0    0 -0.43969307435E+02 -0.18093670940E+01  0.13593927412E+03  0.14288477895E+03  0.00000000000E+00 0.  1.
         22    1    1    2    0    0 -0.34348489386E+01  0.99801845638E+01  0.88813876711E+01  0.13794249458E+02  0.00000000000E+00 0.  1.
<mgrwt>
<rscale>  0 0.53654378E+02</rscale>
<asrwt>0</asrwt>
<pdfrwt beam="1">  1        3 0.49429544E-01 0.92255275E+02</pdfrwt>
<pdfrwt beam="2">  1       -3 0.14340283E-02 0.92255275E+02</pdfrwt>
<totfact> 0.13394740E+04</totfact>
</mgrwt>
</event>
<event>
 6    1  0.2995420E-002  0.8984412E+02  0.7546771E-02  0.1419060E+00
         -2   -1    0    0    0  501 -0.00000000000E+00  0.00000000000E+00  0.12741725597E+02  0.12741725597E+02  0.00000000000E+00 0.  1.
          2   -1    0    0  501    0  0.00000000000E+00 -0.00000000000E+00 -0.20902584126E+03  0.20902584126E+03  0.00000000000E+00 0. -1.
         23    2    1    2    0    0  0.86083149885E+01  0.95015867403E+01 -0.17859868509E+03  0.19992362738E+03  0.88924592939E+02 0.  0.
         13    1    3    3    0    0  0.45716816497E+02  0.86764824303E+01 -0.13428339689E+03  0.14211734355E+03  0.00000000000E+00 0. -1.
        -13    1    3    3    0    0 -0.37108501508E+02  0.82510431004E+00 -0.44315288207E+02  0.57806283830E+02  0.00000000000E+00 0.  1.
         22    1    1    2    0    0 -0.86083149885E+01 -0.95015867403E+01 -0.17685430569E+02  0.21843939478E+02  0.00000000000E+00 0.  1.
<mgrwt>
<rscale>  0 0.55220387E+02</rscale>
<asrwt>0</asrwt>
<pdfrwt beam="1">  1        2 0.32157820E-01 0.89844123E+02</pdfrwt>
<pdfrwt beam="2">  1       -2 0.19602656E-02 0.89844123E+02</pdfrwt>
<totfact> 0.10995132E+05</totfact>
</mgrwt>
</event>
<event>
 6    1  0.2995420E-002  0.9488502E+02  0.7546771E-02  0.1368234E+00
          2   -1    0    0  501    0  0.00000000000E+00  0.00000000000E+00  0.10218949600E+04  0.10218949600E+04  0.00000000000E+00 0. -1.
         -2   -1    0    0    0  501 -0.00000000000E+00 -0.00000000000E+00 -0.46470205199E+01  0.46470205199E+01  0.00000000000E+00 0.  1.
         23    2    1    2    0    0  0.50400048513E+01  0.24009774840E+02  0.95393040310E+03  0.95863777336E+03  0.91658581805E+02 0.  0.
         13    1    3    3    0    0  0.41201309887E+02 -0.18865602804E+01  0.25690211123E+03  0.26019185575E+03  0.00000000000E+00 0.  1.
        -13    1    3    3    0    0 -0.36161305036E+02  0.25896335120E+02  0.69702829187E+03  0.69844591761E+03  0.00000000000E+00 0. -1.
         22    1    1    2    0    0 -0.50400048513E+01 -0.24009774840E+02  0.63317536388E+02  0.67904207167E+02  0.00000000000E+00 0. -1.
<mgrwt>
<rscale>  0 0.67660648E+02</rscale>
<asrwt>0</asrwt>
<pdfrwt beam="1">  1        2 0.15721443E+00 0.94885018E+02</pdfrwt>
<pdfrwt beam="2">  1       -2 0.71492705E-03 0.94885018E+02</pdfrwt>
<totfact> 0.79031817E+04</totfact>
</mgrwt>
</event>
<event>
 6    1  0.2995420E-002  0.1039256E+03  0.7546771E-02  0.1325271E+00
          2   -1    0    0  501    0  0.00000000000E+00  0.00000000000E+00  0.36101929939E+03  0.36101929939E+03  0.00000000000E+00 0. -1.
         -2   -1    0    0    0  501 -0.00000000000E+00 -0.00000000000E+00 -0.33646143869E+02  0.33646143869E+02  0.00000000000E+00 0.  1.
         23    2    1    2    0    0 -0.32508813417E+02  0.21567400639E+02  0.33850235604E+03  0.35409655340E+03  0.96325221839E+02 0.  0.
         13    1    3    3    0    0 -0.41955783156E+02  0.51368323120E+02  0.28018514499E+03  0.28792830328E+03  0.00000000000E+00 0. -1.
        -13    1    3    3    0    0  0.94469697398E+01 -0.29800922481E+02  0.58317211054E+02  0.66168250113E+02  0.00000000000E+00 0.  1.
         22    1    1    2    0    0  0.32508813417E+02 -0.21567400639E+02 -0.11129200523E+02  0.40568889859E+02  0.00000000000E+00 0.  1.
<mgrwt>
<rscale>  0 0.81347231E+02</rscale>
<asrwt>0</asrwt>
<pdfrwt beam="1">  1        2 0.55541428E-01 0.10392557E+03</pdfrwt>
<pdfrwt beam="2">  1       -2 0.51763301E-02 0.10392557E+03</pdfrwt>
<totfact> 0.15243583E+04</totfact>
</mgrwt>
</event>
<event>
 6    1  0.2995420E-002  0.9642147E+02  0.7546771E-02  0.1400582E+00
          2   -1    0    0  501    0  0.00000000000E+00  0.00000000000E+00  0.17333252838E+04  0.17333252838E+04  0.00000000000E+00 0. -1.
         -2   -1    0    0    0  501 -0.00000000000E+00 -0.00000000000E+00 -0.27455402391E+01  0.27455402391E+01  0.00000000000E+00 0.  1.
         23    2    1    2    0    0  0.13834747382E+02 -0.39110387348E+00  0.16971835160E+04  0.16999202886E+04  0.95422992034E+02 0.  0.
         13    1    3    3    0    0 -0.36409997293E+02  0.17557652611E+02  0.54197748857E+03  0.54348280302E+03  0.00000000000E+00 0. -1.
        -13    1    3    3    0    0  0.50244744675E+02 -0.17948756484E+02  0.11552060274E+04  0.11564374855E+04  0.00000000000E+00 0.  1.
         22    1    1    2    0    0 -0.13834747382E+02  0.39110387348E+00  0.33396227564E+02  0.36150535443E+02  0.00000000000E+00 0. -1.
<mgrwt>
<rscale>  0 0.59349423E+02</rscale>
<asrwt>0</asrwt>
<pdfrwt beam="1">  1        2 0.26666455E+00 0.96421474E+02</pdfrwt>
<pdfrwt beam="2">  1       -2 0.42239219E-03 0.96421474E+02</pdfrwt>
<totfact> 0.69763869E+04</totfact>
</mgrwt>
</event>
<event>
 6    1  0.2995420E-002  0.9653293E+02  0.7546771E-02  0.1352916E+00
          2   -1    0    0  501    0  0.00000000000E+00  0.00000000000E+00  0.36384207048E+03  0.36384207048E+03  0.00000000000E+00 0. -1.
         -2   -1    0    0    0  501 -0.00000000000E+00 -0.00000000000E+00 -0.19166700589E+02  0.19166700589E+02  0.00000000000E+00 0.  1.
         23    2    1    2    0    0  0.29343366575E+01 -0.29988730314E+02  0.33883283354E+03  0.35231562023E+03  0.91709720833E+02 0.  0.
         11    1    3    3    0    0  0.35949241699E+00 -0.33462003737E+00  0.31271653051E+03  0.31271691617E+03  0.00000000000E+00 0. -1.
        -11    1    3    3    0    0  0.25748442405E+01 -0.29654110276E+02  0.26116303030E+02  0.39598704059E+02  0.00000000000E+00 0.  1.
         22    1    1    2    0    0 -0.29343366575E+01  0.29988730314E+02  0.58425363516E+01  0.30693150840E+02  0.00000000000E+00 0.  1.
<mgrwt>
<rscale>  0 0.72154501E+02</rscale>
<asrwt>0</asrwt>
<pdfrwt beam="1">  1        2 0.55975698E-01 0.96532933E+02</pdfrwt>
<pdfrwt beam="2">  1       -2 0.29487234E-02 0.96532933E+02</pdfrwt>
<totfact> 0.34378076E+04</totfact>
</mgrwt>
</event>
<event>
 6    1  0.2995420E-002  0.9431603E+02  0.7546771E-02  0.1394959E+00
          4   -1    0    0  501    0  0.00000000000E+00  0.00000000000E+00  0.29875026518E+02  0.29875026518E+02  0.00000000000E+00 0. -1.
         -4   -1    0    0    0  501 -0.00000000000E+00 -0.00000000000E+00 -0.10217922345E+03  0.10217922345E+03  0.00000000000E+00 0.  1.
         23    2    1    2    0    0 -0.16165690455E+02  0.37678823850E+00 -0.60954231857E+02  0.11229840971E+03  0.92919550817E+02 0.  0.
         13    1    3    3    0    0  0.21390688019E+01 -0.41687797078E+02 -0.49999712801E+02  0.65133856946E+02  0.00000000000E+00 0.  1.
        -13    1    3    3    0    0 -0.18304759257E+02  0.42064585316E+02 -0.10954519056E+02  0.47164552760E+02  0.00000000000E+00 0. -1.
         22    1    1    2    0    0  0.16165690455E+02 -0.37678823850E+00 -0.11349965078E+02  0.19755840264E+02  0.00000000000E+00 0.  1.
<mgrwt>
<rscale>  0 0.60690009E+02</rscale>
<asrwt>0</asrwt>
<pdfrwt beam="1">  1        4 0.45961578E-02 0.94316035E+02</pdfrwt>
<pdfrwt beam="2">  1       -4 0.15719881E-01 0.94316035E+02</pdfrwt>
<totfact> 0.13880190E+04</totfact>
</mgrwt>
</event>
<event>
 6    1  0.2995420E-002  0.9189061E+02  0.7546771E-02  0.1427101E+00
         -2   -1    0    0    0  501 -0.00000000000E+00  0.00000000000E+00  0.15336258878E+02  0.15336258878E+02  0.00000000000E+00 0.  1.
          2   -1    0    0  501    0  0.00000000000E+00 -0.00000000000E+00 -0.31341142246E+03  0.31341142246E+03  0.00000000000E+00 0. -1.
         23    2    1    2    0    0 -0.10061578132E+02  0.33196609211E+01 -0.30331422232E+03  0.31692806883E+03  0.91277751116E+02 0.  0.
         13    1    3    3    0    0 -0.42469274209E+02 -0.17116082003E+02 -0.22658590590E+03  0.23116611402E+03  0.00000000000E+00 0. -1.
        -13    1    3    3    0    0  0.32407696076E+02  0.20435742924E+02 -0.76728316417E+02  0.85761954817E+02  0.00000000000E+00 0.  1.
         22    1    1    2    0    0  0.10061578132E+02 -0.33196609211E+01  0.52390587435E+01  0.11819612501E+02  0.00000000000E+00 0.  1.
<mgrwt>
<rscale>  0 0.53546278E+02</rscale>
<asrwt>0</asrwt>
<pdfrwt beam="1">  1        2 0.48217141E-01 0.91890605E+02</pdfrwt>
<pdfrwt beam="2">  1       -2 0.23594245E-02 0.91890605E+02</pdfrwt>
<totfact> 0.55191546E+04</totfact>
</mgrwt>
</event>
<event>
 6    1  0.2995420E-002  0.9108432E+02  0.7546771E-02  0.1410707E+00
          2   -1    0    0  501    0  0.00000000000E+00  0.00000000000E+00  0.84667551519E+02  0.84667551519E+02  0.00000000000E+00 0. -1.
         -2   -1    0    0    0  501 -0.00000000000E+00 -0.00000000000E+00 -0.37961358958E+02  0.37961358958E+02  0.00000000000E+00 0.  1.
         23    2    1    2    0    0 -0.15415942875E+01  0.13919735596E+02  0.54951824015E+02  0.10637695705E+03  0.90001213756E+02 0.  0.
         11    1    3    3    0    0 -0.65137668518E+01 -0.29100612911E+02 -0.71503445354E+01  0.30665978826E+02  0.00000000000E+00 0.  1.
        -11    1    3    3    0    0  0.49721725643E+01  0.43020348506E+02  0.62102168550E+02  0.75710978228E+02  0.00000000000E+00 0. -1.
         22    1    1    2    0    0  0.15415942875E+01 -0.13919735596E+02 -0.82456314533E+01  0.16251953423E+02  0.00000000000E+00 0.  1.
<mgrwt>
<rscale>  0 0.57036421E+02</rscale>
<asrwt>0</asrwt>
<pdfrwt beam="1">  1        2 0.13025777E-01 0.91084324E+02</pdfrwt>
<pdfrwt beam="2">  1       -2 0.58402091E-02 0.91084324E+02</pdfrwt>
<totfact> 0.61185947E+04</totfact>
</mgrwt>
</event>
<event>
 6    1  0.2995420E-002  0.8642754E+02  0.7546771E-02  0.1428860E+00
         -2   -1    0    0    0  501 -0.00000000000E+00  0.00000000000E+00  0.24559563819E+02  0.24559563819E+02  0.00000000000E+00 0.  1.
          2   -1    0    0  501    0  0.00000000000E+00 -0.00000000000E+00 -0.10725809742E+03  0.10725809742E+03  0.00000000000E+00 0. -1.
         23    2    1    2    0    0  0.32383822540E+01  0.11967556818E+02 -0.82404564497E+02  0.11941621158E+03  0.85533676427E+02 0.  0.
         13    1    3    3    0    0  0.21527746583E+02  0.11959238152E+02  0.89850593488E+01  0.26214471988E+02  0.00000000000E+00 0.  1.
        -13    1    3    3    0    0 -0.18289364329E+02  0.83186662773E-02 -0.91389623846E+02  0.93201739594E+02  0.00000000000E+00 0. -1.
         22    1    1    2    0    0 -0.32383822540E+01 -0.11967556818E+02 -0.29396910722E+00  0.12401449659E+02  0.00000000000E+00 0. -1.
<mgrwt>
<rscale>  0 0.53189598E+02</rscale>
<asrwt>0</asrwt>
<pdfrwt beam="1">  1        2 0.16501246E-01 0.86427538E+02</pdfrwt>
<pdfrwt beam="2">  1       -2 0.37783944E-02 0.86427538E+02</pdfrwt>
<totfact> 0.87940373E+04</totfact>
</mgrwt>
</event>
<event>
 6    1  0.2995420E-002  0.9274730E+02  0.7546771E-02  0.1426237E+00
         -2   -1    0    0    0  501 -0.00000000000E+00  0.00000000000E+00  0.99659460107E+01  0.99659460107E+01  0.00000000000E+00 0. -1.
          2   -1    0    0  501    0  0.00000000000E+00 -0.00000000000E+00 -0.33721727200E+03  0.33721727200E+03  0.00000000000E+00 0.  1.
         23    2    1    2    0    0  0.82443108073E+01  0.64062922045E+01 -0.32275279590E+03  0.33581457634E+03  0.92157762459E+02 0.  0.
         13    1    3    3    0    0 -0.27028439400E+02  0.31270914912E+02 -0.22773657476E+03  0.23145702439E+03  0.00000000000E+00 0.  1.
        -13    1    3    3    0    0  0.35272750208E+02 -0.24864622707E+02 -0.95016221138E+02  0.10435755195E+03  0.00000000000E+00 0. -1.
         22    1    1    2    0    0 -0.82443108073E+01 -0.64062922045E+01 -0.44985300929E+01  0.11368641673E+02  0.00000000000E+00 0. -1.
<mgrwt>
<rscale>  0 0.53722830E+02</rscale>
<asrwt>0</asrwt>
<pdfrwt beam="1">  1        2 0.51879569E-01 0.92747304E+02</pdfrwt>
<pdfrwt beam="2">  1       -2 0.15332228E-02 0.92747304E+02</pdfrwt>
<totfact> 0.95030340E+04</totfact>
</mgrwt>
</event>
<event>
 6    1  0.2995420E-002  0.9299936E+02  0.7546771E-02  0.1379234E+00
          4   -1    0    0  501    0  0.00000000000E+00  0.00000000000E+00  0.34730386790E+03  0.34730386790E+03  0.00000000000E+00 0. -1.
         -4   -1    0    0    0  501 -0.00000000000E+00 -0.00000000000E+00 -0.96700321852E+01  0.96700321852E+01  0.00000000000E+00 0.  1.
         23    2    1    2    0    0  0.10546291718E+02 -0.19010182024E+02  0.29147431526E+03  0.30595123239E+03  0.90422723128E+02 0.  0.
         11    1    3    3    0    0 -0.30773113431E+01 -0.10078230459E+02  0.28932806954E+03  0.28951989983E+03  0.00000000000E+00 0. -1.
        -11    1    3    3    0    0  0.13623603062E+02 -0.89319515651E+01  0.21462457201E+01  0.16431332564E+02  0.00000000000E+00 0.  1.
         22    1    1    2    0    0 -0.10546291718E+02  0.19010182024E+02  0.46159520453E+02  0.51022667689E+02  0.00000000000E+00 0.  1.
<mgrwt>
<rscale>  0 0.64665549E+02</rscale>
<asrwt>0</asrwt>
<pdfrwt beam="1">  1        4 0.53431355E-01 0.92999356E+02</pdfrwt>
<pdfrwt beam="2">  1       -4 0.14876975E-02 0.92999356E+02</pdfrwt>
<totfact> 0.79839835E+03</totfact>
</mgrwt>
</event>
<event>
 6    1  0.2995420E-002  0.9843280E+02  0.7546771E-02  0.1336442E+00
          2   -1    0    0  501    0  0.00000000000E+00  0.00000000000E+00  0.66881569269E+02  0.66881569269E+02  0.00000000000E+00 0. -1.
         -2   -1    0    0    0  501 -0.00000000000E+00 -0.00000000000E+00 -0.11355844313E+03  0.11355844313E+03  0.00000000000E+00 0.  1.
         23    2    1    2    0    0 -0.11465804628E+02 -0.35948054295E+02 -0.82482750776E+02  0.12842282192E+03  0.90913638860E+02 0.  0.
         11    1    3    3    0    0  0.37606092685E+02 -0.42117528821E+01 -0.19743251696E+02  0.42681999214E+02  0.00000000000E+00 0. -1.
        -11    1    3    3    0    0 -0.49071897314E+02 -0.31736301412E+02 -0.62739499080E+02  0.85740822705E+02  0.00000000000E+00 0.  1.
         22    1    1    2    0    0  0.11465804628E+02  0.35948054295E+02  0.35805876917E+02  0.52017190477E+02  0.00000000000E+00 0. -1.
<mgrwt>
<rscale>  0 0.77452109E+02</rscale>
<asrwt>0</asrwt>
<pdfrwt beam="1">  1        2 0.10289472E-01 0.98432805E+02</pdfrwt>
<pdfrwt beam="2">  1       -2 0.17470530E-01 0.98432805E+02</pdfrwt>
<totfact> 0.14758655E+04</totfact>
</mgrwt>
</event>
<event>
 6    1  0.2995420E-002  0.9417018E+02  0.7546771E-02  0.1365140E+00
          2   -1    0    0  501    0  0.00000000000E+00  0.00000000000E+00  0.16661595136E+03  0.16661595136E+03  0.00000000000E+00 0. -1.
         -2   -1    0    0    0  501 -0.00000000000E+00 -0.00000000000E+00 -0.21820384933E+02  0.21820384933E+02  0.00000000000E+00 0.  1.
         23    2    1    2    0    0 -0.22336862990E+02 -0.14112631969E+02  0.11328928675E+03  0.14731763631E+03  0.90387618874E+02 0.  0.
         13    1    3    3    0    0  0.18258005073E+02  0.24937966755E+02  0.69191973961E+02  0.75781173095E+02  0.00000000000E+00 0. -1.
        -13    1    3    3    0    0 -0.40594868062E+02 -0.39050598725E+02  0.44097312792E+02  0.71536463215E+02  0.00000000000E+00 0.  1.
         22    1    1    2    0    0  0.22336862990E+02  0.14112631969E+02  0.31506279673E+02  0.41118699981E+02  0.00000000000E+00 0.  1.
<mgrwt>
<rscale>  0 0.68536971E+02</rscale>
<asrwt>0</asrwt>
<pdfrwt beam="1">  1        2 0.25633223E-01 0.94170184E+02</pdfrwt>
<pdfrwt beam="2">  1       -2 0.33569824E-02 0.94170184E+02</pdfrwt>
<totfact> 0.64840171E+04</totfact>
</mgrwt>
</event>
<event>
 6    1  0.2995420E-002  0.9719030E+02  0.7546771E-02  0.1351931E+00
         -4   -1    0    0    0  501 -0.00000000000E+00  0.00000000000E+00  0.20225790961E+02  0.20225790961E+02  0.00000000000E+00 0. -1.
          4   -1    0    0  501    0  0.00000000000E+00 -0.00000000000E+00 -0.29740232495E+03  0.29740232495E+03  0.00000000000E+00 0.  1.
         23    2    1    2    0    0 -0.18909246053E+02 -0.23320343540E+02 -0.26971473983E+03  0.28669146481E+03  0.92436773542E+02 0.  0.
         11    1    3    3    0    0 -0.47763286092E+02 -0.74609758600E+01 -0.75120010859E+02  0.89330922365E+02  0.00000000000E+00 0. -1.
        -11    1    3    3    0    0  0.28854040040E+02 -0.15859367680E+02 -0.19459472897E+03  0.19736054245E+03  0.00000000000E+00 0.  1.
         22    1    1    2    0    0  0.18909246053E+02  0.23320343540E+02 -0.74617941521E+01  0.30936651096E+02  0.00000000000E+00 0.  1.
<mgrwt>
<rscale>  0 0.72457239E+02</rscale>
<asrwt>0</asrwt>
<pdfrwt beam="1">  1        4 0.45754201E-01 0.97190304E+02</pdfrwt>
<pdfrwt beam="2">  1       -4 0.31116603E-02 0.97190304E+02</pdfrwt>
<totfact> 0.35639942E+03</totfact>
</mgrwt>
</event>
<event>
 6    1  0.2995420E-002  0.8901267E+02  0.7546771E-02  0.1414987E+00
         -2   -1    0    0    0  501 -0.00000000000E+00  0.00000000000E+00  0.53002543325E+01  0.53002543325E+01  0.00000000000E+00 0. -1.
          2   -1    0    0  501    0  0.00000000000E+00 -0.00000000000E+00 -0.75369188778E+03  0.75369188778E+03  0.00000000000E+00 0.  1.
         23    2    1    2    0    0 -0.30773628929E+01  0.13698463944E+02 -0.73207461961E+03  0.73746627355E+03  0.87898452030E+02 0.  0.
         11    1    3    3    0    0  0.43022739769E+01 -0.24099507528E+02 -0.67938807691E+02  0.72214800526E+02  0.00000000000E+00 0. -1.
        -11    1    3    3    0    0 -0.73796368698E+01  0.37797971472E+02 -0.66413581192E+03  0.66525147302E+03  0.00000000000E+00 0.  1.
         22    1    1    2    0    0  0.30773628929E+01 -0.13698463944E+02 -0.16317013837E+02  0.21525868562E+02  0.00000000000E+00 0.  1.
<mgrwt>
<rscale>  0 0.56095715E+02</rscale>
<asrwt>0</asrwt>
<pdfrwt beam="1">  1        2 0.11595263E+00 0.89012673E+02</pdfrwt>
<pdfrwt beam="2">  1       -2 0.81542349E-03 0.89012673E+02</pdfrwt>
<totfact> 0.95947246E+04</totfact>
</mgrwt>
</event>
<event>
 6    1  0.2995420E-002  0.9017430E+02  0.7546771E-02  0.1418623E+00
          2   -1    0    0  501    0  0.00000000000E+00  0.00000000000E+00  0.47382152720E+03  0.47382152720E+03  0.00000000000E+00 0.  1.
         -2   -1    0    0    0  501 -0.00000000000E+00 -0.00000000000E+00 -0.56368942128E+01  0.56368942128E+01  0.00000000000E+00 0. -1.
         23    2    1    2    0    0 -0.23295232326E+01  0.12552066972E+02  0.42300689041E+03  0.43251154199E+03  0.89266026858E+02 0.  0.
         13    1    3    3    0    0  0.10873199905E+02  0.47023759062E+02  0.30707184581E+03  0.31084172642E+03  0.00000000000E+00 0.  1.
        -13    1    3    3    0    0 -0.13202723138E+02 -0.34471692090E+02  0.11593504461E+03  0.12166981557E+03  0.00000000000E+00 0. -1.
         22    1    1    2    0    0  0.23295232326E+01 -0.12552066972E+02  0.45177742574E+02  0.46946879426E+02  0.00000000000E+00 0.  1.
<mgrwt>
<rscale>  0 0.55313257E+02</rscale>
<asrwt>0</asrwt>
<pdfrwt beam="1">  1        2 0.72895588E-01 0.90174301E+02</pdfrwt>
<pdfrwt beam="2">  1       -2 0.86721487E-03 0.90174301E+02</pdfrwt>
<totfact> 0.14839318E+05</totfact>
</mgrwt>
</event>
<event>
 6    1  0.2995420E-002  0.9610446E+02  0.7546771E-02  0.1345010E+00
         -4   -1    0    0    0  501 -0.00000000000E+00  0.00000000000E+00  0.31776742010E+03  0.31776742010E+03  0.00000000000E+00 0. -1.
          4   -1    0    0  501    0  0.00000000000E+00 -0.00000000000E+00 -0.13526190626E+02  0.13526190626E+02  0.00000000000E+00 0.  1.
         23    2    1    2    0    0 -0.34876586022E+02 -0.23344788160E+01  0.21852596466E+03  0.23872508116E+03  0.89522293873E+02 0.  0.
         11    1    3    3    0    0 -0.50849802868E+01  0.35619596701E+02  0.15403961826E+03  0.15818601925E+03  0.00000000000E+00 0.  1.
        -11    1    3    3    0    0 -0.29791605735E+02 -0.37954075517E+02  0.64486346397E+02  0.80539061903E+02  0.00000000000E+00 0. -1.
         22    1    1    2    0    0  0.34876586022E+02  0.23344788160E+01  0.85715264820E+02  0.92568529572E+02  0.00000000000E+00 0.  1.
<mgrwt>
<rscale>  0 0.74633503E+02</rscale>
<asrwt>0</asrwt>
<pdfrwt beam="1">  1        4 0.20809527E-02 0.96104460E+02</pdfrwt>
<pdfrwt beam="2">  1       -4 0.48887290E-01 0.96104460E+02</pdfrwt>
<totfact> 0.57913108E+03</totfact>
</mgrwt>
</event>
<event>
 6    1  0.2995420E-002  0.9330492E+02  0.7546771E-02  0.1411922E+00
         -2   -1    0    0    0  501 -0.00000000000E+00  0.00000000000E+00  0.26317153580E+03  0.26317153580E+03  0.00000000000E+00 0.  1.
          2   -1    0    0  501    0  0.00000000000E+00 -0.00000000000E+00 -0.11305214552E+02  0.11305214552E+02  0.00000000000E+00 0. -1.
         23    2    1    2    0    0 -0.81153680385E+01  0.98781646395E+01  0.19475592176E+03  0.21595295122E+03  0.92424946553E+02 0.  0.
         11    1    3    3    0    0  0.34163609368E+02  0.28878497657E+02  0.11913340413E+03  0.12725520740E+03  0.00000000000E+00 0. -1.
        -11    1    3    3    0    0 -0.42278977407E+02 -0.19000333017E+02  0.75622517629E+02  0.88697743815E+02  0.00000000000E+00 0.  1.
         22    1    1    2    0    0  0.81153680385E+01 -0.98781646395E+01  0.57110399489E+02  0.58523799132E+02  0.00000000000E+00 0. -1.
<mgrwt>
<rscale>  0 0.56767180E+02</rscale>
<asrwt>0</asrwt>
<pdfrwt beam="1">  1        2 0.17392640E-02 0.93304920E+02</pdfrwt>
<pdfrwt beam="2">  1       -2 0.40487924E-01 0.93304920E+02</pdfrwt>
<totfact> 0.33713899E+04</totfact>
</mgrwt>
</event>
<event>
 6    1  0.2995420E-002  0.9211158E+02  0.7546771E-02  0.1398425E+00
         -1   -1    0    0    0  501 -0.00000000000E+00  0.00000000000E+00  0.29888055223E+02  0.29888055223E+02  0.00000000000E+00 0.  1.
          1   -1    0    0  501    0  0.00000000000E+00 -0.00000000000E+00 -0.98663078864E+02  0.98663078864E+02  0.00000000000E+00 0. -1.
         23    2    1    2    0    0 -0.15100423811E+02  0.64682533830E+01 -0.59961754197E+02  0.10990884830E+03  0.90634882175E+02 0.  0.
         11    1    3    3    0    0 -0.11097139549E+02  0.43417824779E+02 -0.57166762703E+02  0.72638094500E+02  0.00000000000E+00 0. -1.
        -11    1    3    3    0    0 -0.40032842618E+01 -0.36949571396E+02 -0.27949914935E+01  0.37270753798E+02  0.00000000000E+00 0.  1.
         22    1    1    2    0    0  0.15100423811E+02 -0.64682533830E+01 -0.88132694445E+01  0.18642285788E+02  0.00000000000E+00 0.  1.
<mgrwt>
<rscale>  0 0.59858828E+02</rscale>
<asrwt>0</asrwt>
<pdfrwt beam="1">  1        1 0.15178935E-01 0.92111579E+02</pdfrwt>
<pdfrwt beam="2">  1       -1 0.45981623E-02 0.92111579E+02</pdfrwt>
<totfact> 0.62821719E+04</totfact>
</mgrwt>
</event>
<event>
 6    1  0.2995420E-002  0.9047434E+02  0.7546771E-02  0.1427170E+00
          2   -1    0    0  501    0  0.00000000000E+00  0.00000000000E+00  0.50305869414E+03  0.50305869414E+03  0.00000000000E+00 0. -1.
         -2   -1    0    0    0  501 -0.00000000000E+00 -0.00000000000E+00 -0.52421963549E+01  0.52421963549E+01  0.00000000000E+00 0.  1.
         23    2    1    2    0    0 -0.70044944312E+01 -0.85964706274E+01  0.46314730684E+03  0.47190150794E+03  0.89792221907E+02 0.  0.
         11    1    3    3    0    0 -0.23837638326E+02 -0.38687217673E+02  0.14658162103E+03  0.15346369419E+03  0.00000000000E+00 0.  1.
        -11    1    3    3    0    0  0.16833143895E+02  0.30090747046E+02  0.31656568581E+03  0.31843781375E+03  0.00000000000E+00 0. -1.
         22    1    1    2    0    0  0.70044944312E+01  0.85964706274E+01  0.34669190954E+02  0.36399382562E+02  0.00000000000E+00 0. -1.
<mgrwt>
<rscale>  0 0.53532254E+02</rscale>
<asrwt>0</asrwt>
<pdfrwt beam="1">  1        2 0.77393607E-01 0.90474335E+02</pdfrwt>
<pdfrwt beam="2">  1       -2 0.80649214E-03 0.90474335E+02</pdfrwt>
<totfact> 0.15421647E+05</totfact>
</mgrwt>
</event>
<event>
 6    1  0.2995420E-002  0.9217079E+02  0.7546771E-02  0.1411350E+00
         -2   -1    0    0    0  501 -0.00000000000E+00  0.00000000000E+00  0.41448847412E+02  0.41448847412E+02  0.00000000000E+00 0.  1.
          2   -1    0    0  501    0  0.00000000000E+00 -0.00000000000E+00 -0.16930222169E+03  0.16930222169E+03  0.00000000000E+00 0. -1.
         23    2    1    2    0    0 -0.22529966146E+01 -0.13189616384E+02 -0.15508629407E+03  0.18040846053E+03  0.91194364126E+02 0.  0.
         13    1    3    3    0    0  0.43166729493E+02 -0.10394974249E+02 -0.56765716231E+02  0.72067805322E+02  0.00000000000E+00 0.  1.
        -13    1    3    3    0    0 -0.45419726107E+02 -0.27946421353E+01 -0.98320577839E+02  0.10834065521E+03  0.00000000000E+00 0. -1.
         22    1    1    2    0    0  0.22529966146E+01  0.13189616384E+02  0.27232919795E+02  0.30342608567E+02  0.00000000000E+00 0.  1.
<mgrwt>
<rscale>  0 0.56893720E+02</rscale>
<asrwt>0</asrwt>
<pdfrwt beam="1">  1        2 0.26046495E-01 0.92170787E+02</pdfrwt>
<pdfrwt beam="2">  1       -2 0.63767458E-02 0.92170787E+02</pdfrwt>
<totfact> 0.24557822E+04</totfact>
</mgrwt>
</event>
<event>
 6    1  0.2995420E-002  0.9180240E+02  0.7546771E-02  0.1412763E+00
         -2   -1    0    0    0  501 -0.00000000000E+00  0.00000000000E+00  0.85059815509E+01  0.85059815509E+01  0.00000000000E+00 0.  1.
          2   -1    0    0  501    0  0.00000000000E+00 -0.00000000000E+00 -0.32437115273E+03  0.32437115273E+03  0.00000000000E+00 0. -1.
         23    2    1    2    0    0  0.50163466010E+01  0.12261339875E+02 -0.27698407810E+03  0.29180106354E+03  0.90841493666E+02 0.  0.
         11    1    3    3    0    0  0.32313503371E+02  0.53881313980E+01 -0.25213122409E+03  0.25425056267E+03  0.00000000000E+00 0. -1.
        -11    1    3    3    0    0 -0.27297156771E+02  0.68732084765E+01 -0.24852854013E+02  0.37550500864E+02  0.00000000000E+00 0.  1.
         22    1    1    2    0    0 -0.50163466010E+01 -0.12261339875E+02 -0.38881093079E+02  0.41076070743E+02  0.00000000000E+00 0. -1.
<mgrwt>
<rscale>  0 0.56581763E+02</rscale>
<asrwt>0</asrwt>
<pdfrwt beam="1">  1        2 0.49903253E-01 0.91802403E+02</pdfrwt>
<pdfrwt beam="2">  1       -2 0.13086126E-02 0.91802403E+02</pdfrwt>
<totfact> 0.12385273E+05</totfact>
</mgrwt>
</event>
<event>
 6    1  0.2995420E-002  0.9494157E+02  0.7546771E-02  0.1366879E+00
         -2   -1    0    0    0  501 -0.00000000000E+00  0.00000000000E+00  0.32695419811E+03  0.32695419811E+03  0.00000000000E+00 0. -1.
          2   -1    0    0  501    0  0.00000000000E+00 -0.00000000000E+00 -0.11457938390E+02  0.11457938390E+02  0.00000000000E+00 0.  1.
         23    2    1    2    0    0 -0.96227208714E+01 -0.23124500863E+02  0.21852485017E+03  0.23825828701E+03  0.91578173661E+02 0.  0.
         11    1    3    3    0    0  0.22536557564E+02 -0.38276444879E+02  0.18179178059E+03  0.18713961139E+03  0.00000000000E+00 0. -1.
        -11    1    3    3    0    0 -0.32159278436E+02  0.15151944016E+02  0.36733069575E+02  0.51118675622E+02  0.00000000000E+00 0.  1.
         22    1    1    2    0    0  0.96227208714E+01  0.23124500863E+02  0.96971409552E+02  0.10015384949E+03  0.00000000000E+00 0. -1.
<mgrwt>
<rscale>  0 0.68042476E+02</rscale>
<asrwt>0</asrwt>
<pdfrwt beam="1">  1        2 0.17627600E-02 0.94941567E+02</pdfrwt>
<pdfrwt beam="2">  1       -2 0.50300639E-01 0.94941567E+02</pdfrwt>
<totfact> 0.21862375E+04</totfact>
</mgrwt>
</event>
<event>
 6    1  0.2995420E-002  0.1190524E+03  0.7546771E-02  0.1270420E+00
          2   -1    0    0  501    0  0.00000000000E+00  0.00000000000E+00  0.10016902097E+04  0.10016902097E+04  0.00000000000E+00 0. -1.
         -2   -1    0    0    0  501 -0.00000000000E+00 -0.00000000000E+00 -0.90897317739E+01  0.90897317739E+01  0.00000000000E+00 0.  1.
         23    2    1    2    0    0  0.61819660060E+02 -0.36158115182E+02  0.59881590732E+03  0.61053580634E+03  0.95102052019E+02 0.  0.
         11    1    3    3    0    0 -0.24693260906E+02 -0.16150601190E+02  0.18090747984E+03  0.18329788683E+03  0.00000000000E+00 0.  1.
        -11    1    3    3    0    0  0.86512920965E+02 -0.20007513992E+02  0.41790842748E+03  0.42723791951E+03  0.00000000000E+00 0. -1.
         22    1    1    2    0    0 -0.61819660060E+02  0.36158115182E+02  0.39378457064E+03  0.40024413517E+03  0.00000000000E+00 0.  1.
<mgrwt>
<rscale>  0 0.10484763E+03</rscale>
<asrwt>0</asrwt>
<pdfrwt beam="1">  1        2 0.15410610E+00 0.11905243E+03</pdfrwt>
<pdfrwt beam="2">  1       -2 0.13984211E-02 0.11905243E+03</pdfrwt>
<totfact> 0.32041210E+04</totfact>
</mgrwt>
</event>
<event>
 6    1  0.2995420E-002  0.9661844E+02  0.7546771E-02  0.1390799E+00
         -2   -1    0    0    0  501 -0.00000000000E+00  0.00000000000E+00  0.10131653049E+03  0.10131653049E+03  0.00000000000E+00 0.  1.
          2   -1    0    0  501    0  0.00000000000E+00 -0.00000000000E+00 -0.31787137162E+02  0.31787137162E+02  0.00000000000E+00 0. -1.
         23    2    1    2    0    0  0.49429105880E+00 -0.16069005021E+02  0.53684722216E+02  0.11053132066E+03  0.95271539307E+02 0.  0.
         11    1    3    3    0    0 -0.11653423021E+02 -0.16064847768E+02  0.79532481813E+02  0.81971319772E+02  0.00000000000E+00 0.  1.
        -11    1    3    3    0    0  0.12147714080E+02 -0.41572526292E-02 -0.25847759596E+02  0.28560000890E+02  0.00000000000E+00 0. -1.
         22    1    1    2    0    0 -0.49429105880E+00  0.16069005021E+02  0.15844671110E+02  0.22572346989E+02  0.00000000000E+00 0.  1.
<mgrwt>
<rscale>  0 0.61708304E+02</rscale>
<asrwt>0</asrwt>
<pdfrwt beam="1">  1        2 0.48903288E-02 0.96618443E+02</pdfrwt>
<pdfrwt beam="2">  1       -2 0.15587158E-01 0.96618443E+02</pdfrwt>
<totfact> 0.45162868E+04</totfact>
</mgrwt>
</event>
<event>
 6    1  0.2995420E-002  0.9169895E+02  0.7546771E-02  0.1421440E+00
          4   -1    0    0  501    0  0.00000000000E+00  0.00000000000E+00  0.15748282703E+03  0.15748282703E+03  0.00000000000E+00 0. -1.
         -4   -1    0    0    0  501 -0.00000000000E+00 -0.00000000000E+00 -0.17122513973E+02  0.17122513973E+02  0.00000000000E+00 0.  1.
         23    2    1    2    0    0  0.10921954999E+01  0.11573963577E+02  0.11839590000E+03  0.14975408420E+03  0.90959040634E+02 0.  0.
         13    1    3    3    0    0  0.11926007534E+02 -0.34543839114E+02  0.82774127664E+02  0.90482388823E+02  0.00000000000E+00 0. -1.
        -13    1    3    3    0    0 -0.10833812034E+02  0.46117802691E+02  0.35621772336E+02  0.59271695375E+02  0.00000000000E+00 0.  1.
         22    1    1    2    0    0 -0.10921954999E+01 -0.11573963577E+02  0.21964413056E+02  0.24851256805E+02  0.00000000000E+00 0.  1.
<mgrwt>
<rscale>  0 0.54717352E+02</rscale>
<asrwt>0</asrwt>
<pdfrwt beam="1">  1        4 0.24228126E-01 0.91698945E+02</pdfrwt>
<pdfrwt beam="2">  1       -4 0.26342330E-02 0.91698945E+02</pdfrwt>
<totfact> 0.15226655E+04</totfact>
</mgrwt>
</event>
<event>
 6    1  0.2995420E-002  0.1045026E+03  0.7546771E-02  0.1348722E+00
         -2   -1    0    0    0  501 -0.00000000000E+00  0.00000000000E+00  0.13737371630E+02  0.13737371630E+02  0.00000000000E+00 0.  1.
          2   -1    0    0  501    0  0.00000000000E+00 -0.00000000000E+00 -0.59368805829E+03  0.59368805829E+03  0.00000000000E+00 0. -1.
         23    2    1    2    0    0 -0.56265718034E+01  0.24881862181E+02 -0.57085625131E+03  0.58034270239E+03  0.10134114262E+03 0.  0.
         11    1    3    3    0    0  0.18558619173E+02  0.35665986739E+02 -0.53082598883E+03  0.53234642421E+03  0.00000000000E+00 0. -1.
        -11    1    3    3    0    0 -0.24185190976E+02 -0.10784124558E+02 -0.40030262477E+02  0.47996278178E+02  0.00000000000E+00 0.  1.
         22    1    1    2    0    0  0.56265718034E+01 -0.24881862181E+02 -0.90944353518E+01  0.27082727526E+02  0.00000000000E+00 0.  1.
<mgrwt>
<rscale>  0 0.73455338E+02</rscale>
<asrwt>0</asrwt>
<pdfrwt beam="1">  1        2 0.91336608E-01 0.10450260E+03</pdfrwt>
<pdfrwt beam="2">  1       -2 0.21134422E-02 0.10450260E+03</pdfrwt>
<totfact> 0.33157278E+04</totfact>
</mgrwt>
</event>
<event>
 6    1  0.2995420E-002  0.9373129E+02  0.7546771E-02  0.1420197E+00
          2   -1    0    0  501    0  0.00000000000E+00  0.00000000000E+00  0.61533053945E+02  0.61533053945E+02  0.00000000000E+00 0. -1.
         -2   -1    0    0    0  501 -0.00000000000E+00 -0.00000000000E+00 -0.59206112533E+02  0.59206112533E+02  0.00000000000E+00 0.  1.
         23    2    1    2    0    0 -0.95013792190E+01 -0.57298035173E+01  0.23679343771E+02  0.96676083926E+02  0.93072267762E+02 0.  0.
         13    1    3    3    0    0 -0.50080124375E+02 -0.44135665427E+01  0.12441815497E+01  0.50289625319E+02  0.00000000000E+00 0.  1.
        -13    1    3    3    0    0  0.40578745156E+02 -0.13162369745E+01  0.22435162221E+02  0.46386458607E+02  0.00000000000E+00 0. -1.
         22    1    1    2    0    0  0.95013792190E+01  0.57298035173E+01 -0.21352402359E+02  0.24063082552E+02  0.00000000000E+00 0.  1.
<mgrwt>
<rscale>  0 0.54979237E+02</rscale>
<asrwt>0</asrwt>
<pdfrwt beam="1">  1        2 0.94666237E-02 0.93731286E+02</pdfrwt>
<pdfrwt beam="2">  1       -2 0.91086327E-02 0.93731286E+02</pdfrwt>
<totfact> 0.45824235E+04</totfact>
</mgrwt>
</event>
<event>
 6    1  0.2995420E-002  0.9471616E+02  0.7546771E-02  0.1372371E+00
          1   -1    0    0  501    0  0.00000000000E+00  0.00000000000E+00  0.28407005037E+03  0.28407005037E+03  0.00000000000E+00 0. -1.
         -1   -1    0    0    0  501 -0.00000000000E+00 -0.00000000000E+00 -0.12792311226E+02  0.12792311226E+02  0.00000000000E+00 0.  1.
         23    2    1    2    0    0 -0.38244705023E+01 -0.22712592373E+02  0.24004329353E+03  0.25805412768E+03  0.91873073406E+02 0.  0.
         13    1    3    3    0    0  0.16658655759E+01 -0.26649839775E+01  0.23703022217E+03  0.23705105667E+03  0.00000000000E+00 0. -1.
        -13    1    3    3    0    0 -0.54903360782E+01 -0.20047608396E+02  0.30130713575E+01  0.21003071005E+02  0.00000000000E+00 0.  1.
         22    1    1    2    0    0  0.38244705023E+01  0.22712592373E+02  0.31234445620E+02  0.38808233922E+02  0.00000000000E+00 0.  1.
<mgrwt>
<rscale>  0 0.66512387E+02</rscale>
<asrwt>0</asrwt>
<pdfrwt beam="1">  1        1 0.43703080E-01 0.94716155E+02</pdfrwt>
<pdfrwt beam="2">  1       -1 0.19680481E-02 0.94716155E+02</pdfrwt>
<totfact> 0.57660199E+04</totfact>
</mgrwt>
</event>
<event>
 6    1  0.2995420E-002  0.9913993E+02  0.7546771E-02  0.1391215E+00
          3   -1    0    0  501    0  0.00000000000E+00  0.00000000000E+00  0.46622176015E+03  0.46622176015E+03  0.00000000000E+00 0. -1.
         -3   -1    0    0    0  501 -0.00000000000E+00 -0.00000000000E+00 -0.82558775766E+01  0.82558775766E+01  0.00000000000E+00 0.  1.
         23    2    1    2    0    0 -0.58145165145E+01  0.13590269561E+02  0.44086016390E+03  0.45186990365E+03  0.98031738107E+02 0.  0.
         13    1    3    3    0    0 -0.18807847053E+02  0.27535615752E+02  0.47433174773E+02  0.57981473892E+02  0.00000000000E+00 0.  1.
        -13    1    3    3    0    0  0.12993330539E+02 -0.13945346191E+02  0.39342698913E+03  0.39388842976E+03  0.00000000000E+00 0. -1.
         22    1    1    2    0    0  0.58145165145E+01 -0.13590269561E+02  0.17105718674E+02  0.22607734084E+02  0.00000000000E+00 0. -1.
<mgrwt>
<rscale>  0 0.61605415E+02</rscale>
<asrwt>0</asrwt>
<pdfrwt beam="1">  1        3 0.71726404E-01 0.99139930E+02</pdfrwt>
<pdfrwt beam="2">  1       -3 0.12701354E-02 0.99139930E+02</pdfrwt>
<totfact> 0.76420113E+03</totfact>
</mgrwt>
</event>
<event>
 6    1  0.2995420E-002  0.1088906E+03  0.7546771E-02  0.1294730E+00
          4   -1    0    0  501    0  0.00000000000E+00  0.00000000000E+00  0.81502040380E+02  0.81502040380E+02  0.00000000000E+00 0. -1.
         -4   -1    0    0    0  501 -0.00000000000E+00 -0.00000000000E+00 -0.10646114797E+03  0.10646114797E+03  0.00000000000E+00 0.  1.
         23    2    1    2    0    0 -0.88419085794E+01 -0.58375172987E+02  0.23717438879E+02  0.11144360690E+03  0.91494920319E+02 0.  0.
         13    1    3    3    0    0  0.24119604385E+01  0.77439430754E+01  0.41314833815E+02  0.42103464236E+02  0.00000000000E+00 0. -1.
        -13    1    3    3    0    0 -0.11253869018E+02 -0.66119116062E+02 -0.17597394936E+02  0.69340142668E+02  0.00000000000E+00 0.  1.
         22    1    1    2    0    0  0.88419085794E+01  0.58375172987E+02 -0.48676546465E+02  0.76519581444E+02  0.00000000000E+00 0.  1.
<mgrwt>
<rscale>  0 0.93439649E+02</rscale>
<asrwt>0</asrwt>
<pdfrwt beam="1">  1        4 0.12538775E-01 0.10889059E+03</pdfrwt>
<pdfrwt beam="2">  1       -4 0.16378638E-01 0.10889059E+03</pdfrwt>
<totfact> 0.25853960E+03</totfact>
</mgrwt>
</event>
<event>
 6    1  0.2995420E-002  0.9065298E+02  0.7546771E-02  0.1396885E+00
          2   -1    0    0  501    0  0.00000000000E+00  0.00000000000E+00  0.41216205641E+03  0.41216205641E+03  0.00000000000E+00 0. -1.
         -2   -1    0    0    0  501 -0.00000000000E+00 -0.00000000000E+00 -0.81926338995E+01  0.81926338995E+01  0.00000000000E+00 0.  1.
         23    2    1    2    0    0 -0.70069893853E+01  0.16210768039E+02  0.37950451588E+03  0.39018154733E+03  0.88916114427E+02 0.  0.
         11    1    3    3    0    0  0.40197890982E+02  0.14871841316E+02  0.20246364255E+03  0.20695064305E+03  0.00000000000E+00 0. -1.
        -11    1    3    3    0    0 -0.47204880368E+02  0.13389267239E+01  0.17704087332E+03  0.18323090428E+03  0.00000000000E+00 0.  1.
         22    1    1    2    0    0  0.70069893853E+01 -0.16210768039E+02  0.24464906631E+02  0.30173142978E+02  0.00000000000E+00 0. -1.
<mgrwt>
<rscale>  0 0.60226302E+02</rscale>
<asrwt>0</asrwt>
<pdfrwt beam="1">  1        2 0.63409531E-01 0.90652977E+02</pdfrwt>
<pdfrwt beam="2">  1       -2 0.12604055E-02 0.90652977E+02</pdfrwt>
<totfact> 0.10142040E+05</totfact>
</mgrwt>
</event>
<event>
 6    1  0.2995420E-002  0.9152877E+02  0.7546771E-02  0.1415273E+00
         -2   -1    0    0    0  501 -0.00000000000E+00  0.00000000000E+00  0.68273489278E+02  0.68273489278E+02  0.00000000000E+00 0.  1.
          2   -1    0    0  501    0  0.00000000000E+00 -0.00000000000E+00 -0.69343735093E+02  0.69343735093E+02  0.00000000000E+00 0. -1.
         23    2    1    2    0    0  0.46768231448E+01  0.11975770150E+02 -0.37554798546E+02  0.98933709362E+02  0.90621323147E+02 0.  0.
         11    1    3    3    0    0 -0.28986575542E+02  0.35914053039E+02 -0.51617144656E+01  0.46440112657E+02  0.00000000000E+00 0.  1.
        -11    1    3    3    0    0  0.33663398687E+02 -0.23938282889E+02 -0.32393084080E+02  0.52493596705E+02  0.00000000000E+00 0. -1.
         22    1    1    2    0    0 -0.46768231448E+01 -0.11975770150E+02  0.36484552731E+02  0.38683515009E+02  0.00000000000E+00 0.  1.
<mgrwt>
<rscale>  0 0.56033741E+02</rscale>
<asrwt>0</asrwt>
<pdfrwt beam="1">  1        2 0.10668267E-01 0.91528771E+02</pdfrwt>
<pdfrwt beam="2">  1       -2 0.10503614E-01 0.91528771E+02</pdfrwt>
<totfact> 0.31676713E+04</totfact>
</mgrwt>
</event>
<event>
 6    1  0.2995420E-002  0.9074809E+02  0.7546771E-02  0.1427083E+00
         -2   -1    0    0    0  501 -0.00000000000E+00  0.00000000000E+00  0.36246988292E+01  0.36246988292E+01  0.00000000000E+00 0.  1.
          2   -1    0    0  501    0  0.00000000000E+00 -0.00000000000E+00 -0.76700056016E+03  0.76700056016E+03  0.00000000000E+00 0. -1.
         23    2    1    2    0    0  0.10320485892E+02  0.38162576831E+01 -0.72640956403E+03  0.73205605641E+03  0.90078514393E+02 0.  0.
         11    1    3    3    0    0 -0.22761247637E+02 -0.20183592496E+02 -0.10538204987E+03  0.10968513224E+03  0.00000000000E+00 0.  1.
        -11    1    3    3    0    0  0.33081733530E+02  0.23999850179E+02 -0.62102751416E+03  0.62237092417E+03  0.00000000000E+00 0. -1.
         22    1    1    2    0    0 -0.10320485892E+02 -0.38162576831E+01 -0.36966297302E+02  0.38569202584E+02  0.00000000000E+00 0.  1.
<mgrwt>
<rscale>  0 0.53550123E+02</rscale>
<asrwt>0</asrwt>
<pdfrwt beam="1">  1        2 0.11799999E+00 0.90748085E+02</pdfrwt>
<pdfrwt beam="2">  1       -2 0.55764643E-03 0.90748085E+02</pdfrwt>
<totfact> 0.16078009E+05</totfact>
</mgrwt>
</event>
<event>
 6    1  0.2995420E-002  0.9268579E+02  0.7546771E-02  0.1414935E+00
         -1   -1    0    0    0  501 -0.00000000000E+00  0.00000000000E+00  0.51589164615E+01  0.51589164615E+01  0.00000000000E+00 0.  1.
          1   -1    0    0  501    0  0.00000000000E+00 -0.00000000000E+00 -0.53947738357E+03  0.53947738357E+03  0.00000000000E+00 0. -1.
         23    2    1    2    0    0  0.11912851913E+02  0.36037225001E+01 -0.48457164561E+03  0.49335619564E+03  0.91846356469E+02 0.  0.
         11    1    3    3    0    0 -0.31272487618E+02 -0.22339778344E+02 -0.28235085175E+03  0.28495444840E+03  0.00000000000E+00 0. -1.
        -11    1    3    3    0    0  0.43185339531E+02  0.25943500844E+02 -0.20222079386E+03  0.20840174725E+03  0.00000000000E+00 0.  1.
         22    1    1    2    0    0 -0.11912851913E+02 -0.36037225001E+01 -0.49746821497E+02  0.51280104384E+02  0.00000000000E+00 0. -1.
<mgrwt>
<rscale>  0 0.56107033E+02</rscale>
<asrwt>0</asrwt>
<pdfrwt beam="1">  1        1 0.82996538E-01 0.92685792E+02</pdfrwt>
<pdfrwt beam="2">  1       -1 0.79367929E-03 0.92685792E+02</pdfrwt>
<totfact> 0.93399784E+04</totfact>
</mgrwt>
</event>
<event>
 6    1  0.2995420E-002  0.9582113E+02  0.7546771E-02  0.1395788E+00
          2   -1    0    0  501    0  0.00000000000E+00  0.00000000000E+00  0.42257517946E+03  0.42257517946E+03  0.00000000000E+00 0. -1.
         -2   -1    0    0    0  501 -0.00000000000E+00 -0.00000000000E+00 -0.24387630423E+02  0.24387630423E+02  0.00000000000E+00 0.  1.
         23    2    1    2    0    0 -0.14895939944E+02  0.31112137662E+01  0.41404308168E+03  0.42498630894E+03  0.94605077148E+02 0.  0.
         11    1    3    3    0    0  0.14952335413E+02 -0.70609975175E+01  0.37232033252E+03  0.37268734889E+03  0.00000000000E+00 0. -1.
        -11    1    3    3    0    0 -0.29848275358E+02  0.10172211284E+02  0.41722749163E+02  0.52298960047E+02  0.00000000000E+00 0.  1.
         22    1    1    2    0    0  0.14895939944E+02 -0.31112137662E+01 -0.15855532648E+02  0.21976500938E+02  0.00000000000E+00 0.  1.
<mgrwt>
<rscale>  0 0.60489633E+02</rscale>
<asrwt>0</asrwt>
<pdfrwt beam="1">  1        2 0.65011561E-01 0.95821132E+02</pdfrwt>
<pdfrwt beam="2">  1       -2 0.37519434E-02 0.95821132E+02</pdfrwt>
<totfact> 0.20628830E+04</totfact>
</mgrwt>
</event>
<event>
 6    1  0.2995420E-002  0.9272576E+02  0.7546771E-02  0.1418557E+00
          2   -1    0    0  501    0  0.00000000000E+00  0.00000000000E+00  0.75423918985E+02  0.75423918985E+02  0.00000000000E+00 0. -1.
         -2   -1    0    0    0  501 -0.00000000000E+00 -0.00000000000E+00 -0.82967986042E+02  0.82967986042E+02  0.00000000000E+00 0.  1.
         23    2    1    2    0    0 -0.11702998118E+02  0.10862017980E+01  0.46045220574E+02  0.10352887788E+03  0.91977857214E+02 0.  0.
         11    1    3    3    0    0  0.37632560814E+01 -0.39561429123E+02  0.44986387987E+02  0.60025360263E+02  0.00000000000E+00 0. -1.
        -11    1    3    3    0    0 -0.15466254199E+02  0.40647630921E+02  0.10588325862E+01  0.43503517615E+02  0.00000000000E+00 0.  1.
         22    1    1    2    0    0  0.11702998118E+02 -0.10862017980E+01 -0.53589287631E+02  0.54863027150E+02  0.00000000000E+00 0. -1.
<mgrwt>
<rscale>  0 0.55327395E+02</rscale>
<asrwt>0</asrwt>
<pdfrwt beam="1">  1        2 0.11603680E-01 0.92725758E+02</pdfrwt>
<pdfrwt beam="2">  1       -2 0.12764306E-01 0.92725758E+02</pdfrwt>
<totfact> 0.21098143E+04</totfact>
</mgrwt>
</event>
<event>
 6    1  0.2995420E-002  0.9376972E+02  0.7546771E-02  0.1393464E+00
          1   -1    0    0  501    0  0.00000000000E+00  0.00000000000E+00  0.17822317295E+03  0.17822317295E+03  0.00000000000E+00 0. -1.
         -1   -1    0    0    0  501 -0.00000000000E+00 -0.00000000000E+00 -0.17199865201E+02  0.17199865201E+02  0.00000000000E+00 0.  1.
         23    2    1    2    0    0  0.14080893768E+02  0.92581107173E+01  0.13323741438E+03  0.16292626826E+03  0.92243027452E+02 0.  0.
         11    1    3    3    0    0  0.23561880901E+02  0.14735993297E+02  0.14454127077E+03  0.14718862282E+03  0.00000000000E+00 0. -1.
        -11    1    3    3    0    0 -0.94809871330E+01 -0.54778825797E+01 -0.11303856393E+02  0.15737645438E+02  0.00000000000E+00 0.  1.
         22    1    1    2    0    0 -0.14080893768E+02 -0.92581107173E+01  0.27785893369E+02  0.32496769896E+02  0.00000000000E+00 0.  1.
<mgrwt>
<rscale>  0 0.61053242E+02</rscale>
<asrwt>0</asrwt>
<pdfrwt beam="1">  1        1 0.27418948E-01 0.93769720E+02</pdfrwt>
<pdfrwt beam="2">  1       -1 0.26461332E-02 0.93769720E+02</pdfrwt>
<totfact> 0.66705747E+04</totfact>
</mgrwt>
</event>
<event>
 6    1  0.2995420E-002  0.9386034E+02  0.7546771E-02  0.1425945E+00
          1   -1    0    0  501    0  0.00000000000E+00  0.00000000000E+00  0.21037122512E+03  0.21037122512E+03  0.00000000000E+00 0. -1.
         -1   -1    0    0    0  501 -0.00000000000E+00 -0.00000000000E+00 -0.15299318709E+02  0.15299318709E+02  0.00000000000E+00 0.  1.
         23    2    1    2    0    0 -0.61415288382E+01  0.80417584909E+01  0.19397786220E+03  0.21549286291E+03  0.93313314627E+02 0.  0.
         11    1    3    3    0    0  0.23912425782E+02 -0.31991784131E+02  0.56559372243E+02  0.69240457445E+02  0.00000000000E+00 0. -1.
        -11    1    3    3    0    0 -0.30053954620E+02  0.40033542622E+02  0.13741848995E+03  0.14625240546E+03  0.00000000000E+00 0.  1.
         22    1    1    2    0    0  0.61415288382E+01 -0.80417584909E+01  0.10940442111E+01  0.10177680916E+02  0.00000000000E+00 0.  1.
<mgrwt>
<rscale>  0 0.53782731E+02</rscale>
<asrwt>0</asrwt>
<pdfrwt beam="1">  1        1 0.32364802E-01 0.93860337E+02</pdfrwt>
<pdfrwt beam="2">  1       -1 0.23537415E-02 0.93860337E+02</pdfrwt>
<totfact> 0.64361393E+04</totfact>
</mgrwt>
</event>
<event>
 6    1  0.2995420E-002  0.9237995E+02  0.7546771E-02  0.1426201E+00
          2   -1    0    0  501    0  0.00000000000E+00  0.00000000000E+00  0.69357099710E+03  0.69357099710E+03  0.00000000000E+00 0. -1.
         -2   -1    0    0    0  501 -0.00000000000E+00 -0.00000000000E+00 -0.56592645316E+01  0.56592645316E+01  0.00000000000E+00 0.  1.
         23    2    1    2    0    0 -0.10539175733E+02 -0.82821449883E+00  0.67941662891E+03  0.68566829457E+03  0.91773059102E+02 0.  0.
         11    1    3    3    0    0  0.28074033071E+02  0.27044167289E+02  0.19111280195E+03  0.19504779257E+03  0.00000000000E+00 0.  1.
        -11    1    3    3    0    0 -0.38613208804E+02 -0.27872381788E+02  0.48830382696E+03  0.49062050200E+03  0.00000000000E+00 0. -1.
         22    1    1    2    0    0  0.10539175733E+02  0.82821449883E+00  0.84951036608E+01  0.13561967062E+02  0.00000000000E+00 0.  1.
<mgrwt>
<rscale>  0 0.53730287E+02</rscale>
<asrwt>0</asrwt>
<pdfrwt beam="1">  1        2 0.10670316E+00 0.92379947E+02</pdfrwt>
<pdfrwt beam="2">  1       -2 0.87065663E-03 0.92379947E+02</pdfrwt>
<totfact> 0.96966617E+04</totfact>
</mgrwt>
</event>
<event>
 6    1  0.2995420E-002  0.1039938E+03  0.7546771E-02  0.1314275E+00
          2   -1    0    0  501    0  0.00000000000E+00  0.00000000000E+00  0.62385200815E+03  0.62385200815E+03  0.00000000000E+00 0. -1.
         -2   -1    0    0    0  501 -0.00000000000E+00 -0.00000000000E+00 -0.27743209714E+02  0.27743209714E+02  0.00000000000E+00 0.  1.
         23    2    1    2    0    0 -0.15488019419E+02 -0.44789737180E+02  0.59517710591E+03  0.60419408547E+03  0.92567306378E+02 0.  0.
         13    1    3    3    0    0 -0.70805218988E+01 -0.71002991957E+01  0.25984773627E+01  0.10358577298E+02  0.00000000000E+00 0.  1.
        -13    1    3    3    0    0 -0.84074975201E+01 -0.37689437984E+02  0.59257862855E+03  0.59383550817E+03  0.00000000000E+00 0. -1.
         22    1    1    2    0    0  0.15488019419E+02  0.44789737180E+02  0.93169253121E+00  0.47401132403E+02  0.00000000000E+00 0.  1.
<mgrwt>
<rscale>  0 0.85444028E+02</rscale>
<asrwt>0</asrwt>
<pdfrwt beam="1">  1        2 0.95977222E-01 0.10399378E+03</pdfrwt>
<pdfrwt beam="2">  1       -2 0.42681866E-02 0.10399378E+03</pdfrwt>
<totfact> 0.11227835E+04</totfact>
</mgrwt>
</event>
<event>
 6    1  0.2995420E-002  0.9335324E+02  0.7546771E-02  0.1380258E+00
         -1   -1    0    0    0  501 -0.00000000000E+00  0.00000000000E+00  0.38350653443E+03  0.38350653443E+03  0.00000000000E+00 0.  1.
          1   -1    0    0  501    0  0.00000000000E+00 -0.00000000000E+00 -0.85640810745E+01  0.85640810745E+01  0.00000000000E+00 0. -1.
         23    2    1    2    0    0  0.18910865554E+02 -0.94427721613E+01  0.29824968938E+03  0.31251832561E+03  0.90928762454E+02 0.  0.
         13    1    3    3    0    0  0.20363559107E+02  0.39056816654E+02  0.12183581157E+03  0.12955336525E+03  0.00000000000E+00 0.  1.
        -13    1    3    3    0    0 -0.14526935528E+01 -0.48499588815E+02  0.17641387781E+03  0.18296496035E+03  0.00000000000E+00 0. -1.
         22    1    1    2    0    0 -0.18910865554E+02  0.94427721613E+01  0.76692763976E+02  0.79552289900E+02  0.00000000000E+00 0.  1.
<mgrwt>
<rscale>  0 0.64396101E+02</rscale>
<asrwt>0</asrwt>
<pdfrwt beam="1">  1        1 0.13175512E-02 0.93353236E+02</pdfrwt>
<pdfrwt beam="2">  1       -1 0.59000992E-01 0.93353236E+02</pdfrwt>
<totfact> 0.28958045E+04</totfact>
</mgrwt>
</event>
<event>
 6    1  0.2995420E-002  0.9141205E+02  0.7546771E-02  0.1418914E+00
          1   -1    0    0  501    0  0.00000000000E+00  0.00000000000E+00  0.60627867746E+03  0.60627867746E+03  0.00000000000E+00 0. -1.
         -1   -1    0    0    0  501 -0.00000000000E+00 -0.00000000000E+00 -0.13548253578E+02  0.13548253578E+02  0.00000000000E+00 0.  1.
         23    2    1    2    0    0  0.99644189561E+01  0.70392827150E+01  0.59912093634E+03  0.60605450222E+03  0.90594272191E+02 0.  0.
         11    1    3    3    0    0  0.61587342281E+01 -0.29541831757E+02  0.48948065476E+03  0.49040999298E+03  0.00000000000E+00 0. -1.
        -11    1    3    3    0    0  0.38056847281E+01  0.36581114472E+02  0.10964028158E+03  0.11564450923E+03  0.00000000000E+00 0.  1.
         22    1    1    2    0    0 -0.99644189561E+01 -0.70392827150E+01 -0.63905124529E+01  0.13772428823E+02  0.00000000000E+00 0.  1.
<mgrwt>
<rscale>  0 0.55251360E+02</rscale>
<asrwt>0</asrwt>
<pdfrwt beam="1">  1        1 0.93273621E-01 0.91412052E+02</pdfrwt>
<pdfrwt beam="2">  1       -1 0.20843472E-02 0.91412052E+02</pdfrwt>
<totfact> 0.20343982E+04</totfact>
</mgrwt>
</event>
<event>
 6    1  0.2995420E-002  0.9137075E+02  0.7546771E-02  0.1402681E+00
         -1   -1    0    0    0  501 -0.00000000000E+00  0.00000000000E+00  0.17809262016E+02  0.17809262016E+02  0.00000000000E+00 0.  1.
          1   -1    0    0  501    0  0.00000000000E+00 -0.00000000000E+00 -0.27409194626E+03  0.27409194626E+03  0.00000000000E+00 0. -1.
         23    2    1    2    0    0  0.97347191749E+01  0.12361438408E+02 -0.26012399016E+03  0.27570474113E+03  0.90005800422E+02 0.  0.
         13    1    3    3    0    0 -0.11767369009E+02  0.28034397585E+02 -0.24106594289E+03  0.24297569270E+03  0.00000000000E+00 0. -1.
        -13    1    3    3    0    0  0.21502088184E+02 -0.15672959176E+02 -0.19058047269E+02  0.32729048433E+02  0.00000000000E+00 0.  1.
         22    1    1    2    0    0 -0.97347191749E+01 -0.12361438408E+02  0.38413059108E+01  0.16196467147E+02  0.00000000000E+00 0.  1.
<mgrwt>
<rscale>  0 0.58859644E+02</rscale>
<asrwt>0</asrwt>
<pdfrwt beam="1">  1        1 0.42167991E-01 0.91370750E+02</pdfrwt>
<pdfrwt beam="2">  1       -1 0.27398865E-02 0.91370750E+02</pdfrwt>
<totfact> 0.37323222E+04</totfact>
</mgrwt>
</event>
<event>
 6    1  0.2995420E-002  0.9224150E+02  0.7546771E-02  0.1408523E+00
          2   -1    0    0  501    0  0.00000000000E+00  0.00000000000E+00  0.18860508237E+03  0.18860508237E+03  0.00000000000E+00 0.  1.
         -2   -1    0    0    0  501 -0.00000000000E+00 -0.00000000000E+00 -0.19546715721E+02  0.19546715721E+02  0.00000000000E+00 0. -1.
         23    2    1    2    0    0  0.13534576687E+02 -0.33873469392E+01  0.17077527539E+03  0.19409453445E+03  0.91180232137E+02 0.  0.
         11    1    3    3    0    0  0.38843127770E+02 -0.32867449757E+02  0.11849258161E+03  0.12895561145E+03  0.00000000000E+00 0. -1.
        -11    1    3    3    0    0 -0.25308551083E+02  0.29480102818E+02  0.52282693781E+02  0.65138922996E+02  0.00000000000E+00 0.  1.
         22    1    1    2    0    0 -0.13534576687E+02  0.33873469392E+01 -0.17169087450E+01  0.14057263639E+02  0.00000000000E+00 0.  1.
<mgrwt>
<rscale>  0 0.57524656E+02</rscale>
<asrwt>0</asrwt>
<pdfrwt beam="1">  1        2 0.29016165E-01 0.92241496E+02</pdfrwt>
<pdfrwt beam="2">  1       -2 0.30071872E-02 0.92241496E+02</pdfrwt>
<totfact> 0.66393361E+04</totfact>
</mgrwt>
</event>
<event>
 6    1  0.2995420E-002  0.9201176E+02  0.7546771E-02  0.1417421E+00
         -1   -1    0    0    0  501 -0.00000000000E+00  0.00000000000E+00  0.12212242488E+02  0.12212242488E+02  0.00000000000E+00 0.  1.
          1   -1    0    0  501    0  0.00000000000E+00 -0.00000000000E+00 -0.32011553849E+03  0.32011553849E+03  0.00000000000E+00 0. -1.
         23    2    1    2    0    0 -0.10545799582E+02  0.62163073847E+01 -0.30649156024E+03  0.32000506357E+03  0.91193792804E+02 0.  0.
         11    1    3    3    0    0  0.33617346164E+02 -0.17868985488E+02 -0.89535201623E+02  0.97293262537E+02  0.00000000000E+00 0. -1.
        -11    1    3    3    0    0 -0.44163145746E+02  0.24085292873E+02 -0.21695635862E+03  0.22271180104E+03  0.00000000000E+00 0.  1.
         22    1    1    2    0    0  0.10545799582E+02 -0.62163073847E+01 -0.14117357566E+01  0.12322717402E+02  0.00000000000E+00 0.  1.
<mgrwt>
<rscale>  0 0.55570193E+02</rscale>
<asrwt>0</asrwt>
<pdfrwt beam="1">  1        1 0.49248540E-01 0.92011761E+02</pdfrwt>
<pdfrwt beam="2">  1       -1 0.18788067E-02 0.92011761E+02</pdfrwt>
<totfact> 0.53030247E+04</totfact>
</mgrwt>
</event>
<event>
 6    1  0.2995420E-002  0.1212918E+03  0.7546771E-02  0.1262867E+00
         -2   -1    0    0    0  501 -0.00000000000E+00  0.00000000000E+00  0.10295138743E+03  0.10295138743E+03  0.00000000000E+00 0.  1.
          2   -1    0    0  501    0  0.00000000000E+00 -0.00000000000E+00 -0.12863774404E+03  0.12863774404E+03  0.00000000000E+00 0. -1.
         23    2    1    2    0    0  0.78435027938E+02 -0.64735930715E+00 -0.71455142675E+02  0.14077473581E+03  0.92516031838E+02 0.  0.
         11    1    3    3    0    0 -0.89228570782E+01  0.99253565242E+01 -0.47838363499E+02  0.49665270591E+02  0.00000000000E+00 0. -1.
        -11    1    3    3    0    0  0.87357885016E+02 -0.10572715831E+02 -0.23616779175E+02  0.91109465223E+02  0.00000000000E+00 0.  1.
         22    1    1    2    0    0 -0.78435027938E+02  0.64735930715E+00  0.45768786062E+02  0.90814395661E+02  0.00000000000E+00 0.  1.
<mgrwt>
<rscale>  0 0.10876888E+03</rscale>
<asrwt>0</asrwt>
<pdfrwt beam="1">  1        2 0.19790422E-01 0.12129175E+03</pdfrwt>
<pdfrwt beam="2">  1       -2 0.15838675E-01 0.12129175E+03</pdfrwt>
<totfact> 0.82228283E+03</totfact>
</mgrwt>
</event>
<event>
 6    1  0.2995420E-002  0.9360671E+02  0.7546771E-02  0.1386578E+00
          2   -1    0    0  501    0  0.00000000000E+00  0.00000000000E+00  0.14035146152E+04  0.14035146152E+04  0.00000000000E+00 0. -1.
         -2   -1    0    0    0  501 -0.00000000000E+00 -0.00000000000E+00 -0.32359525005E+01  0.32359525005E+01  0.00000000000E+00 0.  1.
         23    2    1    2    0    0  0.38879620270E+01 -0.18518493782E+02  0.13463207903E+04  0.13495710009E+04  0.91674234862E+02 0.  0.
         11    1    3    3    0    0 -0.36436509085E+02 -0.19679970023E+02  0.10085274606E+04  0.10093773126E+04  0.00000000000E+00 0. -1.
        -11    1    3    3    0    0  0.40324471112E+02  0.11614762416E+01  0.33779332965E+03  0.34019368829E+03  0.00000000000E+00 0.  1.
         22    1    1    2    0    0 -0.38879620270E+01  0.18518493782E+02  0.53957872436E+02  0.57179566791E+02  0.00000000000E+00 0.  1.
<mgrwt>
<rscale>  0 0.62765837E+02</rscale>
<asrwt>0</asrwt>
<pdfrwt beam="1">  1        2 0.21592484E+00 0.93606710E+02</pdfrwt>
<pdfrwt beam="2">  1       -2 0.49783997E-03 0.93606710E+02</pdfrwt>
<totfact> 0.81327116E+04</totfact>
</mgrwt>
</event>
<event>
 6    1  0.2995420E-002  0.9629916E+02  0.7546771E-02  0.1361440E+00
         -1   -1    0    0    0  501 -0.00000000000E+00  0.00000000000E+00  0.18973773283E+02  0.18973773283E+02  0.00000000000E+00 0.  1.
          1   -1    0    0  501    0  0.00000000000E+00 -0.00000000000E+00 -0.22850008826E+03  0.22850008826E+03  0.00000000000E+00 0. -1.
         23    2    1    2    0    0  0.20337075505E+02 -0.16652273362E+02 -0.19490238471E+03  0.21739472950E+03  0.92642506427E+02 0.  0.
         13    1    3    3    0    0  0.54211375776E+01  0.17136926987E+02 -0.17405853104E+03  0.17498409993E+03  0.00000000000E+00 0. -1.
        -13    1    3    3    0    0  0.14915937928E+02 -0.33789200349E+02 -0.20843853675E+02  0.42410629570E+02  0.00000000000E+00 0.  1.
         22    1    1    2    0    0 -0.20337075505E+02  0.16652273362E+02 -0.14623930257E+02  0.30079132042E+02  0.00000000000E+00 0. -1.
<mgrwt>
<rscale>  0 0.69605471E+02</rscale>
<asrwt>0</asrwt>
<pdfrwt beam="1">  1        1 0.35153860E-01 0.96299163E+02</pdfrwt>
<pdfrwt beam="2">  1       -1 0.29190420E-02 0.96299163E+02</pdfrwt>
<totfact> 0.42831785E+04</totfact>
</mgrwt>
</event>
<event>
 6    1  0.2995420E-002  0.9297360E+02  0.7546771E-02  0.1406229E+00
         -2   -1    0    0    0  501 -0.00000000000E+00  0.00000000000E+00  0.71452872218E+01  0.71452872218E+01  0.00000000000E+00 0.  1.
          2   -1    0    0  501    0  0.00000000000E+00 -0.00000000000E+00 -0.48965330436E+03  0.48965330436E+03  0.00000000000E+00 0. -1.
         23    2    1    2    0    0 -0.12274383229E+02 -0.69866926629E+01 -0.46548591143E+03  0.47468012779E+03  0.91894589694E+02 0.  0.
         13    1    3    3    0    0 -0.22654769000E+02  0.30206283334E+02 -0.36632972527E+03  0.36827045188E+03  0.00000000000E+00 0. -1.
        -13    1    3    3    0    0  0.10380385771E+02 -0.37192975997E+02 -0.99156186163E+02  0.10640967591E+03  0.00000000000E+00 0.  1.
         22    1    1    2    0    0  0.12274383229E+02  0.69866926629E+01 -0.17022105707E+02  0.22118463796E+02  0.00000000000E+00 0. -1.
<mgrwt>
<rscale>  0 0.58043770E+02</rscale>
<asrwt>0</asrwt>
<pdfrwt beam="1">  1        2 0.75331272E-01 0.92973598E+02</pdfrwt>
<pdfrwt beam="2">  1       -2 0.10992750E-02 0.92973598E+02</pdfrwt>
<totfact> 0.10287710E+05</totfact>
</mgrwt>
</event>
<event>
 6    1  0.2995420E-002  0.8883643E+02  0.7546771E-02  0.1379573E+00
          1   -1    0    0  501    0  0.00000000000E+00  0.00000000000E+00  0.46241389395E+02  0.46241389395E+02  0.00000000000E+00 0. -1.
         -1   -1    0    0    0  501 -0.00000000000E+00 -0.00000000000E+00 -0.69835585687E+02  0.69835585687E+02  0.00000000000E+00 0.  1.
         23    2    1    2    0    0  0.24802940520E+02  0.18475051502E+00 -0.19187337538E+02  0.90884904996E+02  0.85303528902E+02 0.  0.
         13    1    3    3    0    0  0.33465231930E+02 -0.34086338833E+02  0.50356440693E+01  0.48032884093E+02  0.00000000000E+00 0. -1.
        -13    1    3    3    0    0 -0.86622914099E+01  0.34271089348E+02 -0.24222981607E+02  0.42852020903E+02  0.00000000000E+00 0.  1.
         22    1    1    2    0    0 -0.24802940520E+02 -0.18475051502E+00 -0.44068587543E+01  0.25192070087E+02  0.00000000000E+00 0.  1.
<mgrwt>
<rscale>  0 0.64576149E+02</rscale>
<asrwt>0</asrwt>
<pdfrwt beam="1">  1        1 0.71140599E-02 0.88836434E+02</pdfrwt>
<pdfrwt beam="2">  1       -1 0.10743936E-01 0.88836434E+02</pdfrwt>
<totfact> 0.47699646E+04</totfact>
</mgrwt>
</event>
<event>
 6    1  0.2995420E-002  0.9612254E+02  0.7546771E-02  0.1403932E+00
         -2   -1    0    0    0  501 -0.00000000000E+00  0.00000000000E+00  0.21163841069E+03  0.21163841069E+03  0.00000000000E+00 0.  1.
          2   -1    0    0  501    0  0.00000000000E+00 -0.00000000000E+00 -0.16931664638E+02  0.16931664638E+02  0.00000000000E+00 0. -1.
         23    2    1    2    0    0 -0.84437581623E+01 -0.10211478272E+02  0.12536897814E+03  0.15797760123E+03  0.95204886795E+02 0.  0.
         13    1    3    3    0    0 -0.27071989041E+02  0.17641826945E+02  0.11971030327E+03  0.12399469084E+03  0.00000000000E+00 0.  1.
        -13    1    3    3    0    0  0.18628230878E+02 -0.27853305217E+02  0.56586748756E+01  0.33982910390E+02  0.00000000000E+00 0. -1.
         22    1    1    2    0    0  0.84437581623E+01  0.10211478272E+02  0.69337767908E+02  0.70592474095E+02  0.00000000000E+00 0.  1.
<mgrwt>
<rscale>  0 0.58570053E+02</rscale>
<asrwt>0</asrwt>
<pdfrwt beam="1">  1        2 0.26048716E-02 0.96122535E+02</pdfrwt>
<pdfrwt beam="2">  1       -2 0.32559754E-01 0.96122535E+02</pdfrwt>
<totfact> 0.29368124E+04</totfact>
</mgrwt>
</event>
<event>
 6    1  0.2995420E-002  0.9408560E+02  0.7546771E-02  0.1407016E+00
         -2   -1    0    0    0  501 -0.00000000000E+00  0.00000000000E+00  0.11328553063E+03  0.11328553063E+03  0.00000000000E+00 0.  1.
          2   -1    0    0  501    0  0.00000000000E+00 -0.00000000000E+00 -0.42147511177E+02  0.42147511177E+02  0.00000000000E+00 0. -1.
         23    2    1    2    0    0 -0.64109593239E+01 -0.11837066338E+02  0.12077294397E+02  0.94857586521E+02  0.93117582345E+02 0.  0.
         13    1    3    3    0    0  0.69018112593E+01 -0.49606441502E+02  0.20183965012E+02  0.53998393316E+02  0.00000000000E+00 0.  1.
        -13    1    3    3    0    0 -0.13312770583E+02  0.37769375164E+02 -0.81066706156E+01  0.40859193205E+02  0.00000000000E+00 0. -1.
         22    1    1    2    0    0  0.64109593239E+01  0.11837066338E+02  0.59060725058E+02  0.60575455288E+02  0.00000000000E+00 0.  1.
<mgrwt>
<rscale>  0 0.57865153E+02</rscale>
<asrwt>0</asrwt>
<pdfrwt beam="1">  1        2 0.64842325E-02 0.94085603E+02</pdfrwt>
<pdfrwt beam="2">  1       -2 0.17428543E-01 0.94085603E+02</pdfrwt>
<totfact> 0.26124449E+04</totfact>
</mgrwt>
</event>
<event>
 6    1  0.2995420E-002  0.9375776E+02  0.7546771E-02  0.1368808E+00
         -2   -1    0    0    0  501 -0.00000000000E+00  0.00000000000E+00  0.94466715889E+01  0.94466715889E+01  0.00000000000E+00 0.  1.
          2   -1    0    0  501    0  0.00000000000E+00 -0.00000000000E+00 -0.38422411566E+03  0.38422411566E+03  0.00000000000E+00 0. -1.
         23    2    1    2    0    0  0.22941851879E+02 -0.10396511312E+02 -0.26680064098E+03  0.28279515412E+03  0.90311135269E+02 0.  0.
         13    1    3    3    0    0 -0.17695830359E+02 -0.39825297114E+02 -0.12524361966E+03  0.13260905311E+03  0.00000000000E+00 0. -1.
        -13    1    3    3    0    0  0.40637682238E+02  0.29428785802E+02 -0.14155702132E+03  0.15018610101E+03  0.00000000000E+00 0.  1.
         22    1    1    2    0    0 -0.22941851879E+02  0.10396511312E+02 -0.10797680309E+03  0.11087563312E+03  0.00000000000E+00 0. -1.
<mgrwt>
<rscale>  0 0.67499752E+02</rscale>
<asrwt>0</asrwt>
<pdfrwt beam="1">  1        2 0.59111388E-01 0.93757758E+02</pdfrwt>
<pdfrwt beam="2">  1       -2 0.14533344E-02 0.93757758E+02</pdfrwt>
<totfact> 0.89588585E+04</totfact>
</mgrwt>
</event>
<event>
 6    1  0.2995420E-002  0.9169455E+02  0.7546771E-02  0.1396296E+00
         -1   -1    0    0    0  501 -0.00000000000E+00  0.00000000000E+00  0.39436807931E+02  0.39436807931E+02  0.00000000000E+00 0.  1.
          1   -1    0    0  501    0  0.00000000000E+00 -0.00000000000E+00 -0.98950662960E+02  0.98950662960E+02  0.00000000000E+00 0. -1.
         23    2    1    2    0    0 -0.38241633037E+01  0.16796030584E+02 -0.72435546984E+02  0.11685375334E+03  0.90061980522E+02 0.  0.
         13    1    3    3    0    0  0.31215105924E+02  0.36422865214E+02 -0.23109053075E+02  0.53245058759E+02  0.00000000000E+00 0.  1.
        -13    1    3    3    0    0 -0.35039269228E+02 -0.19626834629E+02 -0.49326493908E+02  0.63608694586E+02  0.00000000000E+00 0. -1.
         22    1    1    2    0    0  0.38241633037E+01 -0.16796030584E+02  0.12921691955E+02  0.21533717546E+02  0.00000000000E+00 0.  1.
<mgrwt>
<rscale>  0 0.60367473E+02</rscale>
<asrwt>0</asrwt>
<pdfrwt beam="1">  1        1 0.15223179E-01 0.91694554E+02</pdfrwt>
<pdfrwt beam="2">  1       -1 0.60672013E-02 0.91694554E+02</pdfrwt>
<totfact> 0.41650142E+04</totfact>
</mgrwt>
</event>
<event>
 6    1  0.2995420E-002  0.9218778E+02  0.7546771E-02  0.1418139E+00
          2   -1    0    0  501    0  0.00000000000E+00  0.00000000000E+00  0.89276460440E+02  0.89276460440E+02  0.00000000000E+00 0. -1.
         -2   -1    0    0    0  501 -0.00000000000E+00 -0.00000000000E+00 -0.40989634907E+02  0.40989634907E+02  0.00000000000E+00 0.  1.
         23    2    1    2    0    0  0.89090615292E+00 -0.12004486569E+02  0.62698497797E+02  0.11148851007E+03  0.91398494731E+02 0.  0.
         13    1    3    3    0    0 -0.25947826125E+02  0.29110204486E+02  0.11740359508E+02  0.40725050365E+02  0.00000000000E+00 0.  1.
        -13    1    3    3    0    0  0.26838732278E+02 -0.41114691055E+02  0.50958138290E+02  0.70763459701E+02  0.00000000000E+00 0. -1.
         22    1    1    2    0    0 -0.89090615292E+00  0.12004486569E+02 -0.14411672264E+02  0.18777585281E+02  0.00000000000E+00 0. -1.
<mgrwt>
<rscale>  0 0.55416499E+02</rscale>
<asrwt>0</asrwt>
<pdfrwt beam="1">  1        2 0.13734840E-01 0.92187777E+02</pdfrwt>
<pdfrwt beam="2">  1       -2 0.63060977E-02 0.92187777E+02</pdfrwt>
<totfact> 0.51325229E+04</totfact>
</mgrwt>
</event>
<event>
 6    1  0.2995420E-002  0.9983212E+02  0.7546771E-02  0.1374362E+00
          1   -1    0    0  501    0  0.00000000000E+00  0.00000000000E+00  0.40138186888E+03  0.40138186888E+03  0.00000000000E+00 0. -1.
         -1   -1    0    0    0  501 -0.00000000000E+00 -0.00000000000E+00 -0.16826391475E+02  0.16826391475E+02  0.00000000000E+00 0.  1.
         23    2    1    2    0    0  0.42925639432E+01 -0.18544836167E+02  0.38639598102E+03  0.39908433536E+03  0.98000589417E+02 0.  0.
         13    1    3    3    0    0 -0.65462919975E+01 -0.56797095334E+02  0.17890027862E+03  0.18781393363E+03  0.00000000000E+00 0. -1.
        -13    1    3    3    0    0  0.10838855941E+02  0.38252259167E+02  0.20749570240E+03  0.21127040173E+03  0.00000000000E+00 0.  1.
         22    1    1    2    0    0 -0.42925639432E+01  0.18544836167E+02 -0.18405036167E+01  0.19123924995E+02  0.00000000000E+00 0.  1.
<mgrwt>
<rscale>  0 0.65969292E+02</rscale>
<asrwt>0</asrwt>
<pdfrwt beam="1">  1        1 0.61751049E-01 0.99832122E+02</pdfrwt>
<pdfrwt beam="2">  1       -1 0.25886759E-02 0.99832122E+02</pdfrwt>
<totfact> 0.25592607E+04</totfact>
</mgrwt>
</event>
<event>
 6    1  0.2995420E-002  0.9173456E+02  0.7546771E-02  0.1422810E+00
          2   -1    0    0  501    0  0.00000000000E+00  0.00000000000E+00  0.93903809892E+02  0.93903809892E+02  0.00000000000E+00 0. -1.
         -2   -1    0    0    0  501 -0.00000000000E+00 -0.00000000000E+00 -0.40775777955E+02  0.40775777955E+02  0.00000000000E+00 0.  1.
         23    2    1    2    0    0  0.14336436736E+01 -0.11279774117E+02  0.69259197744E+02  0.11494375372E+03  0.91027146552E+02 0.  0.
         11    1    3    3    0    0 -0.44409043104E+02  0.22124878590E-01  0.30756486684E+02  0.54019673009E+02  0.00000000000E+00 0. -1.
        -11    1    3    3    0    0  0.45842686777E+02 -0.11301898996E+02  0.38502711060E+02  0.60924080714E+02  0.00000000000E+00 0.  1.
         22    1    1    2    0    0 -0.14336436736E+01  0.11279774117E+02 -0.16131165806E+02  0.19735834125E+02  0.00000000000E+00 0.  1.
<mgrwt>
<rscale>  0 0.54430809E+02</rscale>
<asrwt>0</asrwt>
<pdfrwt beam="1">  1        2 0.14446740E-01 0.91734563E+02</pdfrwt>
<pdfrwt beam="2">  1       -2 0.62731966E-02 0.91734563E+02</pdfrwt>
<totfact> 0.48739746E+04</totfact>
</mgrwt>
</event>
<event>
 6    1  0.2995420E-002  0.9226382E+02  0.7546771E-02  0.1380822E+00
          2   -1    0    0  501    0  0.00000000000E+00  0.00000000000E+00  0.24332251221E+03  0.24332251221E+03  0.00000000000E+00 0. -1.
         -2   -1    0    0    0  501 -0.00000000000E+00 -0.00000000000E+00 -0.14339780731E+02  0.14339780731E+02  0.00000000000E+00 0.  1.
         23    2    1    2    0    0 -0.92278022718E+01  0.19633929799E+02  0.20770461841E+03  0.22727476869E+03  0.89677022931E+02 0.  0.
         11    1    3    3    0    0 -0.22422227038E+02  0.26969243441E+02  0.20918608626E+03  0.21210590525E+03  0.00000000000E+00 0. -1.
        -11    1    3    3    0    0  0.13194424767E+02 -0.73353136419E+01 -0.14814678514E+01  0.15168863443E+02  0.00000000000E+00 0.  1.
         22    1    1    2    0    0  0.92278022718E+01 -0.19633929799E+02  0.21278113069E+02  0.30387524247E+02  0.00000000000E+00 0.  1.
<mgrwt>
<rscale>  0 0.64248069E+02</rscale>
<asrwt>0</asrwt>
<pdfrwt beam="1">  1        2 0.37434230E-01 0.92263817E+02</pdfrwt>
<pdfrwt beam="2">  1       -2 0.22061203E-02 0.92263817E+02</pdfrwt>
<totfact> 0.79312569E+04</totfact>
</mgrwt>
</event>
<event>
 6    1  0.2995420E-002  0.9526795E+02  0.7546771E-02  0.1406872E+00
         -2   -1    0    0    0  501 -0.00000000000E+00  0.00000000000E+00  0.17247724582E+02  0.17247724582E+02  0.00000000000E+00 0.  1.
          2   -1    0    0  501    0  0.00000000000E+00 -0.00000000000E+00 -0.37527288214E+03  0.37527288214E+03  0.00000000000E+00 0. -1.
         23    2    1    2    0    0 -0.12248758245E+02 -0.43427166845E+01 -0.36537466191E+03  0.37759055379E+03  0.94377388598E+02 0.  0.
         11    1    3    3    0    0 -0.99835097204E+01  0.29682552705E+02 -0.31621212554E+03  0.31775907971E+03  0.00000000000E+00 0. -1.
        -11    1    3    3    0    0 -0.22652485248E+01 -0.34025269389E+02 -0.49162536371E+02  0.59831474077E+02  0.00000000000E+00 0.  1.
         22    1    1    2    0    0  0.12248758245E+02  0.43427166845E+01  0.73495043432E+01  0.14930052942E+02  0.00000000000E+00 0.  1.
<mgrwt>
<rscale>  0 0.57897661E+02</rscale>
<asrwt>0</asrwt>
<pdfrwt beam="1">  1        2 0.57734286E-01 0.95267952E+02</pdfrwt>
<pdfrwt beam="2">  1       -2 0.26534963E-02 0.95267952E+02</pdfrwt>
<totfact> 0.38729863E+04</totfact>
</mgrwt>
</event>
<event>
 6    1  0.2995420E-002  0.9143297E+02  0.7546771E-02  0.1422858E+00
         -2   -1    0    0    0  501 -0.00000000000E+00  0.00000000000E+00  0.24131817764E+02  0.24131817764E+02  0.00000000000E+00 0. -1.
          2   -1    0    0  501    0  0.00000000000E+00 -0.00000000000E+00 -0.21532732946E+03  0.21532732946E+03  0.00000000000E+00 0.  1.
         23    2    1    2    0    0 -0.11424054516E+02 -0.10789365710E+01 -0.20321785048E+03  0.22283958779E+03  0.90710054591E+02 0.  0.
         11    1    3    3    0    0  0.37814773917E+02 -0.34308835376E+01 -0.56596806989E+02  0.68153698722E+02  0.00000000000E+00 0. -1.
        -11    1    3    3    0    0 -0.49238828432E+02  0.23519469667E+01 -0.14662104350E+03  0.15468588907E+03  0.00000000000E+00 0.  1.
         22    1    1    2    0    0  0.11424054516E+02  0.10789365710E+01  0.12022338793E+02  0.16619559433E+02  0.00000000000E+00 0. -1.
<mgrwt>
<rscale>  0 0.54420715E+02</rscale>
<asrwt>0</asrwt>
<pdfrwt beam="1">  1        2 0.33127281E-01 0.91432965E+02</pdfrwt>
<pdfrwt beam="2">  1       -2 0.37125874E-02 0.91432965E+02</pdfrwt>
<totfact> 0.42324764E+04</totfact>
</mgrwt>
</event>
<event>
 6    1  0.2995420E-002  0.6001867E+02  0.7546771E-02  0.1497786E+00
         -2   -1    0    0    0  501 -0.00000000000E+00  0.00000000000E+00  0.41991916765E+01  0.41991916765E+01  0.00000000000E+00 0.  1.
          2   -1    0    0  501    0  0.00000000000E+00 -0.00000000000E+00 -0.16458410356E+04  0.16458410356E+04  0.00000000000E+00 0. -1.
         23    2    1    2    0    0 -0.13656833846E+02 -0.91890577396E-02 -0.16325070462E+04  0.16336099587E+04  0.58444264920E+02 0.  0.
         13    1    3    3    0    0 -0.25354062097E+02 -0.14600988565E+02 -0.14144086444E+04  0.14147112181E+04  0.00000000000E+00 0. -1.
        -13    1    3    3    0    0  0.11697228251E+02  0.14591799508E+02 -0.21809840181E+03  0.21889874060E+03  0.00000000000E+00 0.  1.
         22    1    1    2    0    0  0.13656833846E+02  0.91890577396E-02 -0.91347976780E+01  0.16430268523E+02  0.00000000000E+00 0.  1.
<mgrwt>
<rscale>  0 0.41452653E+02</rscale>
<asrwt>0</asrwt>
<pdfrwt beam="1">  1        2 0.25320674E+00 0.60018675E+02</pdfrwt>
<pdfrwt beam="2">  1       -2 0.64602840E-03 0.60018675E+02</pdfrwt>
<totfact> 0.40651946E+04</totfact>
</mgrwt>
</event>
<event>
 6    1  0.2995420E-002  0.9257478E+02  0.7546771E-02  0.1414381E+00
         -2   -1    0    0    0  501 -0.00000000000E+00  0.00000000000E+00  0.12513621682E+02  0.12513621682E+02  0.00000000000E+00 0.  1.
          2   -1    0    0  501    0  0.00000000000E+00 -0.00000000000E+00 -0.45151452280E+03  0.45151452280E+03  0.00000000000E+00 0. -1.
         23    2    1    2    0    0  0.92026861870E+01 -0.86043961494E+01 -0.44157041765E+03  0.45117017103E+03  0.91713490908E+02 0.  0.
         11    1    3    3    0    0  0.20253789709E+02 -0.18859715254E+02 -0.36432602962E+02  0.45751933463E+02  0.00000000000E+00 0.  1.
        -11    1    3    3    0    0 -0.11051103522E+02  0.10255319105E+02 -0.40513781469E+03  0.40541823757E+03  0.00000000000E+00 0. -1.
         22    1    1    2    0    0 -0.92026861870E+01  0.86043961494E+01  0.25695165333E+01  0.12857973455E+02  0.00000000000E+00 0.  1.
<mgrwt>
<rscale>  0 0.56227684E+02</rscale>
<asrwt>0</asrwt>
<pdfrwt beam="1">  1        2 0.69463776E-01 0.92574778E+02</pdfrwt>
<pdfrwt beam="2">  1       -2 0.19251725E-02 0.92574778E+02</pdfrwt>
<totfact> 0.50423554E+04</totfact>
</mgrwt>
</event>
<event>
 6    1  0.2995420E-002  0.9574956E+02  0.7546771E-02  0.1382405E+00
          2   -1    0    0  501    0  0.00000000000E+00  0.00000000000E+00  0.12430281878E+04  0.12430281878E+04  0.00000000000E+00 0. -1.
         -2   -1    0    0    0  501 -0.00000000000E+00 -0.00000000000E+00 -0.29732315983E+01  0.29732315983E+01  0.00000000000E+00 0.  1.
         23    2    1    2    0    0 -0.17129120243E+02  0.80274863099E+01  0.11501053375E+04  0.11540841675E+04  0.93862297907E+02 0.  0.
         11    1    3    3    0    0 -0.10494151561E+02  0.25208120437E+01  0.12785849318E+02  0.16731994894E+02  0.00000000000E+00 0.  1.
        -11    1    3    3    0    0 -0.66349686820E+01  0.55066742662E+01  0.11373194882E+04  0.11373521726E+04  0.00000000000E+00 0. -1.
         22    1    1    2    0    0  0.17129120243E+02 -0.80274863099E+01  0.89949618646E+02  0.91917251870E+02  0.00000000000E+00 0.  1.
<mgrwt>
<rscale>  0 0.63835874E+02</rscale>
<asrwt>0</asrwt>
<pdfrwt beam="1">  1        2 0.19123469E+00 0.95749560E+02</pdfrwt>
<pdfrwt beam="2">  1       -2 0.45742124E-03 0.95749560E+02</pdfrwt>
<totfact> 0.11159052E+05</totfact>
</mgrwt>
</event>
<event>
 6    1  0.2995420E-002  0.9700338E+02  0.7546771E-02  0.1360963E+00
         -2   -1    0    0    0  501 -0.00000000000E+00  0.00000000000E+00  0.52518393689E+01  0.52518393689E+01  0.00000000000E+00 0.  1.
          2   -1    0    0  501    0  0.00000000000E+00 -0.00000000000E+00 -0.78937004735E+03  0.78937004735E+03  0.00000000000E+00 0. -1.
         23    2    1    2    0    0  0.22802286174E+02  0.12331611681E+02 -0.69733697378E+03  0.70405149690E+03  0.93475357145E+02 0.  0.
         11    1    3    3    0    0 -0.87455854987E+01 -0.21518324244E+02 -0.52787458189E+03  0.52838536860E+03  0.00000000000E+00 0. -1.
        -11    1    3    3    0    0  0.31547871673E+02  0.33849935925E+02 -0.16946239189E+03  0.17566612830E+03  0.00000000000E+00 0.  1.
         22    1    1    2    0    0 -0.22802286174E+02 -0.12331611681E+02 -0.86781234201E+02  0.90570389813E+02  0.00000000000E+00 0.  1.
<mgrwt>
<rscale>  0 0.69744882E+02</rscale>
<asrwt>0</asrwt>
<pdfrwt beam="1">  1        2 0.12144153E+00 0.97003378E+02</pdfrwt>
<pdfrwt beam="2">  1       -2 0.80797539E-03 0.97003378E+02</pdfrwt>
<totfact> 0.92983650E+04</totfact>
</mgrwt>
</event>
<event>
 6    1  0.2995420E-002  0.9459975E+02  0.7546771E-02  0.1402640E+00
         -2   -1    0    0    0  501 -0.00000000000E+00  0.00000000000E+00  0.74297351489E+02  0.74297351489E+02  0.00000000000E+00 0. -1.
          2   -1    0    0  501    0  0.00000000000E+00 -0.00000000000E+00 -0.50915450707E+02  0.50915450707E+02  0.00000000000E+00 0.  1.
         23    2    1    2    0    0 -0.95114909697E+01 -0.10525741247E+02 -0.36654341807E+01  0.94670732556E+02  0.93529955125E+02 0.  0.
         13    1    3    3    0    0  0.53658740457E+01  0.37814820914E+02  0.14609323148E+02  0.40892366132E+02  0.00000000000E+00 0. -1.
        -13    1    3    3    0    0 -0.14877365015E+02 -0.48340562161E+02 -0.18274757329E+02  0.53778366424E+02  0.00000000000E+00 0.  1.
         22    1    1    2    0    0  0.95114909697E+01  0.10525741247E+02  0.27047334963E+02  0.30542069639E+02  0.00000000000E+00 0. -1.
<mgrwt>
<rscale>  0 0.58869057E+02</rscale>
<asrwt>0</asrwt>
<pdfrwt beam="1">  1        2 0.78331463E-02 0.94599747E+02</pdfrwt>
<pdfrwt beam="2">  1       -2 0.11430362E-01 0.94599747E+02</pdfrwt>
<totfact> 0.40664725E+04</totfact>
</mgrwt>
</event>
<event>
 6    1  0.2995420E-002  0.9428404E+02  0.7546771E-02  0.1398389E+00
          2   -1    0    0  501    0  0.00000000000E+00  0.00000000000E+00  0.10363960917E+04  0.10363960917E+04  0.00000000000E+00 0. -1.
         -2   -1    0    0    0  501 -0.00000000000E+00 -0.00000000000E+00 -0.46453456729E+01  0.46453456729E+01  0.00000000000E+00 0.  1.
         23    2    1    2    0    0 -0.20246295949E+00  0.15325424323E+02  0.10102331464E+04  0.10146233240E+04  0.93029940526E+02 0.  0.
         13    1    3    3    0    0  0.26625860218E+02 -0.18456429307E+02  0.76063865602E+03  0.76132827430E+03  0.00000000000E+00 0. -1.
        -13    1    3    3    0    0 -0.26828323177E+02  0.33781853630E+02  0.24959449038E+03  0.25329504967E+03  0.00000000000E+00 0.  1.
         22    1    1    2    0    0  0.20246295949E+00 -0.15325424323E+02  0.21517599606E+02  0.26418113383E+02  0.00000000000E+00 0. -1.
<mgrwt>
<rscale>  0 0.59867514E+02</rscale>
<asrwt>0</asrwt>
<pdfrwt beam="1">  1        2 0.15944537E+00 0.94284036E+02</pdfrwt>
<pdfrwt beam="2">  1       -2 0.71466939E-03 0.94284036E+02</pdfrwt>
<totfact> 0.77497566E+04</totfact>
</mgrwt>
</event>
<event>
 6    1  0.2995420E-002  0.9083044E+02  0.7546771E-02  0.1412324E+00
         -2   -1    0    0    0  501 -0.00000000000E+00  0.00000000000E+00  0.14368684981E+03  0.14368684981E+03  0.00000000000E+00 0.  1.
          2   -1    0    0  501    0  0.00000000000E+00 -0.00000000000E+00 -0.25728287711E+02  0.25728287711E+02  0.00000000000E+00 0. -1.
         23    2    1    2    0    0 -0.81635564051E+01 -0.11090909241E+02  0.57711265853E+02  0.10761393506E+03  0.89780381439E+02 0.  0.
         13    1    3    3    0    0  0.32115302405E+02 -0.20394346250E+02  0.18086506886E+01  0.38086654157E+02  0.00000000000E+00 0. -1.
        -13    1    3    3    0    0 -0.40278858811E+02  0.93034370086E+01  0.55902615164E+02  0.69527280901E+02  0.00000000000E+00 0.  1.
         22    1    1    2    0    0  0.81635564051E+01  0.11090909241E+02  0.60247296250E+02  0.61801202467E+02  0.00000000000E+00 0.  1.
<mgrwt>
<rscale>  0 0.56678483E+02</rscale>
<asrwt>0</asrwt>
<pdfrwt beam="1">  1        2 0.39581982E-02 0.90830440E+02</pdfrwt>
<pdfrwt beam="2">  1       -2 0.22105669E-01 0.90830440E+02</pdfrwt>
<totfact> 0.33003590E+04</totfact>
</mgrwt>
</event>
<event>
 6    1  0.2995420E-002  0.9010730E+02  0.7546771E-02  0.1388065E+00
          1   -1    0    0  501    0  0.00000000000E+00  0.00000000000E+00  0.20782797767E+02  0.20782797767E+02  0.00000000000E+00 0. -1.
         -1   -1    0    0    0  501 -0.00000000000E+00 -0.00000000000E+00 -0.15774403584E+03  0.15774403584E+03  0.00000000000E+00 0.  1.
         23    2    1    2    0    0 -0.20233006742E+02 -0.44227733689E+01 -0.90747255335E+02  0.12788428542E+03  0.87694872262E+02 0.  0.
         13    1    3    3    0    0 -0.21880405663E+01 -0.33227501919E+02 -0.25885263162E+01  0.33399923260E+02  0.00000000000E+00 0. -1.
        -13    1    3    3    0    0 -0.18044966175E+02  0.28804728550E+02 -0.88158729019E+02  0.94484362163E+02  0.00000000000E+00 0.  1.
         22    1    1    2    0    0  0.20233006742E+02  0.44227733689E+01 -0.46213982736E+02  0.50642548183E+02  0.00000000000E+00 0.  1.
<mgrwt>
<rscale>  0 0.62390575E+02</rscale>
<asrwt>0</asrwt>
<pdfrwt beam="1">  1        1 0.31973533E-02 0.90107303E+02</pdfrwt>
<pdfrwt beam="2">  1       -1 0.24268314E-01 0.90107303E+02</pdfrwt>
<totfact> 0.39453073E+04</totfact>
</mgrwt>
</event>
<event>
 6    1  0.2995420E-002  0.9285476E+02  0.7546771E-02  0.1397373E+00
         -2   -1    0    0    0  501 -0.00000000000E+00  0.00000000000E+00  0.63014386308E+02  0.63014386308E+02  0.00000000000E+00 0.  1.
          2   -1    0    0  501    0  0.00000000000E+00 -0.00000000000E+00 -0.66433226278E+02  0.66433226278E+02  0.00000000000E+00 0. -1.
         23    2    1    2    0    0 -0.89817067375E+01  0.13609999509E+02 -0.30585834811E+02  0.97762462258E+02  0.91411720217E+02 0.  0.
         11    1    3    3    0    0  0.32584071063E+02 -0.14492949242E+02  0.53301036300E+01  0.36057970956E+02  0.00000000000E+00 0. -1.
        -11    1    3    3    0    0 -0.41565777801E+02  0.28102948751E+02 -0.35915938441E+02  0.61704491302E+02  0.00000000000E+00 0.  1.
         22    1    1    2    0    0  0.89817067375E+01 -0.13609999509E+02  0.27166994841E+02  0.31685150327E+02  0.00000000000E+00 0. -1.
<mgrwt>
<rscale>  0 0.60109560E+02</rscale>
<asrwt>0</asrwt>
<pdfrwt beam="1">  1        2 0.10220496E-01 0.92854756E+02</pdfrwt>
<pdfrwt beam="2">  1       -2 0.96945210E-02 0.92854756E+02</pdfrwt>
<totfact> 0.37862151E+04</totfact>
</mgrwt>
</event>
<event>
 6    1  0.2995420E-002  0.9402187E+02  0.7546771E-02  0.1400871E+00
          2   -1    0    0  501    0  0.00000000000E+00  0.00000000000E+00  0.85064693881E+03  0.85064693881E+03  0.00000000000E+00 0. -1.
         -2   -1    0    0    0  501 -0.00000000000E+00 -0.00000000000E+00 -0.36186614417E+01  0.36186614417E+01  0.00000000000E+00 0.  1.
         23    2    1    2    0    0  0.79801807354E+01 -0.12534561420E+02  0.77769396379E+03  0.78335688743E+03  0.92840256652E+02 0.  0.
         11    1    3    3    0    0 -0.30497527088E+02  0.10283223547E+02  0.12315468669E+03  0.12729069369E+03  0.00000000000E+00 0.  1.
        -11    1    3    3    0    0  0.38477707823E+02 -0.22817784967E+02  0.65453927710E+03  0.65606619375E+03  0.00000000000E+00 0. -1.
         22    1    1    2    0    0 -0.79801807354E+01  0.12534561420E+02  0.69334313576E+02  0.70908712819E+02  0.00000000000E+00 0.  1.
<mgrwt>
<rscale>  0 0.59281772E+02</rscale>
<asrwt>0</asrwt>
<pdfrwt beam="1">  1        2 0.13086860E+00 0.94021869E+02</pdfrwt>
<pdfrwt beam="2">  1       -2 0.55671782E-03 0.94021869E+02</pdfrwt>
<totfact> 0.14266178E+05</totfact>
</mgrwt>
</event>
<event>
 6    1  0.2995420E-002  0.9432885E+02  0.7546771E-02  0.1376605E+00
         -2   -1    0    0    0  501 -0.00000000000E+00  0.00000000000E+00  0.24068854029E+01  0.24068854029E+01  0.00000000000E+00 0.  1.
          2   -1    0    0  501    0  0.00000000000E+00 -0.00000000000E+00 -0.24726945019E+04  0.24726945019E+04  0.00000000000E+00 0. -1.
         23    2    1    2    0    0 -0.78977082670E+00 -0.21734781753E+02 -0.23917086832E+04  0.23935681228E+04  0.91787299261E+02 0.  0.
         11    1    3    3    0    0  0.92491805867E+01 -0.56480464155E+02 -0.16236229199E+04  0.16246313355E+04  0.00000000000E+00 0. -1.
        -11    1    3    3    0    0 -0.10038951413E+02  0.34745682402E+02 -0.76808576334E+03  0.76893678729E+03  0.00000000000E+00 0.  1.
         22    1    1    2    0    0  0.78977082670E+00  0.21734781753E+02 -0.78578933212E+02  0.81533264503E+02  0.00000000000E+00 0.  1.
<mgrwt>
<rscale>  0 0.65364790E+02</rscale>
<asrwt>0</asrwt>
<pdfrwt beam="1">  1        2 0.38041393E+00 0.94328854E+02</pdfrwt>
<pdfrwt beam="2">  1       -2 0.37029065E-03 0.94328854E+02</pdfrwt>
<totfact> 0.35207248E+04</totfact>
</mgrwt>
</event>
<event>
 6    1  0.2995420E-002  0.9399674E+02  0.7546771E-02  0.1408118E+00
         -1   -1    0    0    0  501 -0.00000000000E+00  0.00000000000E+00  0.21783826869E+02  0.21783826869E+02  0.00000000000E+00 0.  1.
          1   -1    0    0  501    0  0.00000000000E+00 -0.00000000000E+00 -0.13725175555E+03  0.13725175555E+03  0.00000000000E+00 0. -1.
         23    2    1    2    0    0 -0.19622502050E+01 -0.13122969700E+02 -0.89090085194E+02  0.12950841888E+03  0.93055491623E+02 0.  0.
         11    1    3    3    0    0 -0.36000330412E+02  0.23724460781E+02 -0.49202390066E+02  0.65419790716E+02  0.00000000000E+00 0. -1.
        -11    1    3    3    0    0  0.34038080207E+02 -0.36847430481E+02 -0.39887695128E+02  0.64088628164E+02  0.00000000000E+00 0.  1.
         22    1    1    2    0    0  0.19622502050E+01  0.13122969700E+02 -0.26377843487E+02  0.29527163538E+02  0.00000000000E+00 0. -1.
<mgrwt>
<rscale>  0 0.57615991E+02</rscale>
<asrwt>0</asrwt>
<pdfrwt beam="1">  1        1 0.21115655E-01 0.93996741E+02</pdfrwt>
<pdfrwt beam="2">  1       -1 0.33513579E-02 0.93996741E+02</pdfrwt>
<totfact> 0.65687243E+04</totfact>
</mgrwt>
</event>
<event>
 6    1  0.2995420E-002  0.9191827E+02  0.7546771E-02  0.1410466E+00
          2   -1    0    0  501    0  0.00000000000E+00  0.00000000000E+00  0.57766008285E+03  0.57766008285E+03  0.00000000000E+00 0. -1.
         -2   -1    0    0    0  501 -0.00000000000E+00 -0.00000000000E+00 -0.69098691981E+01  0.69098691981E+01  0.00000000000E+00 0.  1.
         23    2    1    2    0    0 -0.13292270414E+02 -0.32266214129E+01  0.55909168898E+03  0.56659728569E+03  0.90894839938E+02 0.  0.
         11    1    3    3    0    0  0.11590553095E+01 -0.27546467843E+01  0.54889812772E+03  0.54890626349E+03  0.00000000000E+00 0. -1.
        -11    1    3    3    0    0 -0.14451325723E+02 -0.47197462859E+00  0.10193561259E+02  0.17691022196E+02  0.00000000000E+00 0.  1.
         22    1    1    2    0    0  0.13292270414E+02  0.32266214129E+01  0.11658524675E+02  0.17972666360E+02  0.00000000000E+00 0.  1.
<mgrwt>
<rscale>  0 0.57089901E+02</rscale>
<asrwt>0</asrwt>
<pdfrwt beam="1">  1        2 0.88870744E-01 0.91918265E+02</pdfrwt>
<pdfrwt beam="2">  1       -2 0.10630573E-02 0.91918265E+02</pdfrwt>
<totfact> 0.89907247E+04</totfact>
</mgrwt>
</event>
<event>
 6    1  0.2995420E-002  0.9362109E+02  0.7546771E-02  0.1413117E+00
         -2   -1    0    0    0  501 -0.00000000000E+00  0.00000000000E+00  0.53240966324E+01  0.53240966324E+01  0.00000000000E+00 0.  1.
          2   -1    0    0  501    0  0.00000000000E+00 -0.00000000000E+00 -0.55206930761E+03  0.55206930761E+03  0.00000000000E+00 0. -1.
         23    2    1    2    0    0  0.68490189388E+01 -0.10363404167E+02 -0.51212453237E+03  0.52061160720E+03  0.92793317060E+02 0.  0.
         13    1    3    3    0    0  0.20484526049E+02 -0.48212161907E+02 -0.32671040156E+03  0.33088323447E+03  0.00000000000E+00 0. -1.
        -13    1    3    3    0    0 -0.13635507110E+02  0.37848757741E+02 -0.18541413081E+03  0.18972837274E+03  0.00000000000E+00 0.  1.
         22    1    1    2    0    0 -0.68490189388E+01  0.10363404167E+02 -0.34620678609E+02  0.36781797043E+02  0.00000000000E+00 0.  1.
<mgrwt>
<rscale>  0 0.56504008E+02</rscale>
<asrwt>0</asrwt>
<pdfrwt beam="1">  1        2 0.84933746E-01 0.93621092E+02</pdfrwt>
<pdfrwt beam="2">  1       -2 0.81909172E-03 0.93621092E+02</pdfrwt>
<totfact> 0.13704164E+05</totfact>
</mgrwt>
</event>
<event>
 6    1  0.2995420E-002  0.9719097E+02  0.7546771E-02  0.1347964E+00
          3   -1    0    0  501    0  0.00000000000E+00  0.00000000000E+00  0.14584483367E+03  0.14584483367E+03  0.00000000000E+00 0. -1.
         -3   -1    0    0    0  501 -0.00000000000E+00 -0.00000000000E+00 -0.39686070219E+02  0.39686070219E+02  0.00000000000E+00 0.  1.
         23    2    1    2    0    0  0.25869144278E+02  0.19048101358E+02  0.28179939649E+02  0.10119384351E+03  0.91728088259E+02 0.  0.
         11    1    3    3    0    0 -0.26550857697E+02  0.31683975941E+02  0.22254826511E+02  0.46947839981E+02  0.00000000000E+00 0.  1.
        -11    1    3    3    0    0  0.52420001976E+02 -0.12635874583E+02  0.59251131376E+01  0.54246003533E+02  0.00000000000E+00 0. -1.
         22    1    1    2    0    0 -0.25869144278E+02 -0.19048101358E+02  0.77978823799E+02  0.84337060372E+02  0.00000000000E+00 0.  1.
<mgrwt>
<rscale>  0 0.73693920E+02</rscale>
<asrwt>0</asrwt>
<pdfrwt beam="1">  1        3 0.22437666E-01 0.97190972E+02</pdfrwt>
<pdfrwt beam="2">  1       -3 0.61055493E-02 0.97190972E+02</pdfrwt>
<totfact> 0.63931099E+03</totfact>
</mgrwt>
</event>
<event>
 6    1  0.2995420E-002  0.9274461E+02  0.7546771E-02  0.1392876E+00
          1   -1    0    0  501    0  0.00000000000E+00  0.00000000000E+00  0.86484906527E+03  0.86484906527E+03  0.00000000000E+00 0. -1.
         -1   -1    0    0    0  501 -0.00000000000E+00 -0.00000000000E+00 -0.44682907730E+01  0.44682907730E+01  0.00000000000E+00 0.  1.
         23    2    1    2    0    0  0.15418893522E+02  0.84475451865E+01  0.82060361355E+03  0.82582797998E+03  0.91062937871E+02 0.  0.
         11    1    3    3    0    0  0.32076364593E+01  0.39526652512E+02  0.17829625722E+03  0.18265322480E+03  0.00000000000E+00 0.  1.
        -11    1    3    3    0    0  0.12211257062E+02 -0.31079107326E+02  0.64230735633E+03  0.64317475518E+03  0.00000000000E+00 0. -1.
         22    1    1    2    0    0 -0.15418893522E+02 -0.84475451865E+01  0.39777160946E+02  0.43489376060E+02  0.00000000000E+00 0. -1.
<mgrwt>
<rscale>  0 0.61196904E+02</rscale>
<asrwt>0</asrwt>
<pdfrwt beam="1">  1        1 0.13305357E+00 0.92744606E+02</pdfrwt>
<pdfrwt beam="2">  1       -1 0.68743004E-03 0.92744606E+02</pdfrwt>
<totfact> 0.58924390E+04</totfact>
</mgrwt>
</event>
<event>
 6    1  0.2995420E-002  0.9416847E+02  0.7546771E-02  0.1392470E+00
          2   -1    0    0  501    0  0.00000000000E+00  0.00000000000E+00  0.24381196185E+03  0.24381196185E+03  0.00000000000E+00 0. -1.
         -2   -1    0    0    0  501 -0.00000000000E+00 -0.00000000000E+00 -0.12748739487E+02  0.12748739487E+02  0.00000000000E+00 0.  1.
         23    2    1    2    0    0 -0.10261966054E+02  0.13434588300E+02  0.18715950678E+03  0.20951463507E+03  0.92638573050E+02 0.  0.
         13    1    3    3    0    0  0.84621901041E+00 -0.35506759651E+02  0.12319238821E+03  0.12821002528E+03  0.00000000000E+00 0.  1.
        -13    1    3    3    0    0 -0.11108185065E+02  0.48941347951E+02  0.63967118570E+02  0.81304609789E+02  0.00000000000E+00 0. -1.
         22    1    1    2    0    0  0.10261966054E+02 -0.13434588300E+02  0.43903715580E+02  0.47046066274E+02  0.00000000000E+00 0.  1.
<mgrwt>
<rscale>  0 0.61296572E+02</rscale>
<asrwt>0</asrwt>
<pdfrwt beam="1">  1        2 0.37509529E-01 0.94168473E+02</pdfrwt>
<pdfrwt beam="2">  1       -2 0.19613447E-02 0.94168473E+02</pdfrwt>
<totfact> 0.94015351E+04</totfact>
</mgrwt>
</event>
<event>
 6    1  0.2995420E-002  0.9203267E+02  0.7546771E-02  0.1408367E+00
          2   -1    0    0  501    0  0.00000000000E+00  0.00000000000E+00  0.18883374626E+04  0.18883374626E+04  0.00000000000E+00 0. -1.
         -2   -1    0    0    0  501 -0.00000000000E+00 -0.00000000000E+00 -0.19180658807E+01  0.19180658807E+01  0.00000000000E+00 0.  1.
         23    2    1    2    0    0  0.11108811745E+02  0.86537623337E+01  0.18216362843E+04  0.18239596390E+04  0.90948992860E+02 0.  0.
         11    1    3    3    0    0 -0.44122010791E+00  0.43970671108E+01  0.17901098977E+04  0.17901153523E+04  0.00000000000E+00 0. -1.
        -11    1    3    3    0    0  0.11550031853E+02  0.42566952229E+01  0.31526386567E+02  0.33844286667E+02  0.00000000000E+00 0.  1.
         22    1    1    2    0    0 -0.11108811745E+02 -0.86537623337E+01  0.64783112472E+02  0.66295889484E+02  0.00000000000E+00 0. -1.
<mgrwt>
<rscale>  0 0.57559899E+02</rscale>
<asrwt>0</asrwt>
<pdfrwt beam="1">  1        2 0.29051197E+00 0.92032671E+02</pdfrwt>
<pdfrwt beam="2">  1       -2 0.29508857E-03 0.92032671E+02</pdfrwt>
<totfact> 0.95773585E+04</totfact>
</mgrwt>
</event>
<event>
 6    1  0.2995420E-002  0.9276386E+02  0.7546771E-02  0.1389497E+00
         -2   -1    0    0    0  501 -0.00000000000E+00  0.00000000000E+00  0.36934694231E+02  0.36934694231E+02  0.00000000000E+00 0.  1.
          2   -1    0    0  501    0  0.00000000000E+00 -0.00000000000E+00 -0.87817575179E+02  0.87817575179E+02  0.00000000000E+00 0. -1.
         23    2    1    2    0    0 -0.73140356594E+01 -0.17046300361E+02 -0.51675616722E+02  0.10618617387E+03  0.90890388292E+02 0.  0.
         11    1    3    3    0    0 -0.20207292603E+02  0.20375854250E+02  0.12086082503E+02  0.31138135799E+02  0.00000000000E+00 0.  1.
        -11    1    3    3    0    0  0.12893256943E+02 -0.37422154610E+02 -0.63761699226E+02  0.75048038072E+02  0.00000000000E+00 0. -1.
         22    1    1    2    0    0  0.73140356594E+01  0.17046300361E+02  0.79273577456E+00  0.18566095540E+02  0.00000000000E+00 0.  1.
<mgrwt>
<rscale>  0 0.62031917E+02</rscale>
<asrwt>0</asrwt>
<pdfrwt beam="1">  1        2 0.13510396E-01 0.92763862E+02</pdfrwt>
<pdfrwt beam="2">  1       -2 0.56822608E-02 0.92763862E+02</pdfrwt>
<totfact> 0.61231392E+04</totfact>
</mgrwt>
</event>
<event>
 6    1  0.2995420E-002  0.9481551E+02  0.7546771E-02  0.1359472E+00
         -2   -1    0    0    0  501 -0.00000000000E+00  0.00000000000E+00  0.10702413160E+02  0.10702413160E+02  0.00000000000E+00 0.  1.
          2   -1    0    0  501    0  0.00000000000E+00 -0.00000000000E+00 -0.36180734926E+03  0.36180734926E+03  0.00000000000E+00 0. -1.
         23    2    1    2    0    0  0.13644598381E+02  0.24980145224E+02 -0.28986499521E+03  0.30497819143E+03  0.90442241669E+02 0.  0.
         11    1    3    3    0    0  0.46186195460E+02  0.34937551968E+02 -0.21638039999E+03  0.22399614882E+03  0.00000000000E+00 0. -1.
        -11    1    3    3    0    0 -0.32541597079E+02 -0.99574067445E+01 -0.73484595226E+02  0.80982042609E+02  0.00000000000E+00 0.  1.
         22    1    1    2    0    0 -0.13644598381E+02 -0.24980145224E+02 -0.61239940884E+02  0.67531570986E+02  0.00000000000E+00 0.  1.
<mgrwt>
<rscale>  0 0.70183081E+02</rscale>
<asrwt>0</asrwt>
<pdfrwt beam="1">  1        2 0.55662677E-01 0.94815515E+02</pdfrwt>
<pdfrwt beam="2">  1       -2 0.16465249E-02 0.94815515E+02</pdfrwt>
<totfact> 0.79966619E+04</totfact>
</mgrwt>
</event>
<event>
 6    1  0.2995420E-002  0.9317693E+02  0.7546771E-02  0.1399341E+00
          1   -1    0    0  501    0  0.00000000000E+00  0.00000000000E+00  0.49392343823E+02  0.49392343823E+02  0.00000000000E+00 0. -1.
         -1   -1    0    0    0  501 -0.00000000000E+00 -0.00000000000E+00 -0.70859361008E+02  0.70859361008E+02  0.00000000000E+00 0.  1.
         23    2    1    2    0    0  0.59915142836E+01 -0.14448469606E+02  0.62984769035E+00  0.93179062649E+02  0.91854692263E+02 0.  0.
         13    1    3    3    0    0  0.26427200340E+02 -0.10969269225E+02  0.39707854714E+02  0.48943186566E+02  0.00000000000E+00 0. -1.
        -13    1    3    3    0    0 -0.20435686057E+02 -0.34792003806E+01 -0.39078007024E+02  0.44235876084E+02  0.00000000000E+00 0.  1.
         22    1    1    2    0    0 -0.59915142836E+01  0.14448469606E+02 -0.22096864876E+02  0.27072642182E+02  0.00000000000E+00 0.  1.
<mgrwt>
<rscale>  0 0.59641823E+02</rscale>
<asrwt>0</asrwt>
<pdfrwt beam="1">  1        1 0.75988222E-02 0.93176934E+02</pdfrwt>
<pdfrwt beam="2">  1       -1 0.10901440E-01 0.93176934E+02</pdfrwt>
<totfact> 0.43027394E+04</totfact>
</mgrwt>
</event>
<event>
 6    1  0.2995420E-002  0.1047969E+03  0.7546771E-02  0.1307548E+00
         -4   -1    0    0    0  501 -0.00000000000E+00  0.00000000000E+00  0.57303235367E+03  0.57303235367E+03  0.00000000000E+00 0.  1.
          4   -1    0    0  501    0  0.00000000000E+00 -0.00000000000E+00 -0.39860707605E+02  0.39860707605E+02  0.00000000000E+00 0. -1.
         23    2    1    2    0    0  0.13277534916E+02 -0.50602212739E+02  0.54846592374E+03  0.55838809089E+03  0.90804810869E+02 0.  0.
         13    1    3    3    0    0  0.46184800537E+02 -0.45316726920E+01  0.29888243290E+03  0.30246368468E+03  0.00000000000E+00 0. -1.
        -13    1    3    3    0    0 -0.32907265622E+02 -0.46070540047E+02  0.24958349084E+03  0.25592440620E+03  0.00000000000E+00 0.  1.
         22    1    1    2    0    0 -0.13277534916E+02  0.50602212739E+02 -0.15294277670E+02  0.54504970388E+02  0.00000000000E+00 0. -1.
<mgrwt>
<rscale>  0 0.88088302E+02</rscale>
<asrwt>0</asrwt>
<pdfrwt beam="1">  1        4 0.61324170E-02 0.10479690E+03</pdfrwt>
<pdfrwt beam="2">  1       -4 0.88158817E-01 0.10479690E+03</pdfrwt>
<totfact> 0.31004774E+02</totfact>
</mgrwt>
</event>
<event>
 6    1  0.2995420E-002  0.1142444E+03  0.7546771E-02  0.1280612E+00
         -3   -1    0    0    0  501 -0.00000000000E+00  0.00000000000E+00  0.17974085224E+03  0.17974085224E+03  0.00000000000E+00 0.  1.
          3   -1    0    0  501    0  0.00000000000E+00 -0.00000000000E+00 -0.52562153830E+02  0.52562153830E+02  0.00000000000E+00 0. -1.
         23    2    1    2    0    0 -0.19506428891E+02 -0.63744799035E+02  0.36852613884E+02  0.12004125071E+03  0.92778696631E+02 0.  0.
         11    1    3    3    0    0 -0.24467095761E+02 -0.70335076921E+02 -0.75758406407E+01  0.74853558245E+02  0.00000000000E+00 0.  1.
        -11    1    3    3    0    0  0.49606668697E+01  0.65902778859E+01  0.44428454525E+02  0.45187692460E+02  0.00000000000E+00 0. -1.
         22    1    1    2    0    0  0.19506428891E+02  0.63744799035E+02  0.90326084528E+02  0.11226175537E+03  0.00000000000E+00 0. -1.
<mgrwt>
<rscale>  0 0.99849702E+02</rscale>
<asrwt>0</asrwt>
<pdfrwt beam="1">  1        3 0.80864853E-02 0.11424442E+03</pdfrwt>
<pdfrwt beam="2">  1       -3 0.27652438E-01 0.11424442E+03</pdfrwt>
<totfact> 0.28955123E+03</totfact>
</mgrwt>
</event>
<event>
 6    1  0.2995420E-002  0.9571640E+02  0.7546771E-02  0.1386043E+00
          2   -1    0    0  501    0  0.00000000000E+00  0.00000000000E+00  0.93788500981E+03  0.93788500981E+03  0.00000000000E+00 0. -1.
         -2   -1    0    0    0  501 -0.00000000000E+00 -0.00000000000E+00 -0.50543738644E+01  0.50543738644E+01  0.00000000000E+00 0.  1.
         23    2    1    2    0    0  0.10174170068E+02  0.14669164025E+02  0.90383284716E+03  0.90888692614E+03  0.94036858688E+02 0.  0.
         13    1    3    3    0    0 -0.10650412220E+02 -0.98869862518E+01  0.21405412524E+02  0.25872291412E+02  0.00000000000E+00 0.  1.
        -13    1    3    3    0    0  0.20824582288E+02  0.24556150277E+02  0.88242743463E+03  0.88301463472E+03  0.00000000000E+00 0. -1.
         22    1    1    2    0    0 -0.10174170068E+02 -0.14669164025E+02  0.28997788789E+02  0.34052457539E+02  0.00000000000E+00 0.  1.
<mgrwt>
<rscale>  0 0.62901673E+02</rscale>
<asrwt>0</asrwt>
<pdfrwt beam="1">  1        2 0.14428986E+00 0.95716398E+02</pdfrwt>
<pdfrwt beam="2">  1       -2 0.77759672E-03 0.95716398E+02</pdfrwt>
<totfact> 0.78823958E+04</totfact>
</mgrwt>
</event>
<event>
 6    1  0.2995420E-002  0.9030957E+02  0.7546771E-02  0.1410970E+00
          2   -1    0    0  501    0  0.00000000000E+00  0.00000000000E+00  0.38596915017E+03  0.38596915017E+03  0.00000000000E+00 0.  1.
         -2   -1    0    0    0  501 -0.00000000000E+00 -0.00000000000E+00 -0.12106988415E+02  0.12106988415E+02  0.00000000000E+00 0. -1.
         23    2    1    2    0    0  0.12015118071E+02 -0.77716376735E+01  0.37296008339E+03  0.38373824614E+03  0.89168695914E+02 0.  0.
         13    1    3    3    0    0  0.14875893836E+01  0.31920457728E+02  0.58945433412E+02  0.67049926651E+02  0.00000000000E+00 0.  1.
        -13    1    3    3    0    0  0.10527528688E+02 -0.39692095402E+02  0.31401464998E+03  0.31668831949E+03  0.00000000000E+00 0. -1.
         22    1    1    2    0    0 -0.12015118071E+02  0.77716376735E+01  0.90207836062E+00  0.14337892445E+02  0.00000000000E+00 0. -1.
<mgrwt>
<rscale>  0 0.56977886E+02</rscale>
<asrwt>0</asrwt>
<pdfrwt beam="1">  1        2 0.59379860E-01 0.90309566E+02</pdfrwt>
<pdfrwt beam="2">  1       -2 0.18626139E-02 0.90309566E+02</pdfrwt>
<totfact> 0.62207817E+04</totfact>
</mgrwt>
</event>
<event>
 6    1  0.2995420E-002  0.9400501E+02  0.7546771E-02  0.1398006E+00
         -2   -1    0    0    0  501 -0.00000000000E+00  0.00000000000E+00  0.46797171516E+01  0.46797171516E+01  0.00000000000E+00 0.  1.
          2   -1    0    0  501    0  0.00000000000E+00 -0.00000000000E+00 -0.72850234245E+03  0.72850234245E+03  0.00000000000E+00 0. -1.
         23    2    1    2    0    0 -0.14733408558E+02 -0.49975246610E+01 -0.68397795303E+03  0.69040769241E+03  0.92708645375E+02 0.  0.
         11    1    3    3    0    0  0.56063982629E+01 -0.32474062276E+02 -0.97194763151E+02  0.10262952015E+03  0.00000000000E+00 0.  1.
        -11    1    3    3    0    0 -0.20339806821E+02  0.27476537615E+02 -0.58678318988E+03  0.58777817226E+03  0.00000000000E+00 0. -1.
         22    1    1    2    0    0  0.14733408558E+02  0.49975246610E+01 -0.39844672270E+02  0.42774367193E+02  0.00000000000E+00 0. -1.
<mgrwt>
<rscale>  0 0.59958542E+02</rscale>
<asrwt>0</asrwt>
<pdfrwt beam="1">  1        2 0.11207730E+00 0.94005008E+02</pdfrwt>
<pdfrwt beam="2">  1       -2 0.71995635E-03 0.94005008E+02</pdfrwt>
<totfact> 0.11997758E+05</totfact>
</mgrwt>
</event>
<event>
 6    1  0.2995420E-002  0.9538541E+02  0.7546771E-02  0.1369353E+00
         -2   -1    0    0    0  501 -0.00000000000E+00  0.00000000000E+00  0.98480450205E+01  0.98480450205E+01  0.00000000000E+00 0. -1.
          2   -1    0    0  501    0  0.00000000000E+00 -0.00000000000E+00 -0.87099872269E+03  0.87099872269E+03  0.00000000000E+00 0.  1.
         23    2    1    2    0    0 -0.21748239970E+02 -0.94301704255E+01 -0.84875248551E+03  0.85409552054E+03  0.92392978649E+02 0.  0.
         11    1    3    3    0    0 -0.30258103508E+02 -0.31754099402E+02 -0.19355586851E+03  0.19846347244E+03  0.00000000000E+00 0. -1.
        -11    1    3    3    0    0  0.85098635383E+01  0.22323928976E+02 -0.65519661700E+03  0.65563204811E+03  0.00000000000E+00 0.  1.
         22    1    1    2    0    0  0.21748239970E+02  0.94301704255E+01 -0.12398192163E+02  0.26751247166E+02  0.00000000000E+00 0. -1.
<mgrwt>
<rscale>  0 0.67347302E+02</rscale>
<asrwt>0</asrwt>
<pdfrwt beam="1">  1        2 0.13399987E+00 0.95385411E+02</pdfrwt>
<pdfrwt beam="2">  1       -2 0.15150831E-02 0.95385411E+02</pdfrwt>
<totfact> 0.33622228E+04</totfact>
</mgrwt>
</event>
<event>
 6    1  0.2995420E-002  0.1036419E+03  0.7546771E-02  0.1354076E+00
         -2   -1    0    0    0  501 -0.00000000000E+00  0.00000000000E+00  0.55836059696E+01  0.55836059696E+01  0.00000000000E+00 0.  1.
          2   -1    0    0  501    0  0.00000000000E+00 -0.00000000000E+00 -0.10721632790E+04  0.10721632790E+04  0.00000000000E+00 0. -1.
         23    2    1    2    0    0  0.16616140458E+02 -0.17140709250E+02 -0.10214280450E+04  0.10266727276E+04  0.10085503685E+03 0.  0.
         11    1    3    3    0    0 -0.23940425125E+02  0.10440219130E+02 -0.77345270697E+03  0.77389355343E+03  0.00000000000E+00 0. -1.
        -11    1    3    3    0    0  0.40556565582E+02 -0.27580928381E+02 -0.24797533800E+03  0.25277917414E+03  0.00000000000E+00 0.  1.
         22    1    1    2    0    0 -0.16616140458E+02  0.17140709250E+02 -0.45151628080E+02  0.51074157414E+02  0.00000000000E+00 0.  1.
<mgrwt>
<rscale>  0 0.71800304E+02</rscale>
<asrwt>0</asrwt>
<pdfrwt beam="1">  1        2 0.16494815E+00 0.10364188E+03</pdfrwt>
<pdfrwt beam="2">  1       -2 0.85901656E-03 0.10364188E+03</pdfrwt>
<totfact> 0.57610458E+04</totfact>
</mgrwt>
</event>
<event>
 6    1  0.2995420E-002  0.9189512E+02  0.7546771E-02  0.1426402E+00
          2   -1    0    0  501    0  0.00000000000E+00  0.00000000000E+00  0.18176525751E+03  0.18176525751E+03  0.00000000000E+00 0. -1.
         -2   -1    0    0    0  501 -0.00000000000E+00 -0.00000000000E+00 -0.14551604072E+02  0.14551604072E+02  0.00000000000E+00 0.  1.
         23    2    1    2    0    0  0.21521713420E+00 -0.10704725235E+02  0.14517975477E+03  0.17181930760E+03  0.91269248966E+02 0.  0.
         13    1    3    3    0    0  0.26113185664E+02  0.17544420692E+02  0.12421291029E+03  0.12813489863E+03  0.00000000000E+00 0. -1.
        -13    1    3    3    0    0 -0.25897968530E+02 -0.28249145927E+02  0.20966844478E+02  0.43684408969E+02  0.00000000000E+00 0.  1.
         22    1    1    2    0    0 -0.21521713420E+00  0.10704725235E+02  0.22033898668E+02  0.24497553986E+02  0.00000000000E+00 0. -1.
<mgrwt>
<rscale>  0 0.53688981E+02</rscale>
<asrwt>0</asrwt>
<pdfrwt beam="1">  1        2 0.27963884E-01 0.91895121E+02</pdfrwt>
<pdfrwt beam="2">  1       -2 0.22387084E-02 0.91895121E+02</pdfrwt>
<totfact> 0.10584412E+05</totfact>
</mgrwt>
</event>
<event>
 6    1  0.2995420E-002  0.9664496E+02  0.7546771E-02  0.1389207E+00
         -4   -1    0    0    0  501 -0.00000000000E+00  0.00000000000E+00  0.28399507435E+02  0.28399507435E+02  0.00000000000E+00 0.  1.
          4   -1    0    0  501    0  0.00000000000E+00 -0.00000000000E+00 -0.11279940113E+03  0.11279940113E+03  0.00000000000E+00 0. -1.
         23    2    1    2    0    0 -0.16459759148E+02  0.81207635991E+00 -0.70272845791E+02  0.11949276608E+03  0.95229539271E+02 0.  0.
         13    1    3    3    0    0  0.35292553977E+02 -0.11236655066E+01 -0.55249324561E+02  0.65569160852E+02  0.00000000000E+00 0. -1.
        -13    1    3    3    0    0 -0.51752313124E+02  0.19357418665E+01 -0.15023521231E+02  0.53923605225E+02  0.00000000000E+00 0.  1.
         22    1    1    2    0    0  0.16459759148E+02 -0.81207635991E+00 -0.14127047899E+02  0.21706142484E+02  0.00000000000E+00 0.  1.
<mgrwt>
<rscale>  0 0.62104384E+02</rscale>
<asrwt>0</asrwt>
<pdfrwt beam="1">  1        4 0.17353754E-01 0.96644960E+02</pdfrwt>
<pdfrwt beam="2">  1       -4 0.43691550E-02 0.96644960E+02</pdfrwt>
<totfact> 0.12744490E+04</totfact>
</mgrwt>
</event>
<event>
 6    1  0.2995420E-002  0.9510476E+02  0.7546771E-02  0.1402864E+00
          2   -1    0    0  501    0  0.00000000000E+00  0.00000000000E+00  0.18451897754E+02  0.18451897754E+02  0.00000000000E+00 0. -1.
         -2   -1    0    0    0  501 -0.00000000000E+00 -0.00000000000E+00 -0.19835700176E+03  0.19835700176E+03  0.00000000000E+00 0.  1.
         23    2    1    2    0    0 -0.74222557799E+01  0.11767415494E+02 -0.10946781390E+03  0.14501075339E+03  0.94081636742E+02 0.  0.
         11    1    3    3    0    0  0.60377403227E+01 -0.43344031527E+01 -0.12088921657E+03  0.12111748033E+03  0.00000000000E+00 0.  1.
        -11    1    3    3    0    0 -0.13459996103E+02  0.16101818647E+02  0.11421402670E+02  0.23893273065E+02  0.00000000000E+00 0. -1.
         22    1    1    2    0    0  0.74222557799E+01 -0.11767415494E+02 -0.70437290105E+02  0.71798146116E+02  0.00000000000E+00 0.  1.
<mgrwt>
<rscale>  0 0.58817181E+02</rscale>
<asrwt>0</asrwt>
<pdfrwt beam="1">  1        2 0.28387535E-02 0.95104765E+02</pdfrwt>
<pdfrwt beam="2">  1       -2 0.30516462E-01 0.95104765E+02</pdfrwt>
<totfact> 0.29378424E+04</totfact>
</mgrwt>
</event>
<event>
 6    1  0.2995420E-002  0.9423622E+02  0.7546771E-02  0.1368701E+00
         -2   -1    0    0    0  501 -0.00000000000E+00  0.00000000000E+00  0.89928609164E+01  0.89928609164E+01  0.00000000000E+00 0. -1.
          2   -1    0    0  501    0  0.00000000000E+00 -0.00000000000E+00 -0.39940297010E+03  0.39940297010E+03  0.00000000000E+00 0.  1.
         23    2    1    2    0    0  0.19686881081E+02 -0.15163533946E+02 -0.32640099822E+03  0.33973235940E+03  0.90900815917E+02 0.  0.
         11    1    3    3    0    0  0.39289402595E+02  0.26697688727E+01 -0.58475333673E+02  0.70499287019E+02  0.00000000000E+00 0. -1.
        -11    1    3    3    0    0 -0.19602521514E+02 -0.17833302819E+02 -0.26792566455E+03  0.26923307238E+03  0.00000000000E+00 0.  1.
         22    1    1    2    0    0 -0.19686881081E+02  0.15163533946E+02 -0.64009110962E+02  0.68663471618E+02  0.00000000000E+00 0.  1.
<mgrwt>
<rscale>  0 0.67529499E+02</rscale>
<asrwt>0</asrwt>
<pdfrwt beam="1">  1        2 0.61446605E-01 0.94236216E+02</pdfrwt>
<pdfrwt beam="2">  1       -2 0.13835172E-02 0.94236216E+02</pdfrwt>
<totfact> 0.92331224E+04</totfact>
</mgrwt>
</event>
<event>
 6    1  0.2995420E-002  0.9136128E+02  0.7546771E-02  0.1427547E+00
         -4   -1    0    0    0  501 -0.00000000000E+00  0.00000000000E+00  0.85450161427E+01  0.85450161427E+01  0.00000000000E+00 0.  1.
          4   -1    0    0  501    0  0.00000000000E+00 -0.00000000000E+00 -0.31451596691E+03  0.31451596691E+03  0.00000000000E+00 0. -1.
         23    2    1    2    0    0  0.10296676383E+02 -0.29375564869E+01 -0.28798021539E+03  0.30212495329E+03  0.90731649184E+02 0.  0.
         13    1    3    3    0    0 -0.10667525519E+02 -0.19230221224E+02 -0.12354989986E+02  0.25223863435E+02  0.00000000000E+00 0.  1.
        -13    1    3    3    0    0  0.20964201902E+02  0.16292664737E+02 -0.27562522541E+03  0.27690108986E+03  0.00000000000E+00 0. -1.
         22    1    1    2    0    0 -0.10296676383E+02  0.29375564869E+01 -0.17990735374E+02  0.20936029756E+02  0.00000000000E+00 0.  1.
<mgrwt>
<rscale>  0 0.53455667E+02</rscale>
<asrwt>0</asrwt>
<pdfrwt beam="1">  1        4 0.48387072E-01 0.91361277E+02</pdfrwt>
<pdfrwt beam="2">  1       -4 0.13146179E-02 0.91361277E+02</pdfrwt>
<totfact> 0.11701258E+04</totfact>
</mgrwt>
</event>
<event>
 6    1  0.2995420E-002  0.9760229E+02  0.7546771E-02  0.1339402E+00
          2   -1    0    0  501    0  0.00000000000E+00  0.00000000000E+00  0.22074760275E+03  0.22074760275E+03  0.00000000000E+00 0. -1.
         -2   -1    0    0    0  501 -0.00000000000E+00 -0.00000000000E+00 -0.47580164353E+02  0.47580164353E+02  0.00000000000E+00 0.  1.
         23    2    1    2    0    0  0.16158309379E+02 -0.33021430290E+02  0.20018076867E+03  0.22270731300E+03  0.90414054742E+02 0.  0.
         13    1    3    3    0    0  0.34295650902E+02 -0.57194266645E+02  0.14950882409E+03  0.16370786264E+03  0.00000000000E+00 0. -1.
        -13    1    3    3    0    0 -0.18137341523E+02  0.24172836355E+02  0.50671944582E+02  0.58999450359E+02  0.00000000000E+00 0.  1.
         22    1    1    2    0    0 -0.16158309379E+02  0.33021430290E+02 -0.27013330275E+02  0.45620454107E+02  0.00000000000E+00 0.  1.
<mgrwt>
<rscale>  0 0.76462281E+02</rscale>
<asrwt>0</asrwt>
<pdfrwt beam="1">  1        2 0.33961169E-01 0.97602291E+02</pdfrwt>
<pdfrwt beam="2">  1       -2 0.73200254E-02 0.97602291E+02</pdfrwt>
<totfact> 0.15084368E+04</totfact>
</mgrwt>
</event>
<event>
 6    1  0.2995420E-002  0.9203399E+02  0.7546771E-02  0.1394777E+00
          2   -1    0    0  501    0  0.00000000000E+00  0.00000000000E+00  0.65396144391E+02  0.65396144391E+02  0.00000000000E+00 0. -1.
         -2   -1    0    0    0  501 -0.00000000000E+00 -0.00000000000E+00 -0.47386556816E+02  0.47386556816E+02  0.00000000000E+00 0.  1.
         23    2    1    2    0    0 -0.12894078196E+02  0.11763068619E+02  0.22533480009E+02  0.94752375680E+02  0.90363864126E+02 0.  0.
         11    1    3    3    0    0  0.37695961014E+01 -0.38677644819E+02  0.79622339604E+01  0.39668214394E+02  0.00000000000E+00 0. -1.
        -11    1    3    3    0    0 -0.16663674297E+02  0.50440713438E+02  0.14571246049E+02  0.55084161286E+02  0.00000000000E+00 0.  1.
         22    1    1    2    0    0  0.12894078196E+02 -0.11763068619E+02 -0.45238924350E+01  0.18030325527E+02  0.00000000000E+00 0. -1.
<mgrwt>
<rscale>  0 0.60734049E+02</rscale>
<asrwt>0</asrwt>
<pdfrwt beam="1">  1        2 0.10060945E-01 0.92033988E+02</pdfrwt>
<pdfrwt beam="2">  1       -2 0.72902395E-02 0.92033988E+02</pdfrwt>
<totfact> 0.59697059E+04</totfact>
</mgrwt>
</event>
<event>
 6    1  0.2995420E-002  0.9028308E+02  0.7546771E-02  0.1401043E+00
          2   -1    0    0  501    0  0.00000000000E+00  0.00000000000E+00  0.46802215453E+03  0.46802215453E+03  0.00000000000E+00 0. -1.
         -2   -1    0    0    0  501 -0.00000000000E+00 -0.00000000000E+00 -0.62023969432E+01  0.62023969432E+01  0.00000000000E+00 0.  1.
         23    2    1    2    0    0  0.56873951038E+01  0.15741318742E+02  0.40765456814E+03  0.41753237100E+03  0.88718083444E+02 0.  0.
         13    1    3    3    0    0 -0.39237163351E+01  0.16824154980E+01  0.39786719249E+03  0.39789009655E+03  0.00000000000E+00 0. -1.
        -13    1    3    3    0    0  0.96111114389E+01  0.14058903244E+02  0.97873756473E+01  0.19642274450E+02  0.00000000000E+00 0.  1.
         22    1    1    2    0    0 -0.56873951038E+01 -0.15741318742E+02  0.54165189446E+02  0.56692180471E+02  0.00000000000E+00 0.  1.
<mgrwt>
<rscale>  0 0.59241466E+02</rscale>
<asrwt>0</asrwt>
<pdfrwt beam="1">  1        2 0.72003381E-01 0.90283077E+02</pdfrwt>
<pdfrwt beam="2">  1       -2 0.95421528E-03 0.90283077E+02</pdfrwt>
<totfact> 0.13138948E+05</totfact>
</mgrwt>
</event>
<event>
 6    1  0.2995420E-002  0.1012816E+03  0.7546771E-02  0.1387566E+00
         -2   -1    0    0    0  501 -0.00000000000E+00  0.00000000000E+00  0.17383288425E+02  0.17383288425E+02  0.00000000000E+00 0.  1.
          2   -1    0    0  501    0  0.00000000000E+00 -0.00000000000E+00 -0.24873341503E+03  0.24873341503E+03  0.00000000000E+00 0. -1.
         23    2    1    2    0    0  0.73231296504E+01  0.12748365831E+02 -0.23004890242E+03  0.25135722366E+03  0.10020881861E+03 0.  0.
         11    1    3    3    0    0  0.52178907250E+02  0.18477624500E+02 -0.14120677491E+03  0.15166876491E+03  0.00000000000E+00 0. -1.
        -11    1    3    3    0    0 -0.44855777600E+02 -0.57292586687E+01 -0.88842127507E+02  0.99688458755E+02  0.00000000000E+00 0.  1.
         22    1    1    2    0    0 -0.73231296504E+01 -0.12748365831E+02 -0.13012241870E+01  0.14759479789E+02  0.00000000000E+00 0. -1.
<mgrwt>
<rscale>  0 0.62516116E+02</rscale>
<asrwt>0</asrwt>
<pdfrwt beam="1">  1        2 0.38266676E-01 0.10128157E+03</pdfrwt>
<pdfrwt beam="2">  1       -2 0.26743523E-02 0.10128157E+03</pdfrwt>
<totfact> 0.59417468E+04</totfact>
</mgrwt>
</event>
<event>
 6    1  0.2995420E-002  0.9336181E+02  0.7546771E-02  0.1376806E+00
         -2   -1    0    0    0  501 -0.00000000000E+00  0.00000000000E+00  0.73765143365E+02  0.73765143365E+02  0.00000000000E+00 0.  1.
          2   -1    0    0  501    0  0.00000000000E+00 -0.00000000000E+00 -0.88151626859E+02  0.88151626859E+02  0.00000000000E+00 0. -1.
         23    2    1    2    0    0  0.18822363764E+02  0.12066288883E+02 -0.60096625123E+02  0.11103166678E+03  0.90645187246E+02 0.  0.
         13    1    3    3    0    0  0.32848639841E+02  0.31955783193E+02 -0.70885694803E+02  0.84409637759E+02  0.00000000000E+00 0. -1.
        -13    1    3    3    0    0 -0.14026276077E+02 -0.19889494310E+02  0.10789069679E+02  0.26622029018E+02  0.00000000000E+00 0.  1.
         22    1    1    2    0    0 -0.18822363764E+02 -0.12066288883E+02  0.45710141630E+02  0.50885103448E+02  0.00000000000E+00 0.  1.
<mgrwt>
<rscale>  0 0.65310768E+02</rscale>
<asrwt>0</asrwt>
<pdfrwt beam="1">  1        2 0.13561789E-01 0.93361805E+02</pdfrwt>
<pdfrwt beam="2">  1       -2 0.11348484E-01 0.93361805E+02</pdfrwt>
<totfact> 0.21149279E+04</totfact>
</mgrwt>
</event>
<event>
 6    1  0.2995420E-002  0.9208575E+02  0.7546771E-02  0.1382360E+00
         -1   -1    0    0    0  501 -0.00000000000E+00  0.00000000000E+00  0.82160246455E+01  0.82160246455E+01  0.00000000000E+00 0.  1.
          1   -1    0    0  501    0  0.00000000000E+00 -0.00000000000E+00 -0.39189723023E+03  0.39189723023E+03  0.00000000000E+00 0. -1.
         23    2    1    2    0    0  0.18089272695E+02 -0.11210372320E+02 -0.31859559405E+03  0.33163675480E+03  0.89592914620E+02 0.  0.
         13    1    3    3    0    0  0.48843365180E+01  0.30483029027E+02 -0.45024626523E+02  0.54592021353E+02  0.00000000000E+00 0.  1.
        -13    1    3    3    0    0  0.13204936177E+02 -0.41693401347E+02 -0.27357096753E+03  0.27704473345E+03  0.00000000000E+00 0. -1.
         22    1    1    2    0    0 -0.18089272695E+02  0.11210372320E+02 -0.65085611533E+02  0.68476500077E+02  0.00000000000E+00 0.  1.
<mgrwt>
<rscale>  0 0.63847501E+02</rscale>
<asrwt>0</asrwt>
<pdfrwt beam="1">  1        1 0.60291884E-01 0.92085746E+02</pdfrwt>
<pdfrwt beam="2">  1       -1 0.12640037E-02 0.92085746E+02</pdfrwt>
<totfact> 0.72585016E+04</totfact>
</mgrwt>
</event>
<event>
 6    1  0.2995420E-002  0.9111417E+02  0.7546771E-02  0.1418592E+00
          2   -1    0    0  501    0  0.00000000000E+00  0.00000000000E+00  0.12930262214E+04  0.12930262214E+04  0.00000000000E+00 0. -1.
         -2   -1    0    0    0  501 -0.00000000000E+00 -0.00000000000E+00 -0.33116776739E+01  0.33116776739E+01  0.00000000000E+00 0.  1.
         23    2    1    2    0    0  0.10653271661E+02  0.63091256192E+01  0.12685489038E+04  0.12718168555E+04  0.90269016824E+02 0.  0.
         11    1    3    3    0    0 -0.14944580774E+02  0.20755467640E+02  0.11154183682E+03  0.11443649458E+03  0.00000000000E+00 0. -1.
        -11    1    3    3    0    0  0.25597852434E+02 -0.14446342021E+02  0.11570070670E+04  0.11573803609E+04  0.00000000000E+00 0.  1.
         22    1    1    2    0    0 -0.10653271661E+02 -0.63091256192E+01  0.21165639902E+02  0.24521043526E+02  0.00000000000E+00 0.  1.
<mgrwt>
<rscale>  0 0.55319883E+02</rscale>
<asrwt>0</asrwt>
<pdfrwt beam="1">  1        2 0.19892671E+00 0.91114174E+02</pdfrwt>
<pdfrwt beam="2">  1       -2 0.50948991E-03 0.91114174E+02</pdfrwt>
<totfact> 0.89682227E+04</totfact>
</mgrwt>
</event>
<event>
 6    1  0.2995420E-002  0.9255744E+02  0.7546771E-02  0.1423823E+00
         -2   -1    0    0    0  501 -0.00000000000E+00  0.00000000000E+00  0.92947306653E+01  0.92947306653E+01  0.00000000000E+00 0.  1.
          2   -1    0    0  501    0  0.00000000000E+00 -0.00000000000E+00 -0.45390424902E+03  0.45390424902E+03  0.00000000000E+00 0. -1.
         23    2    1    2    0    0 -0.96327249718E+01 -0.51000958212E+01 -0.44252619663E+03  0.45210210638E+03  0.91913434925E+02 0.  0.
         13    1    3    3    0    0 -0.23090711190E+01  0.14241654499E+02 -0.69131617087E+01  0.15998385453E+02  0.00000000000E+00 0.  1.
        -13    1    3    3    0    0 -0.73236538528E+01 -0.19341750320E+02 -0.43561303492E+03  0.43610372092E+03  0.00000000000E+00 0. -1.
         22    1    1    2    0    0  0.96327249718E+01  0.51000958212E+01 -0.20833217235E+01  0.11096873306E+02  0.00000000000E+00 0. -1.
<mgrwt>
<rscale>  0 0.54220152E+02</rscale>
<asrwt>0</asrwt>
<pdfrwt beam="1">  1        2 0.69831409E-01 0.92557441E+02</pdfrwt>
<pdfrwt beam="2">  1       -2 0.14299588E-02 0.92557441E+02</pdfrwt>
<totfact> 0.76723350E+04</totfact>
</mgrwt>
</event>
<event>
 6    1  0.2995420E-002  0.9201577E+02  0.7546771E-02  0.1430269E+00
          2   -1    0    0  501    0  0.00000000000E+00  0.00000000000E+00  0.13773208511E+02  0.13773208511E+02  0.00000000000E+00 0. -1.
         -2   -1    0    0    0  501 -0.00000000000E+00 -0.00000000000E+00 -0.19601531080E+03  0.19601531080E+03  0.00000000000E+00 0.  1.
         23    2    1    2    0    0  0.46695783606E+01 -0.89062719796E+01 -0.14960782702E+03  0.17563998252E+03  0.91464610159E+02 0.  0.
         11    1    3    3    0    0  0.38492924089E+02 -0.73739524988E+01 -0.13155648001E+03  0.13727049141E+03  0.00000000000E+00 0.  1.
        -11    1    3    3    0    0 -0.33823345728E+02 -0.15323194808E+01 -0.18051347020E+02  0.38369491116E+02  0.00000000000E+00 0. -1.
         22    1    1    2    0    0 -0.46695783606E+01  0.89062719796E+01 -0.32634275264E+02  0.34148536786E+02  0.00000000000E+00 0. -1.
<mgrwt>
<rscale>  0 0.52905995E+02</rscale>
<asrwt>0</asrwt>
<pdfrwt beam="1">  1        2 0.21189554E-02 0.92015768E+02</pdfrwt>
<pdfrwt beam="2">  1       -2 0.30156198E-01 0.92015768E+02</pdfrwt>
<totfact> 0.44200864E+04</totfact>
</mgrwt>
</event>
<event>
 6    1  0.2995420E-002  0.9320358E+02  0.7546771E-02  0.1406670E+00
          2   -1    0    0  501    0  0.00000000000E+00  0.00000000000E+00  0.10132979818E+03  0.10132979818E+03  0.00000000000E+00 0.  1.
         -2   -1    0    0    0  501 -0.00000000000E+00 -0.00000000000E+00 -0.35474546033E+02  0.35474546033E+02  0.00000000000E+00 0. -1.
         23    2    1    2    0    0 -0.10690310369E+02  0.89196696635E+01  0.75433853767E+02  0.11990485157E+03  0.92157820580E+02 0.  0.
         13    1    3    3    0    0  0.33082923918E+02 -0.11917406156E+02  0.67039576720E+01  0.35797310973E+02  0.00000000000E+00 0. -1.
        -13    1    3    3    0    0 -0.43773234287E+02  0.20837075819E+02  0.68729896095E+02  0.84107540601E+02  0.00000000000E+00 0.  1.
         22    1    1    2    0    0  0.10690310369E+02 -0.89196696635E+01 -0.95786016158E+01  0.16899492643E+02  0.00000000000E+00 0. -1.
<mgrwt>
<rscale>  0 0.57943640E+02</rscale>
<asrwt>0</asrwt>
<pdfrwt beam="1">  1        2 0.15589200E-01 0.93203579E+02</pdfrwt>
<pdfrwt beam="2">  1       -2 0.54576225E-02 0.93203579E+02</pdfrwt>
<totfact> 0.55110509E+04</totfact>
</mgrwt>
</event>
<event>
 6    1  0.2995420E-002  0.9751335E+02  0.7546771E-02  0.1372623E+00
          4   -1    0    0  501    0  0.00000000000E+00  0.00000000000E+00  0.19590451962E+02  0.19590451962E+02  0.00000000000E+00 0. -1.
         -4   -1    0    0    0  501 -0.00000000000E+00 -0.00000000000E+00 -0.19231533194E+03  0.19231533194E+03  0.00000000000E+00 0.  1.
         23    2    1    2    0    0  0.10734309677E+01 -0.20991826017E+02 -0.11676153775E+03  0.15212531312E+03  0.95221033290E+02 0.  0.
         11    1    3    3    0    0  0.31879954097E+02  0.40275461106E+01 -0.37542157933E+01  0.32351920146E+02  0.00000000000E+00 0.  1.
        -11    1    3    3    0    0 -0.30806523129E+02 -0.25019372128E+02 -0.11300732196E+03  0.11977339298E+03  0.00000000000E+00 0. -1.
         22    1    1    2    0    0 -0.10734309677E+01  0.20991826017E+02 -0.55963342232E+02  0.59780470786E+02  0.00000000000E+00 0.  1.
<mgrwt>
<rscale>  0 0.66443483E+02</rscale>
<asrwt>0</asrwt>
<pdfrwt beam="1">  1        4 0.30139156E-02 0.97513354E+02</pdfrwt>
<pdfrwt beam="2">  1       -4 0.29586975E-01 0.97513354E+02</pdfrwt>
<totfact> 0.86998438E+03</totfact>
</mgrwt>
</event>
<event>
 6    1  0.2995420E-002  0.9198983E+02  0.7546771E-02  0.1422025E+00
         -2   -1    0    0    0  501 -0.00000000000E+00  0.00000000000E+00  0.18700788205E+03  0.18700788205E+03  0.00000000000E+00 0.  1.
          2   -1    0    0  501    0  0.00000000000E+00 -0.00000000000E+00 -0.15596282571E+02  0.15596282571E+02  0.00000000000E+00 0. -1.
         23    2    1    2    0    0 -0.11410704041E+02  0.20974183086E+00  0.12741765116E+03  0.15715401999E+03  0.91279132411E+02 0.  0.
         13    1    3    3    0    0 -0.90076841598E+01  0.72200897831E+00 -0.13483423572E+02  0.16231524331E+02  0.00000000000E+00 0. -1.
        -13    1    3    3    0    0 -0.24030198815E+01 -0.51226714745E+00  0.14090107473E+03  0.14092249566E+03  0.00000000000E+00 0.  1.
         22    1    1    2    0    0  0.11410704041E+02 -0.20974183086E+00  0.43993948318E+02  0.45450144631E+02  0.00000000000E+00 0.  1.
<mgrwt>
<rscale>  0 0.54594802E+02</rscale>
<asrwt>0</asrwt>
<pdfrwt beam="1">  1        2 0.23994282E-02 0.91989826E+02</pdfrwt>
<pdfrwt beam="2">  1       -2 0.28770442E-01 0.91989826E+02</pdfrwt>
<totfact> 0.40661695E+04</totfact>
</mgrwt>
</event>
<event>
 6    1  0.2995420E-002  0.8960406E+02  0.7546771E-02  0.1377606E+00
         -2   -1    0    0    0  501 -0.00000000000E+00  0.00000000000E+00  0.22837192812E+02  0.22837192812E+02  0.00000000000E+00 0.  1.
          2   -1    0    0  501    0  0.00000000000E+00 -0.00000000000E+00 -0.16683921920E+03  0.16683921920E+03  0.00000000000E+00 0. -1.
         23    2    1    2    0    0  0.85378468003E+00  0.24946670687E+02 -0.13708977922E+03  0.16377574624E+03  0.86057086654E+02 0.  0.
         11    1    3    3    0    0 -0.59274767470E+00 -0.22415667189E+02 -0.10297518853E+03  0.10538834347E+03  0.00000000000E+00 0. -1.
        -11    1    3    3    0    0  0.14465323547E+01  0.47362337875E+02 -0.34114590687E+02  0.58387402773E+02  0.00000000000E+00 0.  1.
         22    1    1    2    0    0 -0.85378468003E+00 -0.24946670687E+02 -0.69122471727E+01  0.25900665775E+02  0.00000000000E+00 0.  1.
<mgrwt>
<rscale>  0 0.65097223E+02</rscale>
<asrwt>0</asrwt>
<pdfrwt beam="1">  1        2 0.25667571E-01 0.89604060E+02</pdfrwt>
<pdfrwt beam="2">  1       -2 0.35134144E-02 0.89604060E+02</pdfrwt>
<totfact> 0.60156690E+04</totfact>
</mgrwt>
</event>
<event>
 6    1  0.2995420E-002  0.6347410E+02  0.7546771E-02  0.1493487E+00
         -2   -1    0    0    0  501 -0.00000000000E+00  0.00000000000E+00  0.40941626438E+02  0.40941626438E+02  0.00000000000E+00 0.  1.
          2   -1    0    0  501    0  0.00000000000E+00 -0.00000000000E+00 -0.35155502045E+02  0.35155502045E+02  0.00000000000E+00 0. -1.
         23    2    1    2    0    0  0.43467468566E+01  0.11455727656E+02  0.66067585575E+01  0.63817008581E+02  0.62280281159E+02 0.  0.
         11    1    3    3    0    0 -0.12357386060E+02  0.15000264089E+02 -0.22709335718E+02  0.29890246599E+02  0.00000000000E+00 0. -1.
        -11    1    3    3    0    0  0.16704132917E+02 -0.35445364335E+01  0.29316094276E+02  0.33926761983E+02  0.00000000000E+00 0.  1.
         22    1    1    2    0    0 -0.43467468566E+01 -0.11455727656E+02 -0.82063416498E+00  0.12280119901E+02  0.00000000000E+00 0.  1.
<mgrwt>
<rscale>  0 0.42073156E+02</rscale>
<asrwt>0</asrwt>
<pdfrwt beam="1">  1        2 0.54085388E-02 0.63474100E+02</pdfrwt>
<pdfrwt beam="2">  1       -2 0.62987118E-02 0.63474100E+02</pdfrwt>
<totfact> 0.15100847E+05</totfact>
</mgrwt>
</event>
<event>
 6    1  0.2995420E-002  0.1034370E+03  0.7546771E-02  0.1313071E+00
          2   -1    0    0  501    0  0.00000000000E+00  0.00000000000E+00  0.16121365549E+03  0.16121365549E+03  0.00000000000E+00 0. -1.
         -2   -1    0    0    0  501 -0.00000000000E+00 -0.00000000000E+00 -0.37620901216E+02  0.37620901216E+02  0.00000000000E+00 0.  1.
         23    2    1    2    0    0 -0.43861882124E+02 -0.22332130063E+02  0.64378701912E+02  0.12183525324E+03  0.90975947023E+02 0.  0.
         11    1    3    3    0    0 -0.88475279428E+01  0.19646926884E+02  0.63614978229E+02  0.67165064890E+02  0.00000000000E+00 0. -1.
        -11    1    3    3    0    0 -0.35014354181E+02 -0.41979056947E+02  0.76372368329E+00  0.54670188354E+02  0.00000000000E+00 0.  1.
         22    1    1    2    0    0  0.43861882124E+02  0.22332130063E+02  0.59214052365E+02  0.76999303465E+02  0.00000000000E+00 0. -1.
<mgrwt>
<rscale>  0 0.85909636E+02</rscale>
<asrwt>0</asrwt>
<pdfrwt beam="1">  1        2 0.24802100E-01 0.10343699E+03</pdfrwt>
<pdfrwt beam="2">  1       -2 0.57878310E-02 0.10343699E+03</pdfrwt>
<totfact> 0.30367747E+04</totfact>
</mgrwt>
</event>
<event>
 6    1  0.2995420E-002  0.1009926E+03  0.7546771E-02  0.1331648E+00
         -2   -1    0    0    0  501 -0.00000000000E+00  0.00000000000E+00  0.10365894347E+02  0.10365894347E+02  0.00000000000E+00 0.  1.
          2   -1    0    0  501    0  0.00000000000E+00 -0.00000000000E+00 -0.18521694907E+04  0.18521694907E+04  0.00000000000E+00 0. -1.
         23    2    1    2    0    0 -0.29441214182E+02 -0.24008268783E+02 -0.18104885319E+04  0.18133031261E+04  0.93575214355E+02 0.  0.
         13    1    3    3    0    0  0.53747168773E+00 -0.87597272179E+01 -0.14156025213E+02  0.16655772170E+02  0.00000000000E+00 0.  1.
        -13    1    3    3    0    0 -0.29978685870E+02 -0.15248541565E+02 -0.17963325067E+04  0.17966473539E+04  0.00000000000E+00 0. -1.
         22    1    1    2    0    0  0.29441214182E+02  0.24008268783E+02 -0.31315064406E+02  0.49232258949E+02  0.00000000000E+00 0.  1.
<mgrwt>
<rscale>  0 0.79091947E+02</rscale>
<asrwt>0</asrwt>
<pdfrwt beam="1">  1        2 0.28494918E+00 0.10099259E+03</pdfrwt>
<pdfrwt beam="2">  1       -2 0.15947528E-02 0.10099259E+03</pdfrwt>
<totfact> 0.93066333E+03</totfact>
</mgrwt>
</event>
<event>
 6    1  0.2995420E-002  0.9327707E+02  0.7546771E-02  0.1395473E+00
         -2   -1    0    0    0  501 -0.00000000000E+00  0.00000000000E+00  0.20828639030E+03  0.20828639030E+03  0.00000000000E+00 0.  1.
          2   -1    0    0  501    0  0.00000000000E+00 -0.00000000000E+00 -0.17781442020E+02  0.17781442020E+02  0.00000000000E+00 0. -1.
         23    2    1    2    0    0 -0.15947526490E+02 -0.45353049536E+01  0.11163976814E+03  0.14547869390E+03  0.91791720525E+02 0.  0.
         11    1    3    3    0    0  0.19655970066E+02 -0.21752187300E+02  0.10006568124E+03  0.10427202584E+03  0.00000000000E+00 0.  1.
        -11    1    3    3    0    0 -0.35603496556E+02  0.17216882346E+02  0.11574086896E+02  0.41206668056E+02  0.00000000000E+00 0. -1.
         22    1    1    2    0    0  0.15947526490E+02  0.45353049536E+01  0.78865180145E+02  0.80589138421E+02  0.00000000000E+00 0.  1.
<mgrwt>
<rscale>  0 0.60565676E+02</rscale>
<asrwt>0</asrwt>
<pdfrwt beam="1">  1        2 0.27356066E-02 0.93277074E+02</pdfrwt>
<pdfrwt beam="2">  1       -2 0.32044058E-01 0.93277074E+02</pdfrwt>
<totfact> 0.28199237E+04</totfact>
</mgrwt>
</event>
<event>
 6    1  0.2995420E-002  0.9160338E+02  0.7546771E-02  0.1406318E+00
         -3   -1    0    0    0  501 -0.00000000000E+00  0.00000000000E+00  0.17959034375E+03  0.17959034375E+03  0.00000000000E+00 0.  1.
          3   -1    0    0  501    0  0.00000000000E+00 -0.00000000000E+00 -0.19347569172E+02  0.19347569172E+02  0.00000000000E+00 0. -1.
         23    2    1    2    0    0  0.13611330401E+02  0.56730279440E+01  0.94691505110E+02  0.13174847558E+03  0.90408672794E+02 0.  0.
         13    1    3    3    0    0  0.47488562590E+01 -0.30326424413E+02  0.69408153375E+00  0.30703833679E+02  0.00000000000E+00 0. -1.
        -13    1    3    3    0    0  0.88624741423E+01  0.35999452357E+02  0.93997423576E+02  0.10104464190E+03  0.00000000000E+00 0.  1.
         22    1    1    2    0    0 -0.13611330401E+02 -0.56730279440E+01  0.65551269467E+02  0.67189437340E+02  0.00000000000E+00 0. -1.
<mgrwt>
<rscale>  0 0.58023504E+02</rscale>
<asrwt>0</asrwt>
<pdfrwt beam="1">  1        3 0.29765492E-02 0.91603382E+02</pdfrwt>
<pdfrwt beam="2">  1       -3 0.27629282E-01 0.91603382E+02</pdfrwt>
<totfact> 0.13296075E+04</totfact>
</mgrwt>
</event>
<event>
 6    1  0.2995420E-002  0.9341216E+02  0.7546771E-02  0.1423962E+00
         -2   -1    0    0    0  501 -0.00000000000E+00  0.00000000000E+00  0.91698823549E+02  0.91698823549E+02  0.00000000000E+00 0.  1.
          2   -1    0    0  501    0  0.00000000000E+00 -0.00000000000E+00 -0.29503534991E+02  0.29503534991E+02  0.00000000000E+00 0. -1.
         23    2    1    2    0    0 -0.29867759160E+01  0.10150365938E+02  0.56799426612E+02  0.10932523409E+03  0.92810997121E+02 0.  0.
         11    1    3    3    0    0 -0.40589517460E+02 -0.18695009685E+02  0.18394924240E+02  0.48325826972E+02  0.00000000000E+00 0. -1.
        -11    1    3    3    0    0  0.37602741544E+02  0.28845375623E+02  0.38404502372E+02  0.60999407119E+02  0.00000000000E+00 0.  1.
         22    1    1    2    0    0  0.29867759160E+01 -0.10150365938E+02  0.53958619462E+01  0.11877124449E+02  0.00000000000E+00 0. -1.
<mgrwt>
<rscale>  0 0.54191472E+02</rscale>
<asrwt>0</asrwt>
<pdfrwt beam="1">  1        2 0.45390054E-02 0.93412162E+02</pdfrwt>
<pdfrwt beam="2">  1       -2 0.14107511E-01 0.93412162E+02</pdfrwt>
<totfact> 0.58177154E+04</totfact>
</mgrwt>
</event>
<event>
 6    1  0.2995420E-002  0.9358798E+02  0.7546771E-02  0.1420073E+00
          1   -1    0    0  501    0  0.00000000000E+00  0.00000000000E+00  0.39245340369E+03  0.39245340369E+03  0.00000000000E+00 0. -1.
         -1   -1    0    0    0  501 -0.00000000000E+00 -0.00000000000E+00 -0.77708500491E+01  0.77708500491E+01  0.00000000000E+00 0.  1.
         23    2    1    2    0    0  0.11096846025E+02 -0.12554699812E+01  0.37068973210E+03  0.38232131400E+03  0.92919284649E+02 0.  0.
         11    1    3    3    0    0 -0.22991627890E+02  0.12913432177E+02  0.31290090726E+02  0.40919939654E+02  0.00000000000E+00 0.  1.
        -11    1    3    3    0    0  0.34088473915E+02 -0.14168902158E+02  0.33939964137E+03  0.34140137435E+03  0.00000000000E+00 0. -1.
         22    1    1    2    0    0 -0.11096846025E+02  0.12554699812E+01  0.13992821546E+02  0.17902939741E+02  0.00000000000E+00 0.  1.
<mgrwt>
<rscale>  0 0.55005410E+02</rscale>
<asrwt>0</asrwt>
<pdfrwt beam="1">  1        1 0.60377431E-01 0.93587978E+02</pdfrwt>
<pdfrwt beam="2">  1       -1 0.11955157E-02 0.93587978E+02</pdfrwt>
<totfact> 0.78579677E+04</totfact>
</mgrwt>
</event>
<event>
 6    1  0.2995420E-002  0.1006445E+03  0.7546771E-02  0.1399309E+00
         -2   -1    0    0    0  501 -0.00000000000E+00  0.00000000000E+00  0.13980623723E+02  0.13980623723E+02  0.00000000000E+00 0.  1.
          2   -1    0    0  501    0  0.00000000000E+00 -0.00000000000E+00 -0.49476990388E+03  0.49476990388E+03  0.00000000000E+00 0. -1.
         23    2    1    2    0    0 -0.21532809432E+01  0.12230025341E+02 -0.48523344151E+03  0.49556111106E+03  0.99875481974E+02 0.  0.
         13    1    3    3    0    0 -0.14039066188E+02 -0.42325427461E+02 -0.23170939873E+03  0.23596140076E+03  0.00000000000E+00 0.  1.
        -13    1    3    3    0    0  0.11885785245E+02  0.54555452802E+02 -0.25352404277E+03  0.25959971030E+03  0.00000000000E+00 0. -1.
         22    1    1    2    0    0  0.21532809432E+01 -0.12230025341E+02  0.44441613494E+01  0.13189416544E+02  0.00000000000E+00 0.  1.
<mgrwt>
<rscale>  0 0.59649493E+02</rscale>
<asrwt>0</asrwt>
<pdfrwt beam="1">  1        2 0.76118435E-01 0.10064453E+03</pdfrwt>
<pdfrwt beam="2">  1       -2 0.21508655E-02 0.10064453E+03</pdfrwt>
<totfact> 0.39352483E+04</totfact>
</mgrwt>
</event>
<event>
 6    1  0.2995420E-002  0.9207147E+02  0.7546771E-02  0.1422807E+00
         -2   -1    0    0    0  501 -0.00000000000E+00  0.00000000000E+00  0.35495451138E+01  0.35495451138E+01  0.00000000000E+00 0.  1.
          2   -1    0    0  501    0  0.00000000000E+00 -0.00000000000E+00 -0.75667641741E+03  0.75667641741E+03  0.00000000000E+00 0. -1.
         23    2    1    2    0    0 -0.96093397999E+00 -0.11205499366E+02 -0.68830248151E+03  0.69443319506E+03  0.91381998959E+02 0.  0.
         13    1    3    3    0    0  0.12149762213E+02  0.33860858712E+02 -0.45718411899E+03  0.45859731043E+03  0.00000000000E+00 0. -1.
        -13    1    3    3    0    0 -0.13110696193E+02 -0.45066358078E+02 -0.23111836252E+03  0.23583588463E+03  0.00000000000E+00 0.  1.
         22    1    1    2    0    0  0.96093397999E+00  0.11205499366E+02 -0.64824390783E+02  0.65792767464E+02  0.00000000000E+00 0. -1.
<mgrwt>
<rscale>  0 0.54431386E+02</rscale>
<asrwt>0</asrwt>
<pdfrwt beam="1">  1        2 0.11641162E+00 0.92071474E+02</pdfrwt>
<pdfrwt beam="2">  1       -2 0.54608451E-03 0.92071474E+02</pdfrwt>
<totfact> 0.16865670E+05</totfact>
</mgrwt>
</event>
<event>
 6    1  0.2995420E-002  0.9110737E+02  0.7546771E-02  0.1413525E+00
         -2   -1    0    0    0  501 -0.00000000000E+00  0.00000000000E+00  0.39001250688E+01  0.39001250688E+01  0.00000000000E+00 0. -1.
          2   -1    0    0  501    0  0.00000000000E+00 -0.00000000000E+00 -0.11193427879E+04  0.11193427879E+04  0.00000000000E+00 0.  1.
         23    2    1    2    0    0 -0.16735537748E+01  0.13288964299E+02 -0.10951213874E+04  0.10989046388E+04  0.90117449201E+02 0.  0.
         13    1    3    3    0    0  0.18781790445E+02  0.11722842885E+02 -0.66697473858E+02  0.70276124798E+02  0.00000000000E+00 0. -1.
        -13    1    3    3    0    0 -0.20455344220E+02  0.15661214140E+01 -0.10284239136E+04  0.10286285140E+04  0.00000000000E+00 0.  1.
         22    1    1    2    0    0  0.16735537748E+01 -0.13288964299E+02 -0.20321275348E+02  0.24338274100E+02  0.00000000000E+00 0. -1.
<mgrwt>
<rscale>  0 0.56414679E+02</rscale>
<asrwt>0</asrwt>
<pdfrwt beam="1">  1        2 0.17220673E+00 0.91107365E+02</pdfrwt>
<pdfrwt beam="2">  1       -2 0.60001872E-03 0.91107365E+02</pdfrwt>
<totfact> 0.88569468E+04</totfact>
</mgrwt>
</event>
<event>
 6    1  0.2995420E-002  0.9162901E+02  0.7546771E-02  0.1406550E+00
          1   -1    0    0  501    0  0.00000000000E+00  0.00000000000E+00  0.43962682242E+02  0.43962682242E+02  0.00000000000E+00 0. -1.
         -1   -1    0    0    0  501 -0.00000000000E+00 -0.00000000000E+00 -0.64303409188E+02  0.64303409188E+02  0.00000000000E+00 0.  1.
         23    2    1    2    0    0  0.54357643034E+01 -0.13637057875E+02 -0.16660750447E+02  0.93131392620E+02  0.90445336004E+02 0.  0.
         11    1    3    3    0    0  0.40321533129E+02  0.15626311419E+02  0.33937421091E+01  0.43376550438E+02  0.00000000000E+00 0.  1.
        -11    1    3    3    0    0 -0.34885768825E+02 -0.29263369293E+02 -0.20054492556E+02  0.49754842182E+02  0.00000000000E+00 0. -1.
         22    1    1    2    0    0 -0.54357643034E+01  0.13637057875E+02 -0.36799764990E+01  0.15134698810E+02  0.00000000000E+00 0.  1.
<mgrwt>
<rscale>  0 0.57970882E+02</rscale>
<asrwt>0</asrwt>
<pdfrwt beam="1">  1        1 0.67634895E-02 0.91629011E+02</pdfrwt>
<pdfrwt beam="2">  1       -1 0.98928323E-02 0.91629011E+02</pdfrwt>
<totfact> 0.58068102E+04</totfact>
</mgrwt>
</event>
<event>
 6    1  0.2995420E-002  0.1027770E+03  0.7546771E-02  0.1320311E+00
          1   -1    0    0  501    0  0.00000000000E+00  0.00000000000E+00  0.20144592738E+04  0.20144592738E+04  0.00000000000E+00 0. -1.
         -1   -1    0    0    0  501 -0.00000000000E+00 -0.00000000000E+00 -0.61132184826E+01  0.61132184826E+01  0.00000000000E+00 0.  1.
         23    2    1    2    0    0 -0.74749219940E+01  0.43417023204E+02  0.19105361421E+04  0.19132985836E+04  0.92855841783E+02 0.  0.
         11    1    3    3    0    0  0.38857368787E+02  0.69168129199E+01  0.51188508671E+03  0.51340440143E+03  0.00000000000E+00 0. -1.
        -11    1    3    3    0    0 -0.46332290781E+02  0.36500210284E+02  0.13986510553E+04  0.13998941821E+04  0.00000000000E+00 0.  1.
         22    1    1    2    0    0  0.74749219940E+01 -0.43417023204E+02  0.97809913278E+02  0.10727390875E+03  0.00000000000E+00 0.  1.
<mgrwt>
<rscale>  0 0.83161596E+02</rscale>
<asrwt>0</asrwt>
<pdfrwt beam="1">  1        1 0.30991628E+00 0.10277704E+03</pdfrwt>
<pdfrwt beam="2">  1       -1 0.94049676E-03 0.10277704E+03</pdfrwt>
<totfact> 0.66192992E+03</totfact>
</mgrwt>
</event>
<event>
 6    1  0.2995420E-002  0.9291386E+02  0.7546771E-02  0.1388708E+00
          2   -1    0    0  501    0  0.00000000000E+00  0.00000000000E+00  0.29103071749E+03  0.29103071749E+03  0.00000000000E+00 0. -1.
         -2   -1    0    0    0  501 -0.00000000000E+00 -0.00000000000E+00 -0.12142395697E+02  0.12142395697E+02  0.00000000000E+00 0.  1.
         23    2    1    2    0    0 -0.18647946770E+02 -0.13296183211E+01  0.26197018627E+03  0.27795928537E+03  0.91013581546E+02 0.  0.
         11    1    3    3    0    0 -0.35869798664E+02 -0.23977453567E+02  0.59484733563E+02  0.73484653247E+02  0.00000000000E+00 0.  1.
        -11    1    3    3    0    0  0.17221851895E+02  0.22647835246E+02  0.20248545271E+03  0.20447463212E+03  0.00000000000E+00 0. -1.
         22    1    1    2    0    0  0.18647946770E+02  0.13296183211E+01  0.16918135522E+02  0.25213827816E+02  0.00000000000E+00 0. -1.
<mgrwt>
<rscale>  0 0.62229087E+02</rscale>
<asrwt>0</asrwt>
<pdfrwt beam="1">  1        2 0.44773951E-01 0.92913862E+02</pdfrwt>
<pdfrwt beam="2">  1       -2 0.18680611E-02 0.92913862E+02</pdfrwt>
<totfact> 0.83578148E+04</totfact>
</mgrwt>
</event>
<event>
 6    1  0.2995420E-002  0.9213221E+02  0.7546771E-02  0.1425421E+00
          2   -1    0    0  501    0  0.00000000000E+00  0.00000000000E+00  0.27023903246E+04  0.27023903246E+04  0.00000000000E+00 0.  1.
         -2   -1    0    0    0  501 -0.00000000000E+00 -0.00000000000E+00 -0.29959496766E+01  0.29959496766E+01  0.00000000000E+00 0. -1.
         23    2    1    2    0    0 -0.60174906916E+00 -0.10767818628E+02  0.26884253572E+04  0.26900035772E+04  0.91498830859E+02 0.  0.
         13    1    3    3    0    0  0.18395109941E+01 -0.28847874595E+02  0.27606936965E+03  0.27757860243E+03  0.00000000000E+00 0. -1.
        -13    1    3    3    0    0 -0.24412600633E+01  0.18080055967E+02  0.24123559875E+04  0.24124249747E+04  0.00000000000E+00 0.  1.
         22    1    1    2    0    0  0.60174906916E+00  0.10767818628E+02  0.10969017741E+02  0.15382697103E+02  0.00000000000E+00 0. -1.
<mgrwt>
<rscale>  0 0.53890203E+02</rscale>
<asrwt>0</asrwt>
<pdfrwt beam="1">  1        2 0.41575041E+00 0.92132210E+02</pdfrwt>
<pdfrwt beam="2">  1       -2 0.46091750E-03 0.92132210E+02</pdfrwt>
<totfact> 0.19537731E+04</totfact>
</mgrwt>
</event>
<event>
 6    1  0.2995420E-002  0.9153428E+02  0.7546771E-02  0.1346810E+00
          1   -1    0    0  501    0  0.00000000000E+00  0.00000000000E+00  0.95933028934E+03  0.95933028934E+03  0.00000000000E+00 0. -1.
         -1   -1    0    0    0  501 -0.00000000000E+00 -0.00000000000E+00 -0.45675613339E+01  0.45675613339E+01  0.00000000000E+00 0.  1.
         23    2    1    2    0    0 -0.35352239723E+02  0.16993922608E+02  0.73296750673E+03  0.73866087671E+03  0.82703993873E+02 0.  0.
         11    1    3    3    0    0 -0.55422642691E+02  0.45744930505E+01  0.65077365901E+03  0.65314542835E+03  0.00000000000E+00 0. -1.
        -11    1    3    3    0    0  0.20070402969E+02  0.12419429557E+02  0.82193847720E+02  0.85515448364E+02  0.00000000000E+00 0.  1.
         22    1    1    2    0    0  0.35352239723E+02 -0.16993922608E+02  0.22179522127E+03  0.22523697396E+03  0.00000000000E+00 0.  1.
<mgrwt>
<rscale>  0 0.74058966E+02</rscale>
<asrwt>0</asrwt>
<pdfrwt beam="1">  1        1 0.14758911E+00 0.91534282E+02</pdfrwt>
<pdfrwt beam="2">  1       -1 0.70270251E-03 0.91534282E+02</pdfrwt>
<totfact> 0.48437879E+04</totfact>
</mgrwt>
</event>
<event>
 6    1  0.2995420E-002  0.9259083E+02  0.7546771E-02  0.1408980E+00
          2   -1    0    0  501    0  0.00000000000E+00  0.00000000000E+00  0.21217458453E+04  0.21217458453E+04  0.00000000000E+00 0. -1.
         -2   -1    0    0    0  501 -0.00000000000E+00 -0.00000000000E+00 -0.18795326912E+01  0.18795326912E+01  0.00000000000E+00 0.  1.
         23    2    1    2    0    0 -0.88200715225E+01  0.10478767460E+02  0.20650190374E+04  0.20670937777E+04  0.91572173264E+02 0.  0.
         13    1    3    3    0    0 -0.27853552116E+01  0.16186787878E+02  0.20488501463E+04  0.20489159798E+04  0.00000000000E+00 0. -1.
        -13    1    3    3    0    0 -0.60347163109E+01 -0.57080204178E+01  0.16168891021E+02  0.18177797856E+02  0.00000000000E+00 0.  1.
         22    1    1    2    0    0  0.88200715225E+01 -0.10478767460E+02  0.54847275200E+02  0.56531600243E+02  0.00000000000E+00 0.  1.
<mgrwt>
<rscale>  0 0.57422165E+02</rscale>
<asrwt>0</asrwt>
<pdfrwt beam="1">  1        2 0.32642052E+00 0.92590826E+02</pdfrwt>
<pdfrwt beam="2">  1       -2 0.28916057E-03 0.92590826E+02</pdfrwt>
<totfact> 0.75210506E+04</totfact>
</mgrwt>
</event>
<event>
 6    1  0.2995420E-002  0.9525847E+02  0.7546771E-02  0.1422425E+00
          2   -1    0    0  501    0  0.00000000000E+00  0.00000000000E+00  0.26717755981E+02  0.26717755981E+02  0.00000000000E+00 0. -1.
         -2   -1    0    0    0  501 -0.00000000000E+00 -0.00000000000E+00 -0.10471380000E+03  0.10471380000E+03  0.00000000000E+00 0.  1.
         23    2    1    2    0    0 -0.95644385550E+01  0.35866498948E+01 -0.67248819786E+02  0.11660437246E+03  0.94709204267E+02 0.  0.
         11    1    3    3    0    0 -0.40208636992E+00 -0.47360474980E+01 -0.90307991749E+02  0.90432987306E+02  0.00000000000E+00 0.  1.
        -11    1    3    3    0    0 -0.91623521851E+01  0.83226973928E+01  0.23059171963E+02  0.26171385158E+02  0.00000000000E+00 0. -1.
         22    1    1    2    0    0  0.95644385550E+01 -0.35866498948E+01 -0.10747224236E+02  0.14827183519E+02  0.00000000000E+00 0.  1.
<mgrwt>
<rscale>  0 0.54511154E+02</rscale>
<asrwt>0</asrwt>
<pdfrwt beam="1">  1        2 0.41104240E-02 0.95258469E+02</pdfrwt>
<pdfrwt beam="2">  1       -2 0.16109815E-01 0.95258469E+02</pdfrwt>
<totfact> 0.53548032E+04</totfact>
</mgrwt>
</event>
<event>
 6    1  0.2995420E-002  0.9332539E+02  0.7546771E-02  0.1388592E+00
          2   -1    0    0  501    0  0.00000000000E+00  0.00000000000E+00  0.19727285325E+04  0.19727285325E+04  0.00000000000E+00 0. -1.
         -2   -1    0    0    0  501 -0.00000000000E+00 -0.00000000000E+00 -0.28015919185E+01  0.28015919185E+01  0.00000000000E+00 0.  1.
         23    2    1    2    0    0  0.86422516975E+01  0.16338926359E+02  0.19204022397E+04  0.19226685597E+04  0.91476658925E+02 0.  0.
         13    1    3    3    0    0  0.42512239671E+02 -0.73431143445E+01  0.56843348742E+03  0.57006827790E+03  0.00000000000E+00 0.  1.
        -13    1    3    3    0    0 -0.33869987974E+02  0.23682040703E+02  0.13519687523E+04  0.13526002818E+04  0.00000000000E+00 0. -1.
         22    1    1    2    0    0 -0.86422516975E+01 -0.16338926359E+02  0.49524700928E+02  0.52861564780E+02  0.00000000000E+00 0.  1.
<mgrwt>
<rscale>  0 0.62258317E+02</rscale>
<asrwt>0</asrwt>
<pdfrwt beam="1">  1        2 0.30349559E+00 0.93325389E+02</pdfrwt>
<pdfrwt beam="2">  1       -2 0.43101572E-03 0.93325389E+02</pdfrwt>
<totfact> 0.51253990E+04</totfact>
</mgrwt>
</event>
<event>
 6    1  0.2995420E-002  0.9099522E+02  0.7546771E-02  0.1426128E+00
          2   -1    0    0  501    0  0.00000000000E+00  0.00000000000E+00  0.43180840686E+02  0.43180840686E+02  0.00000000000E+00 0.  1.
         -2   -1    0    0    0  501 -0.00000000000E+00 -0.00000000000E+00 -0.66740096745E+02  0.66740096745E+02  0.00000000000E+00 0. -1.
         23    2    1    2    0    0  0.68635211677E+00 -0.11052701478E+02 -0.87299128353E+01  0.91413028050E+02  0.90318863091E+02 0.  0.
         11    1    3    3    0    0  0.10678971768E+01  0.35449302459E+02  0.15812304302E+02  0.38830689107E+02  0.00000000000E+00 0. -1.
        -11    1    3    3    0    0 -0.38154506003E+00 -0.46502003936E+02 -0.24542217137E+02  0.52582338943E+02  0.00000000000E+00 0.  1.
         22    1    1    2    0    0 -0.68635211677E+00  0.11052701478E+02 -0.14829343224E+02  0.18507909381E+02  0.00000000000E+00 0. -1.
<mgrwt>
<rscale>  0 0.53745238E+02</rscale>
<asrwt>0</asrwt>
<pdfrwt beam="1">  1        2 0.66432063E-02 0.90995221E+02</pdfrwt>
<pdfrwt beam="2">  1       -2 0.10267707E-01 0.90995221E+02</pdfrwt>
<totfact> 0.58820424E+04</totfact>
</mgrwt>
</event>
<event>
 6    1  0.2995420E-002  0.9087588E+02  0.7546771E-02  0.1421490E+00
         -2   -1    0    0    0  501 -0.00000000000E+00  0.00000000000E+00  0.37361146802E+02  0.37361146802E+02  0.00000000000E+00 0. -1.
          2   -1    0    0  501    0  0.00000000000E+00 -0.00000000000E+00 -0.70762920082E+02  0.70762920082E+02  0.00000000000E+00 0.  1.
         23    2    1    2    0    0  0.11597656666E+02  0.28175010305E+01 -0.28760167641E+02  0.95318269170E+02  0.90088740932E+02 0.  0.
         13    1    3    3    0    0  0.34808854087E+02 -0.32703205403E+02 -0.21036485580E+02  0.52188980562E+02  0.00000000000E+00 0.  1.
        -13    1    3    3    0    0 -0.23211197422E+02  0.35520706434E+02 -0.77236820605E+01  0.43129288608E+02  0.00000000000E+00 0. -1.
         22    1    1    2    0    0 -0.11597656666E+02 -0.28175010305E+01 -0.46416056393E+01  0.12805797715E+02  0.00000000000E+00 0. -1.
<mgrwt>
<rscale>  0 0.54706882E+02</rscale>
<asrwt>0</asrwt>
<pdfrwt beam="1">  1        2 0.10886603E-01 0.90875878E+02</pdfrwt>
<pdfrwt beam="2">  1       -2 0.57478687E-02 0.90875878E+02</pdfrwt>
<totfact> 0.77530172E+04</totfact>
</mgrwt>
</event>
<event>
 6    1  0.2995420E-002  0.9129589E+02  0.7546771E-02  0.1405474E+00
          2   -1    0    0  501    0  0.00000000000E+00  0.00000000000E+00  0.65420866984E+03  0.65420866984E+03  0.00000000000E+00 0. -1.
         -2   -1    0    0    0  501 -0.00000000000E+00 -0.00000000000E+00 -0.44323596657E+01  0.44323596657E+01  0.00000000000E+00 0.  1.
         23    2    1    2    0    0  0.11781482336E+02  0.94363326971E+01  0.58811863576E+03  0.59516255666E+03  0.90039388157E+02 0.  0.
         11    1    3    3    0    0  0.11434767181E+02 -0.39839415494E+02  0.23589339121E+03  0.23950704570E+03  0.00000000000E+00 0. -1.
        -11    1    3    3    0    0  0.34671515478E+00  0.49275748191E+02  0.35222524455E+03  0.35565551095E+03  0.00000000000E+00 0.  1.
         22    1    1    2    0    0 -0.11781482336E+02 -0.94363326971E+01  0.61657674416E+02  0.63478472849E+02  0.00000000000E+00 0.  1.
<mgrwt>
<rscale>  0 0.58216219E+02</rscale>
<asrwt>0</asrwt>
<pdfrwt beam="1">  1        2 0.10064741E+00 0.91295888E+02</pdfrwt>
<pdfrwt beam="2">  1       -2 0.68190201E-03 0.91295888E+02</pdfrwt>
<totfact> 0.14615499E+05</totfact>
</mgrwt>
</event>
<event>
 6    1  0.2995420E-002  0.9300834E+02  0.7546771E-02  0.1403756E+00
         -2   -1    0    0    0  501 -0.00000000000E+00  0.00000000000E+00  0.80804849269E+02  0.80804849269E+02  0.00000000000E+00 0.  1.
          2   -1    0    0  501    0  0.00000000000E+00 -0.00000000000E+00 -0.39252470995E+02  0.39252470995E+02  0.00000000000E+00 0. -1.
         23    2    1    2    0    0  0.14428009557E+02 -0.26373892823E+01  0.21929331589E+02  0.95558601048E+02  0.91844582684E+02 0.  0.
         13    1    3    3    0    0 -0.10865828532E+02  0.26240622621E+02 -0.22939538144E+02  0.36508340355E+02  0.00000000000E+00 0. -1.
        -13    1    3    3    0    0  0.25293838089E+02 -0.28878011903E+02  0.44868869734E+02  0.59050260693E+02  0.00000000000E+00 0.  1.
         22    1    1    2    0    0 -0.14428009557E+02  0.26373892823E+01  0.19623046684E+02  0.24498719215E+02  0.00000000000E+00 0. -1.
<mgrwt>
<rscale>  0 0.58610758E+02</rscale>
<asrwt>0</asrwt>
<pdfrwt beam="1">  1        2 0.60388417E-02 0.93008336E+02</pdfrwt>
<pdfrwt beam="2">  1       -2 0.12431515E-01 0.93008336E+02</pdfrwt>
<totfact> 0.49289876E+04</totfact>
</mgrwt>
</event>
<event>
 6    1  0.2995420E-002  0.9092870E+02  0.7546771E-02  0.1408089E+00
          2   -1    0    0  501    0  0.00000000000E+00  0.00000000000E+00  0.17077923553E+04  0.17077923553E+04  0.00000000000E+00 0. -1.
         -2   -1    0    0    0  501 -0.00000000000E+00 -0.00000000000E+00 -0.19958856886E+01  0.19958856886E+01  0.00000000000E+00 0.  1.
         23    2    1    2    0    0  0.11083876541E+02 -0.96016982238E+01  0.16329914001E+04  0.16355210001E+04  0.89738419422E+02 0.  0.
         11    1    3    3    0    0  0.46187787512E+02 -0.63607606133E+01  0.12613310121E+04  0.12621924152E+04  0.00000000000E+00 0. -1.
        -11    1    3    3    0    0 -0.35103910971E+02 -0.32409376106E+01  0.37166038802E+03  0.37332858484E+03  0.00000000000E+00 0.  1.
         22    1    1    2    0    0 -0.11083876541E+02  0.96016982238E+01  0.72805069477E+02  0.74267240890E+02  0.00000000000E+00 0.  1.
<mgrwt>
<rscale>  0 0.57622473E+02</rscale>
<asrwt>0</asrwt>
<pdfrwt beam="1">  1        2 0.26273612E+00 0.90928702E+02</pdfrwt>
<pdfrwt beam="2">  1       -2 0.30706070E-03 0.90928702E+02</pdfrwt>
<totfact> 0.11147971E+05</totfact>
</mgrwt>
</event>
<event>
 6    1  0.2995420E-002  0.9015925E+02  0.7546771E-02  0.1415550E+00
         -2   -1    0    0    0  501 -0.00000000000E+00  0.00000000000E+00  0.29624450267E+01  0.29624450267E+01  0.00000000000E+00 0.  1.
          2   -1    0    0  501    0  0.00000000000E+00 -0.00000000000E+00 -0.10340657915E+04  0.10340657915E+04  0.00000000000E+00 0. -1.
         23    2    1    2    0    0 -0.10906122548E+02 -0.77748132264E+01 -0.98202670571E+03  0.98615675239E+03  0.89158837602E+02 0.  0.
         13    1    3    3    0    0 -0.77425246777E+01  0.24394989005E+02 -0.84428671825E+03  0.84467456739E+03  0.00000000000E+00 0. -1.
        -13    1    3    3    0    0 -0.31635978706E+01 -0.32169802232E+02 -0.13773998746E+03  0.14148218500E+03  0.00000000000E+00 0.  1.
         22    1    1    2    0    0  0.10906122548E+02  0.77748132264E+01 -0.49076640724E+02  0.50871484100E+02  0.00000000000E+00 0.  1.
<mgrwt>
<rscale>  0 0.55973550E+02</rscale>
<asrwt>0</asrwt>
<pdfrwt beam="1">  1        2 0.15908702E+00 0.90159246E+02</pdfrwt>
<pdfrwt beam="2">  1       -2 0.45576085E-03 0.90159246E+02</pdfrwt>
<totfact> 0.14536699E+05</totfact>
</mgrwt>
</event>
<event>
 6    1  0.2995420E-002  0.9129705E+02  0.7546771E-02  0.1419027E+00
          1   -1    0    0  501    0  0.00000000000E+00  0.00000000000E+00  0.20569058175E+02  0.20569058175E+02  0.00000000000E+00 0. -1.
         -1   -1    0    0    0  501 -0.00000000000E+00 -0.00000000000E+00 -0.13092265650E+03  0.13092265650E+03  0.00000000000E+00 0.  1.
         23    2    1    2    0    0  0.90120504972E+01  0.82601103782E+01 -0.10061388622E+03  0.13586134458E+03  0.90474882545E+02 0.  0.
         11    1    3    3    0    0  0.19905004517E+02  0.15111739970E+02  0.81898879531E+01  0.26299204445E+02  0.00000000000E+00 0. -1.
        -11    1    3    3    0    0 -0.10892954020E+02 -0.68516295915E+01 -0.10880377417E+03  0.10956214013E+03  0.00000000000E+00 0.  1.
         22    1    1    2    0    0 -0.90120504972E+01 -0.82601103782E+01 -0.97397121059E+01  0.15630370102E+02  0.00000000000E+00 0.  1.
<mgrwt>
<rscale>  0 0.55227230E+02</rscale>
<asrwt>0</asrwt>
<pdfrwt beam="1">  1        1 0.31644706E-02 0.91297047E+02</pdfrwt>
<pdfrwt beam="2">  1       -1 0.20141947E-01 0.91297047E+02</pdfrwt>
<totfact> 0.54062134E+04</totfact>
</mgrwt>
</event>
<event>
 6    1  0.2995420E-002  0.1073356E+03  0.7546771E-02  0.1296943E+00
         -2   -1    0    0    0  501 -0.00000000000E+00  0.00000000000E+00  0.55528203185E+02  0.55528203185E+02  0.00000000000E+00 0.  1.
          2   -1    0    0  501    0  0.00000000000E+00 -0.00000000000E+00 -0.16185966632E+03  0.16185966632E+03  0.00000000000E+00 0. -1.
         23    2    1    2    0    0  0.49075106299E+02 -0.33045825293E+02 -0.11532270975E+03  0.15754444762E+03  0.89557428306E+02 0.  0.
         13    1    3    3    0    0  0.72261759713E+02 -0.23511565387E+02 -0.10677867281E+03  0.13105815728E+03  0.00000000000E+00 0. -1.
        -13    1    3    3    0    0 -0.23186653415E+02 -0.95342599051E+01 -0.85440369368E+01  0.26486290334E+02  0.00000000000E+00 0.  1.
         22    1    1    2    0    0 -0.49075106299E+02  0.33045825293E+02  0.89912466111E+01  0.59843421887E+02  0.00000000000E+00 0.  1.
<mgrwt>
<rscale>  0 0.92485225E+02</rscale>
<asrwt>0</asrwt>
<pdfrwt beam="1">  1        2 0.24901487E-01 0.10733557E+03</pdfrwt>
<pdfrwt beam="2">  1       -2 0.85428007E-02 0.10733557E+03</pdfrwt>
<totfact> 0.16788040E+04</totfact>
</mgrwt>
</event>
<event>
 6    1  0.2995420E-002  0.9784637E+02  0.7546771E-02  0.1368423E+00
          2   -1    0    0  501    0  0.00000000000E+00  0.00000000000E+00  0.30987464984E+03  0.30987464984E+03  0.00000000000E+00 0. -1.
         -2   -1    0    0    0  501 -0.00000000000E+00 -0.00000000000E+00 -0.13369361927E+02  0.13369361927E+02  0.00000000000E+00 0.  1.
         23    2    1    2    0    0  0.15459825335E+02 -0.16074321097E+02  0.27643382723E+03  0.29323978653E+03  0.95270780250E+02 0.  0.
         11    1    3    3    0    0 -0.20012957370E+02  0.31011939871E+02  0.13633564526E+03  0.14124329027E+03  0.00000000000E+00 0. -1.
        -11    1    3    3    0    0  0.35472782704E+02 -0.47086260969E+02  0.14009818197E+03  0.15199649626E+03  0.00000000000E+00 0.  1.
         22    1    1    2    0    0 -0.15459825335E+02  0.16074321097E+02  0.20071460685E+02  0.30004225238E+02  0.00000000000E+00 0. -1.
<mgrwt>
<rscale>  0 0.67607622E+02</rscale>
<asrwt>0</asrwt>
<pdfrwt beam="1">  1        2 0.47673018E-01 0.97846367E+02</pdfrwt>
<pdfrwt beam="2">  1       -2 0.20568251E-02 0.97846367E+02</pdfrwt>
<totfact> 0.68644938E+04</totfact>
</mgrwt>
</event>
<event>
 6    1  0.2995420E-002  0.9050072E+02  0.7546771E-02  0.1426744E+00
          1   -1    0    0  501    0  0.00000000000E+00  0.00000000000E+00  0.20102310425E+03  0.20102310425E+03  0.00000000000E+00 0. -1.
         -1   -1    0    0    0  501 -0.00000000000E+00 -0.00000000000E+00 -0.14218647645E+02  0.14218647645E+02  0.00000000000E+00 0.  1.
         23    2    1    2    0    0 -0.81358669991E+01 -0.76260634686E+01  0.18167276410E+03  0.20296643341E+03  0.89811083393E+02 0.  0.
         11    1    3    3    0    0  0.37462525611E+02 -0.18209503814E+02  0.64403702780E+02  0.76699829113E+02  0.00000000000E+00 0.  1.
        -11    1    3    3    0    0 -0.45598392610E+02  0.10583440345E+02  0.11726906132E+03  0.12626660430E+03  0.00000000000E+00 0. -1.
         22    1    1    2    0    0  0.81358669991E+01  0.76260634686E+01  0.51316925030E+01  0.12275318481E+02  0.00000000000E+00 0.  1.
<mgrwt>
<rscale>  0 0.53619083E+02</rscale>
<asrwt>0</asrwt>
<pdfrwt beam="1">  1        1 0.30926629E-01 0.90500718E+02</pdfrwt>
<pdfrwt beam="2">  1       -1 0.21874844E-02 0.90500718E+02</pdfrwt>
<totfact> 0.75180001E+04</totfact>
</mgrwt>
</event>
<event>
 6    1  0.2995420E-002  0.9183491E+02  0.7546771E-02  0.1426442E+00
         -2   -1    0    0    0  501 -0.00000000000E+00  0.00000000000E+00  0.37643248838E+01  0.37643248838E+01  0.00000000000E+00 0.  1.
          2   -1    0    0  501    0  0.00000000000E+00 -0.00000000000E+00 -0.73712902062E+03  0.73712902062E+03  0.00000000000E+00 0. -1.
         23    2    1    2    0    0  0.99458078304E+01 -0.40041189307E+01 -0.69560803787E+03  0.70164392162E+03  0.91206898523E+02 0.  0.
         13    1    3    3    0    0  0.45647177202E+02  0.19227728786E+01 -0.22184787572E+03  0.22650351389E+03  0.00000000000E+00 0.  1.
        -13    1    3    3    0    0 -0.35701369372E+02 -0.59268918093E+01 -0.47376016214E+03  0.47514040773E+03  0.00000000000E+00 0. -1.
         22    1    1    2    0    0 -0.99458078304E+01  0.40041189307E+01 -0.37756657866E+02  0.39249423881E+02  0.00000000000E+00 0.  1.
<mgrwt>
<rscale>  0 0.53680981E+02</rscale>
<asrwt>0</asrwt>
<pdfrwt beam="1">  1        2 0.11340444E+00 0.91834908E+02</pdfrwt>
<pdfrwt beam="2">  1       -2 0.57912701E-03 0.91834908E+02</pdfrwt>
<totfact> 0.16016581E+05</totfact>
</mgrwt>
</event>
<event>
 6    1  0.2995420E-002  0.9383680E+02  0.7546771E-02  0.1383460E+00
          2   -1    0    0  501    0  0.00000000000E+00  0.00000000000E+00  0.60342138939E+03  0.60342138939E+03  0.00000000000E+00 0. -1.
         -2   -1    0    0    0  501 -0.00000000000E+00 -0.00000000000E+00 -0.85547930418E+01  0.85547930418E+01  0.00000000000E+00 0.  1.
         23    2    1    2    0    0  0.19744514897E+02 -0.67374239497E+00  0.57922783772E+03  0.58677954438E+03  0.91733559435E+02 0.  0.
         11    1    3    3    0    0  0.49624271502E+02  0.16878311794E+02  0.23306391269E+03  0.23888539748E+03  0.00000000000E+00 0.  1.
        -11    1    3    3    0    0 -0.29879756605E+02 -0.17552054189E+02  0.34616392503E+03  0.34789414691E+03  0.00000000000E+00 0. -1.
         22    1    1    2    0    0 -0.19744514897E+02  0.67374239497E+00  0.15638758635E+02  0.25196638049E+02  0.00000000000E+00 0. -1.
<mgrwt>
<rscale>  0 0.63563045E+02</rscale>
<asrwt>0</asrwt>
<pdfrwt beam="1">  1        2 0.92834027E-01 0.93836804E+02</pdfrwt>
<pdfrwt beam="2">  1       -2 0.13161225E-02 0.93836804E+02</pdfrwt>
<totfact> 0.63400000E+04</totfact>
</mgrwt>
</event>
<event>
 6    1  0.2995420E-002  0.9265826E+02  0.7546771E-02  0.1393342E+00
         -2   -1    0    0    0  501 -0.00000000000E+00  0.00000000000E+00  0.54489625239E+01  0.54489625239E+01  0.00000000000E+00 0.  1.
          2   -1    0    0  501    0  0.00000000000E+00 -0.00000000000E+00 -0.70938326379E+03  0.70938326379E+03  0.00000000000E+00 0. -1.
         23    2    1    2    0    0 -0.17461556321E+02  0.11540623577E+01 -0.67251544440E+03  0.67886860058E+03  0.90990747277E+02 0.  0.
         13    1    3    3    0    0 -0.40690255877E+02 -0.25329129475E+02 -0.52594223733E+03  0.52812167038E+03  0.00000000000E+00 0. -1.
        -13    1    3    3    0    0  0.23228699556E+02  0.26483191832E+02 -0.14657320707E+03  0.15074693020E+03  0.00000000000E+00 0.  1.
         22    1    1    2    0    0  0.17461556321E+02 -0.11540623577E+01 -0.31418856869E+02  0.35963625735E+02  0.00000000000E+00 0. -1.
<mgrwt>
<rscale>  0 0.61083016E+02</rscale>
<asrwt>0</asrwt>
<pdfrwt beam="1">  1        2 0.10913596E+00 0.92658264E+02</pdfrwt>
<pdfrwt beam="2">  1       -2 0.83830137E-03 0.92658264E+02</pdfrwt>
<totfact> 0.99676310E+04</totfact>
</mgrwt>
</event>
<event>
 6    1  0.2995420E-002  0.9846010E+02  0.7546771E-02  0.1338529E+00
         -2   -1    0    0    0  501 -0.00000000000E+00  0.00000000000E+00  0.46906322905E+02  0.46906322905E+02  0.00000000000E+00 0.  1.
          2   -1    0    0  501    0  0.00000000000E+00 -0.00000000000E+00 -0.97481873091E+02  0.97481873091E+02  0.00000000000E+00 0. -1.
         23    2    1    2    0    0  0.35484875592E+02 -0.79131222414E+01 -0.41939146096E+02  0.10702000933E+03  0.91501893540E+02 0.  0.
         11    1    3    3    0    0 -0.17368885328E+02  0.26849516005E+02 -0.27397006036E+02  0.42109032605E+02  0.00000000000E+00 0.  1.
        -11    1    3    3    0    0  0.52853760920E+02 -0.34762638246E+02 -0.14542140061E+02  0.64910976720E+02  0.00000000000E+00 0. -1.
         22    1    1    2    0    0 -0.35484875592E+02  0.79131222414E+01 -0.86364040898E+01  0.37368186670E+02  0.00000000000E+00 0.  1.
<mgrwt>
<rscale>  0 0.76752169E+02</rscale>
<asrwt>0</asrwt>
<pdfrwt beam="1">  1        2 0.14997211E-01 0.98460096E+02</pdfrwt>
<pdfrwt beam="2">  1       -2 0.72163576E-02 0.98460096E+02</pdfrwt>
<totfact> 0.38108119E+04</totfact>
</mgrwt>
</event>
<event>
 6    1  0.2995420E-002  0.9462383E+02  0.7546771E-02  0.1378978E+00
         -2   -1    0    0    0  501 -0.00000000000E+00  0.00000000000E+00  0.49530560153E+02  0.49530560153E+02  0.00000000000E+00 0.  1.
          2   -1    0    0  501    0  0.00000000000E+00 -0.00000000000E+00 -0.68833110012E+02  0.68833110012E+02  0.00000000000E+00 0. -1.
         23    2    1    2    0    0  0.41712587667E+01 -0.20301326149E+02 -0.22833026582E+02  0.97339695540E+02  0.92326193368E+02 0.  0.
         11    1    3    3    0    0  0.45160255269E+02  0.63592075828E+01 -0.13483015006E+02  0.47557122187E+02  0.00000000000E+00 0.  1.
        -11    1    3    3    0    0 -0.40988996502E+02 -0.26660533732E+02 -0.93500115762E+01  0.49782573353E+02  0.00000000000E+00 0. -1.
         22    1    1    2    0    0 -0.41712587667E+01  0.20301326149E+02  0.35304767233E+01  0.21023974624E+02  0.00000000000E+00 0.  1.
<mgrwt>
<rscale>  0 0.64733077E+02</rscale>
<asrwt>0</asrwt>
<pdfrwt beam="1">  1        2 0.10589709E-01 0.94623830E+02</pdfrwt>
<pdfrwt beam="2">  1       -2 0.76200862E-02 0.94623830E+02</pdfrwt>
<totfact> 0.52661811E+04</totfact>
</mgrwt>
</event>
<event>
 6    1  0.2995420E-002  0.9217382E+02  0.7546771E-02  0.1419372E+00
         -1   -1    0    0    0  501 -0.00000000000E+00  0.00000000000E+00  0.16499732813E+02  0.16499732813E+02  0.00000000000E+00 0.  1.
          1   -1    0    0  501    0  0.00000000000E+00 -0.00000000000E+00 -0.31681250849E+03  0.31681250849E+03  0.00000000000E+00 0. -1.
         23    2    1    2    0    0  0.11807111512E+02  0.46725301101E+00 -0.30643959749E+03  0.32000193879E+03  0.91413279738E+02 0.  0.
         13    1    3    3    0    0 -0.81873326915E+01  0.43664390603E+02 -0.15702014696E+03  0.16318375525E+03  0.00000000000E+00 0. -1.
        -13    1    3    3    0    0  0.19994444204E+02 -0.43197137592E+02 -0.14941945052E+03  0.15681818354E+03  0.00000000000E+00 0.  1.
         22    1    1    2    0    0 -0.11807111512E+02 -0.46725301101E+00  0.61268218072E+01  0.13310302517E+02  0.00000000000E+00 0. -1.
<mgrwt>
<rscale>  0 0.55153944E+02</rscale>
<asrwt>0</asrwt>
<pdfrwt beam="1">  1        1 0.48740384E-01 0.92173824E+02</pdfrwt>
<pdfrwt beam="2">  1       -1 0.25384205E-02 0.92173824E+02</pdfrwt>
<totfact> 0.34934072E+04</totfact>
</mgrwt>
</event>
<event>
 6    1  0.2995420E-002  0.9296861E+02  0.7546771E-02  0.1414812E+00
          2   -1    0    0  501    0  0.00000000000E+00  0.00000000000E+00  0.80931981398E+03  0.80931981398E+03  0.00000000000E+00 0. -1.
         -2   -1    0    0    0  501 -0.00000000000E+00 -0.00000000000E+00 -0.35019706074E+01  0.35019706074E+01  0.00000000000E+00 0.  1.
         23    2    1    2    0    0 -0.57732258940E+01 -0.10924632320E+02  0.74357190625E+03  0.74936128966E+03  0.92143827483E+02 0.  0.
         11    1    3    3    0    0 -0.22036555847E+02 -0.14683538052E+02  0.71995046723E+03  0.72043729175E+03  0.00000000000E+00 0. -1.
        -11    1    3    3    0    0  0.16263329953E+02  0.37589057321E+01  0.23621439029E+02  0.28923997913E+02  0.00000000000E+00 0.  1.
         22    1    1    2    0    0  0.57732258940E+01  0.10924632320E+02  0.62245937118E+02  0.63460494926E+02  0.00000000000E+00 0. -1.
<mgrwt>
<rscale>  0 0.56133771E+02</rscale>
<asrwt>0</asrwt>
<pdfrwt beam="1">  1        2 0.12451059E+00 0.92968611E+02</pdfrwt>
<pdfrwt beam="2">  1       -2 0.53876535E-03 0.92968611E+02</pdfrwt>
<totfact> 0.15864593E+05</totfact>
</mgrwt>
</event>
<event>
 6    1  0.2995420E-002  0.9236405E+02  0.7546771E-02  0.1419233E+00
          2   -1    0    0  501    0  0.00000000000E+00  0.00000000000E+00  0.88804930657E+03  0.88804930657E+03  0.00000000000E+00 0. -1.
         -2   -1    0    0    0  501 -0.00000000000E+00 -0.00000000000E+00 -0.33939103035E+01  0.33939103035E+01  0.00000000000E+00 0.  1.
         23    2    1    2    0    0 -0.11429615941E+02  0.28045898574E+01  0.84623676064E+03  0.85126245770E+03  0.91611216432E+02 0.  0.
         11    1    3    3    0    0 -0.47992269828E+02 -0.79053158092E+01  0.61378543124E+03  0.61570959679E+03  0.00000000000E+00 0. -1.
        -11    1    3    3    0    0  0.36562653887E+02  0.10709905667E+02  0.23245132941E+03  0.23555286091E+03  0.00000000000E+00 0.  1.
         22    1    1    2    0    0  0.11429615941E+02 -0.28045898574E+01  0.38418635629E+02  0.40180759182E+02  0.00000000000E+00 0.  1.
<mgrwt>
<rscale>  0 0.55183489E+02</rscale>
<asrwt>0</asrwt>
<pdfrwt beam="1">  1        2 0.13662279E+00 0.92364045E+02</pdfrwt>
<pdfrwt beam="2">  1       -2 0.52214075E-03 0.92364045E+02</pdfrwt>
<totfact> 0.14745493E+05</totfact>
</mgrwt>
</event>
<event>
 6    1  0.2995420E-002  0.9936037E+02  0.7546771E-02  0.1388928E+00
         -2   -1    0    0    0  501 -0.00000000000E+00  0.00000000000E+00  0.64666302213E+01  0.64666302213E+01  0.00000000000E+00 0.  1.
          2   -1    0    0  501    0  0.00000000000E+00 -0.00000000000E+00 -0.52514096222E+03  0.52514096222E+03  0.00000000000E+00 0. -1.
         23    2    1    2    0    0  0.76178988458E+01 -0.13191989449E+02 -0.47694145268E+03  0.48718131436E+03  0.98185654772E+02 0.  0.
         13    1    3    3    0    0  0.44808828768E+02  0.19544768484E+02 -0.27011258599E+03  0.27450070714E+03  0.00000000000E+00 0. -1.
        -13    1    3    3    0    0 -0.37190929922E+02 -0.32736757933E+02 -0.20682886670E+03  0.21268060722E+03  0.00000000000E+00 0.  1.
         22    1    1    2    0    0 -0.76178988458E+01  0.13191989449E+02 -0.41732879317E+02  0.44426278086E+02  0.00000000000E+00 0. -1.
<mgrwt>
<rscale>  0 0.62174195E+02</rscale>
<asrwt>0</asrwt>
<pdfrwt beam="1">  1        2 0.80790914E-01 0.99360373E+02</pdfrwt>
<pdfrwt beam="2">  1       -2 0.99486623E-03 0.99360373E+02</pdfrwt>
<totfact> 0.11090059E+05</totfact>
</mgrwt>
</event>
<event>
 6    1  0.2995420E-002  0.9421404E+02  0.7546771E-02  0.1403976E+00
          1   -1    0    0  501    0  0.00000000000E+00  0.00000000000E+00  0.11159968722E+04  0.11159968722E+04  0.00000000000E+00 0. -1.
         -1   -1    0    0    0  501 -0.00000000000E+00 -0.00000000000E+00 -0.31691990707E+01  0.31691990707E+01  0.00000000000E+00 0.  1.
         23    2    1    2    0    0 -0.13489155569E+02  0.39741572090E+01  0.10688629968E+04  0.10730071717E+04  0.93158646306E+02 0.  0.
         13    1    3    3    0    0  0.12617511832E+02  0.42943121642E+02  0.64652609419E+03  0.64807353269E+03  0.00000000000E+00 0. -1.
        -13    1    3    3    0    0 -0.26106667401E+02 -0.38968964433E+02  0.42233690262E+03  0.42493363904E+03  0.00000000000E+00 0.  1.
         22    1    1    2    0    0  0.13489155569E+02 -0.39741572090E+01  0.43964676351E+02  0.46158899577E+02  0.00000000000E+00 0.  1.
<mgrwt>
<rscale>  0 0.58560073E+02</rscale>
<asrwt>0</asrwt>
<pdfrwt beam="1">  1        1 0.17169151E+00 0.94214036E+02</pdfrwt>
<pdfrwt beam="2">  1       -1 0.48756998E-03 0.94214036E+02</pdfrwt>
<totfact> 0.62789216E+04</totfact>
</mgrwt>
</event>
<event>
 6    1  0.2995420E-002  0.9272043E+02  0.7546771E-02  0.1396908E+00
          2   -1    0    0  501    0  0.00000000000E+00  0.00000000000E+00  0.20783410701E+03  0.20783410701E+03  0.00000000000E+00 0.  1.
         -2   -1    0    0    0  501 -0.00000000000E+00 -0.00000000000E+00 -0.14697584751E+02  0.14697584751E+02  0.00000000000E+00 0. -1.
         23    2    1    2    0    0  0.53893256773E+01 -0.15593954386E+02  0.17477201542E+03  0.19784421809E+03  0.91240676320E+02 0.  0.
         13    1    3    3    0    0 -0.17127149054E+01 -0.25174409430E+02  0.27193299050E+01  0.25378712292E+02  0.00000000000E+00 0. -1.
        -13    1    3    3    0    0  0.71020405827E+01  0.95804550436E+01  0.17205268551E+03  0.17246550580E+03  0.00000000000E+00 0.  1.
         22    1    1    2    0    0 -0.53893256773E+01  0.15593954386E+02  0.18364506848E+02  0.24687473675E+02  0.00000000000E+00 0. -1.
<mgrwt>
<rscale>  0 0.60220702E+02</rscale>
<asrwt>0</asrwt>
<pdfrwt beam="1">  1        2 0.31974476E-01 0.92720425E+02</pdfrwt>
<pdfrwt beam="2">  1       -2 0.22611670E-02 0.92720425E+02</pdfrwt>
<totfact> 0.90512764E+04</totfact>
</mgrwt>
</event>
<event>
 6    1  0.2995420E-002  0.9194307E+02  0.7546771E-02  0.1387550E+00
          2   -1    0    0  501    0  0.00000000000E+00  0.00000000000E+00  0.22791668803E+02  0.22791668803E+02  0.00000000000E+00 0. -1.
         -2   -1    0    0    0  501 -0.00000000000E+00 -0.00000000000E+00 -0.20927304792E+03  0.20927304792E+03  0.00000000000E+00 0.  1.
         23    2    1    2    0    0 -0.18195463417E+02  0.74386534049E+01 -0.74405680990E+02  0.11827820362E+03  0.89817145548E+02 0.  0.
         13    1    3    3    0    0  0.14634013444E+02 -0.94560724695E+01 -0.79157244437E+02  0.81052088208E+02  0.00000000000E+00 0.  1.
        -13    1    3    3    0    0 -0.32829476862E+02  0.16894725874E+02  0.47515634477E+01  0.37226115411E+02  0.00000000000E+00 0. -1.
         22    1    1    2    0    0  0.18195463417E+02 -0.74386534049E+01 -0.11207569813E+03  0.11378651310E+03  0.00000000000E+00 0.  1.
<mgrwt>
<rscale>  0 0.62520160E+02</rscale>
<asrwt>0</asrwt>
<pdfrwt beam="1">  1        2 0.35064108E-02 0.91943070E+02</pdfrwt>
<pdfrwt beam="2">  1       -2 0.32195851E-01 0.91943070E+02</pdfrwt>
<totfact> 0.20077825E+04</totfact>
</mgrwt>
</event>
<event>
 6    1  0.2995420E-002  0.9277213E+02  0.7546771E-02  0.1382542E+00
         -4   -1    0    0    0  501 -0.00000000000E+00  0.00000000000E+00  0.29280605280E+02  0.29280605280E+02  0.00000000000E+00 0. -1.
          4   -1    0    0  501    0  0.00000000000E+00 -0.00000000000E+00 -0.11602329631E+03  0.11602329631E+03  0.00000000000E+00 0.  1.
         23    2    1    2    0    0  0.20699910783E+02 -0.14535684720E+01 -0.82445893121E+02  0.12411282705E+03  0.90421620088E+02 0.  0.
         11    1    3    3    0    0  0.40370735319E+02  0.23046406622E+01 -0.12203585713E+01  0.40454875032E+02  0.00000000000E+00 0. -1.
        -11    1    3    3    0    0 -0.19670824537E+02 -0.37582091341E+01 -0.81225534549E+02  0.83657952023E+02  0.00000000000E+00 0.  1.
         22    1    1    2    0    0 -0.20699910783E+02  0.14535684720E+01 -0.42967979094E+01  0.21191074536E+02  0.00000000000E+00 0.  1.
<mgrwt>
<rscale>  0 0.63800239E+02</rscale>
<asrwt>0</asrwt>
<pdfrwt beam="1">  1        4 0.17849737E-01 0.92772132E+02</pdfrwt>
<pdfrwt beam="2">  1       -4 0.45047087E-02 0.92772132E+02</pdfrwt>
<totfact> 0.11415527E+04</totfact>
</mgrwt>
</event>
<event>
 6    1  0.2995420E-002  0.9129928E+02  0.7546771E-02  0.1431636E+00
         -4   -1    0    0    0  501 -0.00000000000E+00  0.00000000000E+00  0.26512228963E+03  0.26512228963E+03  0.00000000000E+00 0.  1.
          4   -1    0    0  501    0  0.00000000000E+00 -0.00000000000E+00 -0.98805199682E+01  0.98805199682E+01  0.00000000000E+00 0. -1.
         23    2    1    2    0    0  0.98681375063E+01  0.20747123887E+01  0.21635402496E+03  0.23482892185E+03  0.90740695659E+02 0.  0.
         11    1    3    3    0    0  0.37074821257E+02 -0.29778589088E+02  0.91245052062E+02  0.10289298453E+03  0.00000000000E+00 0.  1.
        -11    1    3    3    0    0 -0.27206683751E+02  0.31853301477E+02  0.12510897290E+03  0.13193593732E+03  0.00000000000E+00 0. -1.
         22    1    1    2    0    0 -0.98681375063E+01 -0.20747123887E+01  0.38887744701E+02  0.40173887754E+02  0.00000000000E+00 0. -1.
<mgrwt>
<rscale>  0 0.52632911E+02</rscale>
<asrwt>0</asrwt>
<pdfrwt beam="1">  1        4 0.15200802E-02 0.91299279E+02</pdfrwt>
<pdfrwt beam="2">  1       -4 0.40788039E-01 0.91299279E+02</pdfrwt>
<totfact> 0.13183863E+04</totfact>
</mgrwt>
</event>
<event>
 6    1  0.2995420E-002  0.9090341E+02  0.7546771E-02  0.1414215E+00
         -2   -1    0    0    0  501 -0.00000000000E+00  0.00000000000E+00  0.27916625837E+01  0.27916625837E+01  0.00000000000E+00 0.  1.
          2   -1    0    0  501    0  0.00000000000E+00 -0.00000000000E+00 -0.12591847897E+04  0.12591847897E+04  0.00000000000E+00 0. -1.
         23    2    1    2    0    0 -0.31688187654E+01 -0.12958914161E+02 -0.12169077044E+04  0.12202982388E+04  0.89919162749E+02 0.  0.
         13    1    3    3    0    0  0.21972492865E+02  0.24843248851E+02 -0.23355528017E+03  0.23589838140E+03  0.00000000000E+00 0.  1.
        -13    1    3    3    0    0 -0.25141311631E+02 -0.37802163012E+02 -0.98335242423E+03  0.98439985743E+03  0.00000000000E+00 0. -1.
         22    1    1    2    0    0  0.31688187654E+01  0.12958914161E+02 -0.39485422757E+02  0.41678213480E+02  0.00000000000E+00 0.  1.
<mgrwt>
<rscale>  0 0.56263919E+02</rscale>
<asrwt>0</asrwt>
<pdfrwt beam="1">  1        2 0.19372074E+00 0.90903414E+02</pdfrwt>
<pdfrwt beam="2">  1       -2 0.42948655E-03 0.90903414E+02</pdfrwt>
<totfact> 0.11870071E+05</totfact>
</mgrwt>
</event>
<event>
 6    1  0.2995420E-002  0.9825330E+02  0.7546771E-02  0.1341720E+00
          4   -1    0    0  501    0  0.00000000000E+00  0.00000000000E+00  0.10646624690E+03  0.10646624690E+03  0.00000000000E+00 0. -1.
         -4   -1    0    0    0  501 -0.00000000000E+00 -0.00000000000E+00 -0.46225108418E+02  0.46225108418E+02  0.00000000000E+00 0.  1.
         23    2    1    2    0    0 -0.33782732728E+02  0.75657900409E+01  0.64910106132E+02  0.11775836993E+03  0.91952148430E+02 0.  0.
         11    1    3    3    0    0 -0.27701074725E+02 -0.26039713677E+02  0.73316415582E+02  0.82587608169E+02  0.00000000000E+00 0. -1.
        -11    1    3    3    0    0 -0.60816580037E+01  0.33605503718E+02 -0.84063094506E+01  0.35170761760E+02  0.00000000000E+00 0.  1.
         22    1    1    2    0    0  0.33782732728E+02 -0.75657900409E+01 -0.46689676452E+01  0.34932985392E+02  0.00000000000E+00 0.  1.
<mgrwt>
<rscale>  0 0.75699110E+02</rscale>
<asrwt>0</asrwt>
<pdfrwt beam="1">  1        4 0.16379422E-01 0.98253304E+02</pdfrwt>
<pdfrwt beam="2">  1       -4 0.71115552E-02 0.98253304E+02</pdfrwt>
<totfact> 0.64780197E+03</totfact>
</mgrwt>
</event>
<event>
 6    1  0.2995420E-002  0.9060945E+02  0.7546771E-02  0.1387311E+00
          1   -1    0    0  501    0  0.00000000000E+00  0.00000000000E+00  0.18937736658E+02  0.18937736658E+02  0.00000000000E+00 0. -1.
         -1   -1    0    0    0  501 -0.00000000000E+00 -0.00000000000E+00 -0.20211903651E+03  0.20211903651E+03  0.00000000000E+00 0.  1.
         23    2    1    2    0    0 -0.19322527096E+02  0.71914148151E+01 -0.98225586892E+02  0.13363509585E+03  0.88232626746E+02 0.  0.
         11    1    3    3    0    0  0.35749204675E+01  0.45584043075E+02 -0.53912509700E+02  0.70691185742E+02  0.00000000000E+00 0. -1.
        -11    1    3    3    0    0 -0.22897447564E+02 -0.38392628260E+02 -0.44313077192E+02  0.62943910109E+02  0.00000000000E+00 0.  1.
         22    1    1    2    0    0  0.19322527096E+02 -0.71914148151E+01 -0.84955712960E+02  0.87421677317E+02  0.00000000000E+00 0.  1.
<mgrwt>
<rscale>  0 0.62580426E+02</rscale>
<asrwt>0</asrwt>
<pdfrwt beam="1">  1        1 0.29134978E-02 0.90609453E+02</pdfrwt>
<pdfrwt beam="2">  1       -1 0.31095238E-01 0.90609453E+02</pdfrwt>
<totfact> 0.29834281E+04</totfact>
</mgrwt>
</event>
<event>
 6    1  0.2995420E-002  0.9052577E+02  0.7546771E-02  0.1429689E+00
          1   -1    0    0  501    0  0.00000000000E+00  0.00000000000E+00  0.22841354788E+03  0.22841354788E+03  0.00000000000E+00 0. -1.
         -1   -1    0    0    0  501 -0.00000000000E+00 -0.00000000000E+00 -0.11275108714E+02  0.11275108714E+02  0.00000000000E+00 0.  1.
         23    2    1    2    0    0  0.94814854322E+01  0.48594071480E+01  0.19957593877E+03  0.21914714195E+03  0.89896618866E+02 0.  0.
         11    1    3    3    0    0  0.32329410097E+02  0.17283105040E+02  0.18644157975E+03  0.19001147107E+03  0.00000000000E+00 0. -1.
        -11    1    3    3    0    0 -0.22847924665E+02 -0.12423697892E+02  0.13134359021E+02  0.29135670881E+02  0.00000000000E+00 0.  1.
         22    1    1    2    0    0 -0.94814854322E+01 -0.48594071480E+01  0.17562500391E+02  0.20541514642E+02  0.00000000000E+00 0.  1.
<mgrwt>
<rscale>  0 0.53022424E+02</rscale>
<asrwt>0</asrwt>
<pdfrwt beam="1">  1        1 0.35140542E-01 0.90525767E+02</pdfrwt>
<pdfrwt beam="2">  1       -1 0.17346323E-02 0.90525767E+02</pdfrwt>
<totfact> 0.89507071E+04</totfact>
</mgrwt>
</event>
<event>
 6    1  0.2995420E-002  0.9202400E+02  0.7546771E-02  0.1424421E+00
          2   -1    0    0  501    0  0.00000000000E+00  0.00000000000E+00  0.26772889673E+03  0.26772889673E+03  0.00000000000E+00 0. -1.
         -2   -1    0    0    0  501 -0.00000000000E+00 -0.00000000000E+00 -0.99476804344E+01  0.99476804344E+01  0.00000000000E+00 0.  1.
         23    2    1    2    0    0  0.54153444674E+01 -0.95624461173E+01  0.22452895068E+03  0.24265544783E+03  0.91365476716E+02 0.  0.
         13    1    3    3    0    0  0.13747773232E+02 -0.46797774791E+02  0.16403741891E+03  0.17113534935E+03  0.00000000000E+00 0. -1.
        -13    1    3    3    0    0 -0.83324287645E+01  0.37235328674E+02  0.60491531775E+02  0.71520098483E+02  0.00000000000E+00 0.  1.
         22    1    1    2    0    0 -0.54153444674E+01  0.95624461173E+01  0.33252265607E+02  0.35021129329E+02  0.00000000000E+00 0. -1.
<mgrwt>
<rscale>  0 0.54096487E+02</rscale>
<asrwt>0</asrwt>
<pdfrwt beam="1">  1        2 0.41189056E-01 0.92024000E+02</pdfrwt>
<pdfrwt beam="2">  1       -2 0.15304126E-02 0.92024000E+02</pdfrwt>
<totfact> 0.12114452E+05</totfact>
</mgrwt>
</event>
<event>
 6    1  0.2995420E-002  0.1064131E+03  0.7546771E-02  0.1303471E+00
         -2   -1    0    0    0  501 -0.00000000000E+00  0.00000000000E+00  0.34679097750E+03  0.34679097750E+03  0.00000000000E+00 0.  1.
          2   -1    0    0  501    0  0.00000000000E+00 -0.00000000000E+00 -0.19223127254E+02  0.19223127254E+02  0.00000000000E+00 0. -1.
         23    2    1    2    0    0 -0.48797579313E+02 -0.22732842115E+02  0.18220537671E+03  0.21100367101E+03  0.91791960540E+02 0.  0.
         11    1    3    3    0    0  0.15249612595E+02 -0.22274984723E+02  0.11516078038E+03  0.11828242036E+03  0.00000000000E+00 0.  1.
        -11    1    3    3    0    0 -0.64047191908E+02 -0.45785739158E+00  0.67044596329E+02  0.92721250647E+02  0.00000000000E+00 0. -1.
         22    1    1    2    0    0  0.48797579313E+02  0.22732842115E+02  0.14536247354E+03  0.15501043375E+03  0.00000000000E+00 0.  1.
<mgrwt>
<rscale>  0 0.89744612E+02</rscale>
<asrwt>0</asrwt>
<pdfrwt beam="1">  1        2 0.29574044E-02 0.10641311E+03</pdfrwt>
<pdfrwt beam="2">  1       -2 0.53352454E-01 0.10641311E+03</pdfrwt>
<totfact> 0.98285678E+03</totfact>
</mgrwt>
</event>
<event>
 6    1  0.2995420E-002  0.9628000E+02  0.7546771E-02  0.1364424E+00
         -4   -1    0    0    0  501 -0.00000000000E+00  0.00000000000E+00  0.27155217095E+02  0.27155217095E+02  0.00000000000E+00 0.  1.
          4   -1    0    0  501    0  0.00000000000E+00 -0.00000000000E+00 -0.17113519176E+03  0.17113519176E+03  0.00000000000E+00 0. -1.
         23    2    1    2    0    0  0.32504611384E+01  0.24807362853E+02 -0.66872189193E+02  0.11722511832E+03  0.92972404120E+02 0.  0.
         11    1    3    3    0    0  0.14695330453E+02 -0.10353075832E+02  0.17511469116E+02  0.25095626450E+02  0.00000000000E+00 0.  1.
        -11    1    3    3    0    0 -0.11444869315E+02  0.35160438685E+02 -0.84383658309E+02  0.92129491868E+02  0.00000000000E+00 0. -1.
         22    1    1    2    0    0 -0.32504611384E+01 -0.24807362853E+02 -0.77107785472E+02  0.81065290536E+02  0.00000000000E+00 0. -1.
<mgrwt>
<rscale>  0 0.68741867E+02</rscale>
<asrwt>0</asrwt>
<pdfrwt beam="1">  1        4 0.26328492E-01 0.96280001E+02</pdfrwt>
<pdfrwt beam="2">  1       -4 0.41777255E-02 0.96280001E+02</pdfrwt>
<totfact> 0.64540031E+03</totfact>
</mgrwt>
</event>
<event>
 6    1  0.2995420E-002  0.9363591E+02  0.7546771E-02  0.1385869E+00
          2   -1    0    0  501    0  0.00000000000E+00  0.00000000000E+00  0.59970818620E+03  0.59970818620E+03  0.00000000000E+00 0. -1.
         -2   -1    0    0    0  501 -0.00000000000E+00 -0.00000000000E+00 -0.55872974723E+01  0.55872974723E+01  0.00000000000E+00 0.  1.
         23    2    1    2    0    0  0.20163519955E+01  0.19015685352E+02  0.53578167593E+03  0.54390227791E+03  0.91662542410E+02 0.  0.
         11    1    3    3    0    0  0.45736508931E+01  0.53691438262E+02  0.40533817807E+03  0.40890430106E+03  0.00000000000E+00 0. -1.
        -11    1    3    3    0    0 -0.25572988976E+01 -0.34675752910E+02  0.13044349786E+03  0.13499797685E+03  0.00000000000E+00 0.  1.
         22    1    1    2    0    0 -0.20163519955E+01 -0.19015685352E+02  0.58339212799E+02  0.61393205771E+02  0.00000000000E+00 0.  1.
<mgrwt>
<rscale>  0 0.62945806E+02</rscale>
<asrwt>0</asrwt>
<pdfrwt beam="1">  1        2 0.92262747E-01 0.93635910E+02</pdfrwt>
<pdfrwt beam="2">  1       -2 0.85958470E-03 0.93635910E+02</pdfrwt>
<totfact> 0.11677872E+05</totfact>
</mgrwt>
</event>
<event>
 6    1  0.2995420E-002  0.9262696E+02  0.7546771E-02  0.1420015E+00
         -2   -1    0    0    0  501 -0.00000000000E+00  0.00000000000E+00  0.53384295885E+01  0.53384295885E+01  0.00000000000E+00 0.  1.
          2   -1    0    0  501    0  0.00000000000E+00 -0.00000000000E+00 -0.50901679741E+03  0.50901679741E+03  0.00000000000E+00 0. -1.
         23    2    1    2    0    0 -0.10408902053E+02  0.49575564427E+01 -0.45463446495E+03  0.46397440707E+03  0.91906643326E+02 0.  0.
         11    1    3    3    0    0 -0.27789238837E+01  0.38966940373E+02 -0.95914922738E+02  0.10356552160E+03  0.00000000000E+00 0.  1.
        -11    1    3    3    0    0 -0.76299781692E+01 -0.34009383931E+02 -0.35871954221E+03  0.36040888547E+03  0.00000000000E+00 0. -1.
         22    1    1    2    0    0  0.10408902053E+02 -0.49575564427E+01 -0.49043902871E+02  0.50380819928E+02  0.00000000000E+00 0.  1.
<mgrwt>
<rscale>  0 0.55017761E+02</rscale>
<asrwt>0</asrwt>
<pdfrwt beam="1">  1        2 0.78310260E-01 0.92626960E+02</pdfrwt>
<pdfrwt beam="2">  1       -2 0.82129703E-03 0.92626960E+02</pdfrwt>
<totfact> 0.14894417E+05</totfact>
</mgrwt>
</event>
<event>
 6    1  0.2995420E-002  0.9288100E+02  0.7546771E-02  0.1375078E+00
         -2   -1    0    0    0  501 -0.00000000000E+00  0.00000000000E+00  0.10422369668E+03  0.10422369668E+03  0.00000000000E+00 0.  1.
          2   -1    0    0  501    0  0.00000000000E+00 -0.00000000000E+00 -0.62235028050E+02  0.62235028050E+02  0.00000000000E+00 0. -1.
         23    2    1    2    0    0  0.22945102086E+02 -0.43848435036E+01 -0.24439699170E+02  0.96042585876E+02  0.89895354963E+02 0.  0.
         11    1    3    3    0    0 -0.29777877376E+02 -0.13262741390E+02  0.79212344977E+01  0.33546508703E+02  0.00000000000E+00 0.  1.
        -11    1    3    3    0    0  0.52722979462E+02  0.88778978864E+01 -0.32360933668E+02  0.62496077174E+02  0.00000000000E+00 0. -1.
         22    1    1    2    0    0 -0.22945102086E+02  0.43848435036E+01  0.66428367801E+02  0.70416138853E+02  0.00000000000E+00 0.  1.
<mgrwt>
<rscale>  0 0.65775604E+02</rscale>
<asrwt>0</asrwt>
<pdfrwt beam="1">  1        2 0.95746197E-02 0.92880996E+02</pdfrwt>
<pdfrwt beam="2">  1       -2 0.16034415E-01 0.92880996E+02</pdfrwt>
<totfact> 0.18426020E+04</totfact>
</mgrwt>
</event>
<event>
 6    1  0.2995420E-002  0.9567905E+02  0.7546771E-02  0.1354442E+00
          2   -1    0    0  501    0  0.00000000000E+00  0.00000000000E+00  0.52194623044E+03  0.52194623044E+03  0.00000000000E+00 0. -1.
         -2   -1    0    0    0  501 -0.00000000000E+00 -0.00000000000E+00 -0.76990010190E+01  0.76990010190E+01  0.00000000000E+00 0.  1.
         23    2    1    2    0    0 -0.13909852386E+02 -0.26754927218E+02  0.36133071600E+03  0.37378385010E+03  0.90802919242E+02 0.  0.
         13    1    3    3    0    0 -0.77648276264E+01 -0.56114218276E+01  0.34781758086E+03  0.34794949369E+03  0.00000000000E+00 0. -1.
        -13    1    3    3    0    0 -0.61450247597E+01 -0.21143505391E+02  0.13513135136E+02  0.25834356402E+02  0.00000000000E+00 0.  1.
         22    1    1    2    0    0  0.13909852386E+02  0.26754927218E+02  0.15291651342E+03  0.15586138136E+03  0.00000000000E+00 0. -1.
<mgrwt>
<rscale>  0 0.71688854E+02</rscale>
<asrwt>0</asrwt>
<pdfrwt beam="1">  1        2 0.80299392E-01 0.95679048E+02</pdfrwt>
<pdfrwt beam="2">  1       -2 0.11844621E-02 0.95679048E+02</pdfrwt>
<totfact> 0.86685463E+04</totfact>
</mgrwt>
</event>
<event>
 6    1  0.2995420E-002  0.1116256E+03  0.7546771E-02  0.1288493E+00
          4   -1    0    0  501    0  0.00000000000E+00  0.00000000000E+00  0.94268047462E+03  0.94268047462E+03  0.00000000000E+00 0. -1.
         -4   -1    0    0    0  501 -0.00000000000E+00 -0.00000000000E+00 -0.12261895706E+02  0.12261895706E+02  0.00000000000E+00 0.  1.
         23    2    1    2    0    0 -0.41836935551E+02  0.45185110778E+02  0.82759813857E+03  0.83509218733E+03  0.93103485204E+02 0.  0.
         11    1    3    3    0    0 -0.52662959744E+02 -0.11085066622E+02  0.36122510502E+03  0.36521205146E+03  0.00000000000E+00 0.  1.
        -11    1    3    3    0    0  0.10826024193E+02  0.56270177400E+02  0.46637303355E+03  0.46988013587E+03  0.00000000000E+00 0. -1.
         22    1    1    2    0    0  0.41836935551E+02 -0.45185110778E+02  0.10282044034E+03  0.11985018300E+03  0.00000000000E+00 0.  1.
<mgrwt>
<rscale>  0 0.96201498E+02</rscale>
<asrwt>0</asrwt>
<pdfrwt beam="1">  1        4 0.14502771E+00 0.11162563E+03</pdfrwt>
<pdfrwt beam="2">  1       -4 0.18864462E-02 0.11162563E+03</pdfrwt>
<totfact> 0.61721915E+02</totfact>
</mgrwt>
</event>
<event>
 6    1  0.2995420E-002  0.9193989E+02  0.7546771E-02  0.1416864E+00
          2   -1    0    0  501    0  0.00000000000E+00  0.00000000000E+00  0.18935042334E+04  0.18935042334E+04  0.00000000000E+00 0. -1.
         -2   -1    0    0    0  501 -0.00000000000E+00 -0.00000000000E+00 -0.25197934589E+01  0.25197934589E+01  0.00000000000E+00 0.  1.
         23    2    1    2    0    0 -0.10387493989E+02  0.67288068184E+01  0.18647670188E+04  0.18670321307E+04  0.91103050130E+02 0.  0.
         11    1    3    3    0    0  0.47082777779E+00  0.27028951913E+02  0.17368248350E+04  0.17370352021E+04  0.00000000000E+00 0. -1.
        -11    1    3    3    0    0 -0.10858321766E+02 -0.20300145095E+02  0.12794218384E+03  0.12999692861E+03  0.00000000000E+00 0.  1.
         22    1    1    2    0    0  0.10387493989E+02 -0.67288068184E+01  0.26217421185E+02  0.28991896215E+02  0.00000000000E+00 0.  1.
<mgrwt>
<rscale>  0 0.55689987E+02</rscale>
<asrwt>0</asrwt>
<pdfrwt beam="1">  1        2 0.29130721E+00 0.91939886E+02</pdfrwt>
<pdfrwt beam="2">  1       -2 0.38766205E-03 0.91939886E+02</pdfrwt>
<totfact> 0.65058720E+04</totfact>
</mgrwt>
</event>
<event>
 6    1  0.2995420E-002  0.9219464E+02  0.7546771E-02  0.1411496E+00
          1   -1    0    0  501    0  0.00000000000E+00  0.00000000000E+00  0.15822839573E+02  0.15822839573E+02  0.00000000000E+00 0. -1.
         -1   -1    0    0    0  501 -0.00000000000E+00 -0.00000000000E+00 -0.21185874338E+03  0.21185874338E+03  0.00000000000E+00 0.  1.
         23    2    1    2    0    0 -0.35264947006E+01  0.12865244728E+02 -0.12453980749E+03  0.15495165462E+03  0.91224453589E+02 0.  0.
         11    1    3    3    0    0 -0.10699641215E+02 -0.26335223188E+02 -0.10821513574E+03  0.11188629007E+03  0.00000000000E+00 0.  1.
        -11    1    3    3    0    0  0.71731465146E+01  0.39200467916E+02 -0.16324671746E+02  0.43065364544E+02  0.00000000000E+00 0. -1.
         22    1    1    2    0    0  0.35264947006E+01 -0.12865244728E+02 -0.71496096320E+02  0.72729928336E+02  0.00000000000E+00 0.  1.
<mgrwt>
<rscale>  0 0.56861291E+02</rscale>
<asrwt>0</asrwt>
<pdfrwt beam="1">  1        1 0.24342829E-02 0.92194640E+02</pdfrwt>
<pdfrwt beam="2">  1       -1 0.32593655E-01 0.92194640E+02</pdfrwt>
<totfact> 0.35365854E+04</totfact>
</mgrwt>
</event>
<event>
 6    1  0.2995420E-002  0.8953988E+02  0.7546771E-02  0.1417854E+00
          1   -1    0    0  501    0  0.00000000000E+00  0.00000000000E+00  0.20688361985E+03  0.20688361985E+03  0.00000000000E+00 0. -1.
         -1   -1    0    0    0  501 -0.00000000000E+00 -0.00000000000E+00 -0.14634112947E+02  0.14634112947E+02  0.00000000000E+00 0.  1.
         23    2    1    2    0    0  0.71095891438E+01 -0.11116175247E+02  0.18697173597E+03  0.20730610108E+03  0.88562259939E+02 0.  0.
         11    1    3    3    0    0 -0.87301405323E+01  0.37419809008E+02  0.76553831250E+02  0.85655977836E+02  0.00000000000E+00 0. -1.
        -11    1    3    3    0    0  0.15839729676E+02 -0.48535984255E+02  0.11041790472E+03  0.12165012325E+03  0.00000000000E+00 0.  1.
         22    1    1    2    0    0 -0.71095891438E+01  0.11116175247E+02  0.52777709342E+01  0.14211631713E+02  0.00000000000E+00 0.  1.
<mgrwt>
<rscale>  0 0.55477526E+02</rscale>
<asrwt>0</asrwt>
<pdfrwt beam="1">  1        1 0.31828247E-01 0.89539877E+02</pdfrwt>
<pdfrwt beam="2">  1       -1 0.22514021E-02 0.89539877E+02</pdfrwt>
<totfact> 0.69540172E+04</totfact>
</mgrwt>
</event>
<event>
 6    1  0.2995420E-002  0.9006188E+02  0.7546771E-02  0.1410214E+00
         -2   -1    0    0    0  501 -0.00000000000E+00  0.00000000000E+00  0.23821341361E+02  0.23821341361E+02  0.00000000000E+00 0.  1.
          2   -1    0    0  501    0  0.00000000000E+00 -0.00000000000E+00 -0.20739295811E+03  0.20739295811E+03  0.00000000000E+00 0. -1.
         23    2    1    2    0    0  0.13245064057E+02 -0.61400578229E+01 -0.19358617142E+03  0.21351053329E+03  0.88870748993E+02 0.  0.
         13    1    3    3    0    0 -0.17207833651E+02  0.34898686097E+02 -0.87147618122E+02  0.95439693915E+02  0.00000000000E+00 0. -1.
        -13    1    3    3    0    0  0.30452897708E+02 -0.41038743920E+02 -0.10643855330E+03  0.11807083937E+03  0.00000000000E+00 0.  1.
         22    1    1    2    0    0 -0.13245064057E+02  0.61400578229E+01  0.10014554671E+02  0.17703766187E+02  0.00000000000E+00 0.  1.
<mgrwt>
<rscale>  0 0.57146132E+02</rscale>
<asrwt>0</asrwt>
<pdfrwt beam="1">  1        2 0.31906608E-01 0.90061879E+02</pdfrwt>
<pdfrwt beam="2">  1       -2 0.36648219E-02 0.90061879E+02</pdfrwt>
<totfact> 0.44802437E+04</totfact>
</mgrwt>
</event>
<event>
 6    1  0.2995420E-002  0.9045835E+02  0.7546771E-02  0.1405703E+00
          2   -1    0    0  501    0  0.00000000000E+00  0.00000000000E+00  0.56936342995E+03  0.56936342995E+03  0.00000000000E+00 0. -1.
         -2   -1    0    0    0  501 -0.00000000000E+00 -0.00000000000E+00 -0.57669666600E+01  0.57669666600E+01  0.00000000000E+00 0.  1.
         23    2    1    2    0    0 -0.15392894039E+02 -0.14602673641E+01  0.53526053492E+03  0.54285039655E+03  0.89127095868E+02 0.  0.
         13    1    3    3    0    0 -0.48397751692E+02 -0.16160557924E+02  0.23839976700E+03  0.24379900514E+03  0.00000000000E+00 0.  1.
        -13    1    3    3    0    0  0.33004857653E+02  0.14700290560E+02  0.29686076792E+03  0.29905139140E+03  0.00000000000E+00 0. -1.
         22    1    1    2    0    0  0.15392894039E+02  0.14602673641E+01  0.28335928373E+02  0.32280000069E+02  0.00000000000E+00 0.  1.
<mgrwt>
<rscale>  0 0.58163822E+02</rscale>
<asrwt>0</asrwt>
<pdfrwt beam="1">  1        2 0.87594329E-01 0.90458348E+02</pdfrwt>
<pdfrwt beam="2">  1       -2 0.88722609E-03 0.90458348E+02</pdfrwt>
<totfact> 0.11772431E+05</totfact>
</mgrwt>
</event>
<event>
 6    1  0.2995420E-002  0.9029701E+02  0.7546771E-02  0.1403793E+00
          2   -1    0    0  501    0  0.00000000000E+00  0.00000000000E+00  0.15506377627E+04  0.15506377627E+04  0.00000000000E+00 0. -1.
         -2   -1    0    0    0  501 -0.00000000000E+00 -0.00000000000E+00 -0.27941604982E+01  0.27941604982E+01  0.00000000000E+00 0.  1.
         23    2    1    2    0    0  0.10458339098E+02  0.12134045330E+02  0.15047568239E+04  0.15074636475E+04  0.88864713677E+02 0.  0.
         11    1    3    3    0    0  0.27162009269E+02  0.42938957041E+02  0.64727090593E+03  0.64926200755E+03  0.00000000000E+00 0.  1.
        -11    1    3    3    0    0 -0.16703670171E+02 -0.30804911712E+02  0.85748591800E+03  0.85820163991E+03  0.00000000000E+00 0. -1.
         22    1    1    2    0    0 -0.10458339098E+02 -0.12134045330E+02  0.43086778317E+02  0.45968275783E+02  0.00000000000E+00 0.  1.
<mgrwt>
<rscale>  0 0.58602294E+02</rscale>
<asrwt>0</asrwt>
<pdfrwt beam="1">  1        2 0.23855897E+00 0.90297006E+02</pdfrwt>
<pdfrwt beam="2">  1       -2 0.42987208E-03 0.90297006E+02</pdfrwt>
<totfact> 0.83616826E+04</totfact>
</mgrwt>
</event>
<event>
 6    1  0.2995420E-002  0.9284170E+02  0.7546771E-02  0.1375683E+00
          2   -1    0    0  501    0  0.00000000000E+00  0.00000000000E+00  0.44452167096E+03  0.44452167096E+03  0.00000000000E+00 0.  1.
         -2   -1    0    0    0  501 -0.00000000000E+00 -0.00000000000E+00 -0.12311696650E+02  0.12311696650E+02  0.00000000000E+00 0. -1.
         23    2    1    2    0    0 -0.22010053995E+02 -0.72020021121E+01  0.42097962791E+03  0.43109561340E+03  0.89907004565E+02 0.  0.
         11    1    3    3    0    0 -0.24351583492E+02  0.30989551234E+02  0.94614691995E+02  0.10249532597E+03  0.00000000000E+00 0. -1.
        -11    1    3    3    0    0  0.23415294969E+01 -0.38191553346E+02  0.32636493592E+03  0.32860028743E+03  0.00000000000E+00 0.  1.
         22    1    1    2    0    0  0.22010053995E+02  0.72020021121E+01  0.11230346399E+02  0.25737754206E+02  0.00000000000E+00 0. -1.
<mgrwt>
<rscale>  0 0.65612173E+02</rscale>
<asrwt>0</asrwt>
<pdfrwt beam="1">  1        2 0.68387937E-01 0.92841697E+02</pdfrwt>
<pdfrwt beam="2">  1       -2 0.18941075E-02 0.92841697E+02</pdfrwt>
<totfact> 0.52499221E+04</totfact>
</mgrwt>
</event>
<event>
 6    1  0.2995420E-002  0.1068573E+03  0.7546771E-02  0.1359448E+00
         -2   -1    0    0    0  501 -0.00000000000E+00  0.00000000000E+00  0.13614411234E+02  0.13614411234E+02  0.00000000000E+00 0.  1.
          2   -1    0    0  501    0  0.00000000000E+00 -0.00000000000E+00 -0.31911511446E+03  0.31911511446E+03  0.00000000000E+00 0. -1.
         23    2    1    2    0    0  0.93524366797E+01 -0.17556774612E+02 -0.28400158475E+03  0.30343924571E+03  0.10498936750E+03 0.  0.
         13    1    3    3    0    0 -0.16911502840E+02  0.40028628362E+02 -0.10887786348E+03  0.11722917373E+03  0.00000000000E+00 0.  1.
        -13    1    3    3    0    0  0.26263939520E+02 -0.57585402973E+02 -0.17512372127E+03  0.18621007198E+03  0.00000000000E+00 0. -1.
         22    1    1    2    0    0 -0.93524366797E+01  0.17556774612E+02 -0.21499118479E+02  0.29290279992E+02  0.00000000000E+00 0.  1.
<mgrwt>
<rscale>  0 0.70189954E+02</rscale>
<asrwt>0</asrwt>
<pdfrwt beam="1">  1        2 0.49094631E-01 0.10685727E+03</pdfrwt>
<pdfrwt beam="2">  1       -2 0.20945249E-02 0.10685727E+03</pdfrwt>
<totfact> 0.65609128E+04</totfact>
</mgrwt>
</event>
<event>
 6    1  0.2995420E-002  0.8747783E+02  0.7546771E-02  0.1406564E+00
         -1   -1    0    0    0  501 -0.00000000000E+00  0.00000000000E+00  0.24567109404E+01  0.24567109404E+01  0.00000000000E+00 0.  1.
          1   -1    0    0  501    0  0.00000000000E+00 -0.00000000000E+00 -0.17686524349E+04  0.17686524349E+04  0.00000000000E+00 0. -1.
         23    2    1    2    0    0 -0.11889381769E+02  0.11964695943E+02 -0.17145209063E+04  0.17167510910E+04  0.85836233017E+02 0.  0.
         11    1    3    3    0    0 -0.19975842208E+02  0.11290747553E+02 -0.16996946259E+04  0.16998495041E+04  0.00000000000E+00 0. -1.
        -11    1    3    3    0    0  0.80864604387E+01  0.67394839084E+00 -0.14826280403E+02  0.16901586891E+02  0.00000000000E+00 0.  1.
         22    1    1    2    0    0  0.11889381769E+02 -0.11964695943E+02 -0.51674817657E+02  0.54358054856E+02  0.00000000000E+00 0.  1.
<mgrwt>
<rscale>  0 0.57967683E+02</rscale>
<asrwt>0</asrwt>
<pdfrwt beam="1">  1        1 0.27210121E+00 0.87477827E+02</pdfrwt>
<pdfrwt beam="2">  1       -1 0.37795437E-03 0.87477827E+02</pdfrwt>
<totfact> 0.33596794E+04</totfact>
</mgrwt>
</event>
<event>
 6    1  0.2995420E-002  0.9165825E+02  0.7546771E-02  0.1431306E+00
         -2   -1    0    0    0  501 -0.00000000000E+00  0.00000000000E+00  0.33474149978E+01  0.33474149978E+01  0.00000000000E+00 0.  1.
          2   -1    0    0  501    0  0.00000000000E+00 -0.00000000000E+00 -0.10247604831E+04  0.10247604831E+04  0.00000000000E+00 0. -1.
         23    2    1    2    0    0 -0.14570643529E+01  0.99092484517E+01 -0.10027213108E+04  0.10069018133E+04  0.91109375254E+02 0.  0.
         13    1    3    3    0    0 -0.35804838965E+02 -0.20522183349E+02 -0.63293433578E+03  0.63427834577E+03  0.00000000000E+00 0.  1.
        -13    1    3    3    0    0  0.34347774613E+02  0.30431431801E+02 -0.36978697500E+03  0.37262346751E+03  0.00000000000E+00 0. -1.
         22    1    1    2    0    0  0.14570643529E+01 -0.99092484517E+01 -0.18691757329E+02  0.21206084821E+02  0.00000000000E+00 0.  1.
<mgrwt>
<rscale>  0 0.52698721E+02</rscale>
<asrwt>0</asrwt>
<pdfrwt beam="1">  1        2 0.15765559E+00 0.91658248E+02</pdfrwt>
<pdfrwt beam="2">  1       -2 0.51498651E-03 0.91658248E+02</pdfrwt>
<totfact> 0.12431029E+05</totfact>
</mgrwt>
</event>
<event>
 6    1  0.2995420E-002  0.1055580E+03  0.7546771E-02  0.1347315E+00
         -2   -1    0    0    0  501 -0.00000000000E+00  0.00000000000E+00  0.37069505752E+02  0.37069505752E+02  0.00000000000E+00 0.  1.
          2   -1    0    0  501    0  0.00000000000E+00 -0.00000000000E+00 -0.11576374936E+03  0.11576374936E+03  0.00000000000E+00 0. -1.
         23    2    1    2    0    0 -0.98883467283E+01  0.23348244044E+02 -0.65801614758E+02  0.12438787272E+03  0.10246741176E+03 0.  0.
         13    1    3    3    0    0 -0.35103657578E+02  0.26882760425E+02 -0.82735630685E+02  0.93809030313E+02  0.00000000000E+00 0. -1.
        -13    1    3    3    0    0  0.25215310850E+02 -0.35345163811E+01  0.16934015927E+02  0.30578842403E+02  0.00000000000E+00 0.  1.
         22    1    1    2    0    0  0.98883467283E+01 -0.23348244044E+02 -0.12892628849E+02  0.28445382395E+02  0.00000000000E+00 0. -1.
<mgrwt>
<rscale>  0 0.73898897E+02</rscale>
<asrwt>0</asrwt>
<pdfrwt beam="1">  1        2 0.17809808E-01 0.10555800E+03</pdfrwt>
<pdfrwt beam="2">  1       -2 0.57030009E-02 0.10555800E+03</pdfrwt>
<totfact> 0.45038767E+04</totfact>
</mgrwt>
</event>
<event>
 6    1  0.2995420E-002  0.9358153E+02  0.7546771E-02  0.1379685E+00
         -1   -1    0    0    0  501 -0.00000000000E+00  0.00000000000E+00  0.12133341986E+03  0.12133341986E+03  0.00000000000E+00 0.  1.
          1   -1    0    0  501    0  0.00000000000E+00 -0.00000000000E+00 -0.29362566487E+02  0.29362566487E+02  0.00000000000E+00 0. -1.
         23    2    1    2    0    0  0.10924645733E+01  0.21151577200E+02  0.89293406445E+02  0.12934765108E+03  0.91153275900E+02 0.  0.
         13    1    3    3    0    0 -0.32954012562E+02 -0.57309108332E+01  0.40394348806E+01  0.33691650554E+02  0.00000000000E+00 0. -1.
        -13    1    3    3    0    0  0.34046477135E+02  0.26882488033E+02  0.85253971564E+02  0.95656000521E+02  0.00000000000E+00 0.  1.
         22    1    1    2    0    0 -0.10924645733E+01 -0.21151577200E+02  0.26774469305E+01  0.21348335274E+02  0.00000000000E+00 0. -1.
<mgrwt>
<rscale>  0 0.64546532E+02</rscale>
<asrwt>0</asrwt>
<pdfrwt beam="1">  1        1 0.45173180E-02 0.93581528E+02</pdfrwt>
<pdfrwt beam="2">  1       -1 0.18666680E-01 0.93581528E+02</pdfrwt>
<totfact> 0.37683949E+04</totfact>
</mgrwt>
</event>
<event>
 6    1  0.2995420E-002  0.9085553E+02  0.7546771E-02  0.1424955E+00
         -2   -1    0    0    0  501 -0.00000000000E+00  0.00000000000E+00  0.74860704712E+01  0.74860704712E+01  0.00000000000E+00 0.  1.
          2   -1    0    0  501    0  0.00000000000E+00 -0.00000000000E+00 -0.35326493463E+03  0.35326493463E+03  0.00000000000E+00 0. -1.
         23    2    1    2    0    0 -0.56463296215E+01  0.98181707257E+01 -0.31873290872E+03  0.33142931995E+03  0.90146821938E+02 0.  0.
         13    1    3    3    0    0 -0.17335524043E+02 -0.99367855968E+01 -0.10937414638E+02  0.22779094381E+02  0.00000000000E+00 0.  1.
        -13    1    3    3    0    0  0.11689194422E+02  0.19754956322E+02 -0.30779549409E+03  0.30865022557E+03  0.00000000000E+00 0. -1.
         22    1    1    2    0    0  0.56463296215E+01 -0.98181707257E+01 -0.27045955431E+02  0.29321685146E+02  0.00000000000E+00 0. -1.
<mgrwt>
<rscale>  0 0.53986147E+02</rscale>
<asrwt>0</asrwt>
<pdfrwt beam="1">  1        2 0.54348451E-01 0.90855528E+02</pdfrwt>
<pdfrwt beam="2">  1       -2 0.11517032E-02 0.90855528E+02</pdfrwt>
<totfact> 0.13559571E+05</totfact>
</mgrwt>
</event>
<event>
 6    1  0.2995420E-002  0.9140766E+02  0.7546771E-02  0.1405773E+00
          2   -1    0    0  501    0  0.00000000000E+00  0.00000000000E+00  0.15200703507E+03  0.15200703507E+03  0.00000000000E+00 0. -1.
         -2   -1    0    0    0  501 -0.00000000000E+00 -0.00000000000E+00 -0.18673285615E+02  0.18673285615E+02  0.00000000000E+00 0.  1.
         23    2    1    2    0    0  0.15889092774E+01  0.14884145847E+02  0.11784901330E+03  0.14914338766E+03  0.90173708566E+02 0.  0.
         11    1    3    3    0    0  0.24405959464E+02 -0.74534307744E+01 -0.15331518120E+01  0.25564722611E+02  0.00000000000E+00 0.  1.
        -11    1    3    3    0    0 -0.22817050187E+02  0.22337576621E+02  0.11938216511E+03  0.12357866505E+03  0.00000000000E+00 0. -1.
         22    1    1    2    0    0 -0.15889092774E+01 -0.14884145847E+02  0.15484736155E+02  0.21536933024E+02  0.00000000000E+00 0. -1.
<mgrwt>
<rscale>  0 0.58147771E+02</rscale>
<asrwt>0</asrwt>
<pdfrwt beam="1">  1        2 0.23385697E-01 0.91407659E+02</pdfrwt>
<pdfrwt beam="2">  1       -2 0.28728133E-02 0.91407659E+02</pdfrwt>
<totfact> 0.89548929E+04</totfact>
</mgrwt>
</event>
<event>
 6    1  0.2995420E-002  0.9497913E+02  0.7546771E-02  0.1373527E+00
          1   -1    0    0  501    0  0.00000000000E+00  0.00000000000E+00  0.61280598054E+02  0.61280598054E+02  0.00000000000E+00 0. -1.
         -1   -1    0    0    0  501 -0.00000000000E+00 -0.00000000000E+00 -0.57540771905E+02  0.57540771905E+02  0.00000000000E+00 0.  1.
         23    2    1    2    0    0  0.19231520794E+02 -0.11505533451E+02  0.10129597759E+02  0.95517767807E+02  0.92297380916E+02 0.  0.
         13    1    3    3    0    0  0.19499333488E+02  0.39456462757E+02  0.51656801889E+01  0.44313888473E+02  0.00000000000E+00 0.  1.
        -13    1    3    3    0    0 -0.26781269387E+00 -0.50961996208E+02  0.49639175698E+01  0.51203879334E+02  0.00000000000E+00 0. -1.
         22    1    1    2    0    0 -0.19231520794E+02  0.11505533451E+02 -0.63897716104E+01  0.23303602152E+02  0.00000000000E+00 0.  1.
<mgrwt>
<rscale>  0 0.66196318E+02</rscale>
<asrwt>0</asrwt>
<pdfrwt beam="1">  1        1 0.94277844E-02 0.94979130E+02</pdfrwt>
<pdfrwt beam="2">  1       -1 0.88524264E-02 0.94979130E+02</pdfrwt>
<totfact> 0.44413758E+04</totfact>
</mgrwt>
</event>
<event>
 6    1  0.2995420E-002  0.9753339E+02  0.7546771E-02  0.1348966E+00
          2   -1    0    0  501    0  0.00000000000E+00  0.00000000000E+00  0.19214862875E+02  0.19214862875E+02  0.00000000000E+00 0.  1.
         -2   -1    0    0    0  501 -0.00000000000E+00 -0.00000000000E+00 -0.21629922000E+03  0.21629922000E+03  0.00000000000E+00 0. -1.
         23    2    1    2    0    0 -0.20838960149E+02  0.23284705085E+02 -0.14418763348E+03  0.17407709789E+03  0.92392221599E+02 0.  0.
         11    1    3    3    0    0 -0.36472439057E+02 -0.14765402379E+02 -0.21848001418E+02  0.45006567123E+02  0.00000000000E+00 0.  1.
        -11    1    3    3    0    0  0.15633478909E+02  0.38050107464E+02 -0.12233963206E+03  0.12907053077E+03  0.00000000000E+00 0. -1.
         22    1    1    2    0    0  0.20838960149E+02 -0.23284705085E+02 -0.52896723649E+02  0.61436984983E+02  0.00000000000E+00 0.  1.
<mgrwt>
<rscale>  0 0.73378812E+02</rscale>
<asrwt>0</asrwt>
<pdfrwt beam="1">  1        2 0.29561327E-02 0.97533391E+02</pdfrwt>
<pdfrwt beam="2">  1       -2 0.33276803E-01 0.97533391E+02</pdfrwt>
<totfact> 0.23889718E+04</totfact>
</mgrwt>
</event>
<event>
 6    1  0.2995420E-002  0.9299101E+02  0.7546771E-02  0.1390282E+00
          2   -1    0    0  501    0  0.00000000000E+00  0.00000000000E+00  0.61324804489E+03  0.61324804489E+03  0.00000000000E+00 0. -1.
         -2   -1    0    0    0  501 -0.00000000000E+00 -0.00000000000E+00 -0.57902657107E+01  0.57902657107E+01  0.00000000000E+00 0.  1.
         23    2    1    2    0    0 -0.11645645269E+02  0.13963973068E+02  0.56838826657E+03  0.57594491884E+03  0.91196021682E+02 0.  0.
         11    1    3    3    0    0  0.28446848906E+02 -0.61134572372E+01  0.41807870966E+03  0.41908997249E+03  0.00000000000E+00 0. -1.
        -11    1    3    3    0    0 -0.40092494175E+02  0.20077430305E+02  0.15030955691E+03  0.15685494635E+03  0.00000000000E+00 0.  1.
         22    1    1    2    0    0  0.11645645269E+02 -0.13963973068E+02  0.39069512611E+02  0.43093391758E+02  0.00000000000E+00 0. -1.
<mgrwt>
<rscale>  0 0.61836630E+02</rscale>
<asrwt>0</asrwt>
<pdfrwt beam="1">  1        2 0.94345802E-01 0.92991010E+02</pdfrwt>
<pdfrwt beam="2">  1       -2 0.89081059E-03 0.92991010E+02</pdfrwt>
<totfact> 0.10817948E+05</totfact>
</mgrwt>
</event>
<event>
 6    1  0.2995420E-002  0.9145349E+02  0.7546771E-02  0.1430442E+00
         -2   -1    0    0    0  501 -0.00000000000E+00  0.00000000000E+00  0.23798956685E+03  0.23798956685E+03  0.00000000000E+00 0.  1.
          2   -1    0    0  501    0  0.00000000000E+00 -0.00000000000E+00 -0.11472420298E+02  0.11472420298E+02  0.00000000000E+00 0. -1.
         23    2    1    2    0    0 -0.10204023861E+02 -0.49658876451E+00  0.18075917589E+03  0.20257744191E+03  0.90881084930E+02 0.  0.
         13    1    3    3    0    0 -0.29822912518E+02  0.36479142229E+02  0.72061640172E+02  0.86098861277E+02  0.00000000000E+00 0. -1.
        -13    1    3    3    0    0  0.19618888657E+02 -0.36975730994E+02  0.10869753572E+03  0.11647858063E+03  0.00000000000E+00 0.  1.
         22    1    1    2    0    0  0.10204023861E+02  0.49658876451E+00  0.45757970664E+02  0.46884545243E+02  0.00000000000E+00 0. -1.
<mgrwt>
<rscale>  0 0.52871483E+02</rscale>
<asrwt>0</asrwt>
<pdfrwt beam="1">  1        2 0.17649879E-02 0.91453487E+02</pdfrwt>
<pdfrwt beam="2">  1       -2 0.36613776E-01 0.91453487E+02</pdfrwt>
<totfact> 0.39748330E+04</totfact>
</mgrwt>
</event>
<event>
 6    1  0.2995420E-002  0.9219680E+02  0.7546771E-02  0.1371700E+00
         -3   -1    0    0    0  501 -0.00000000000E+00  0.00000000000E+00  0.28966356670E+02  0.28966356670E+02  0.00000000000E+00 0.  1.
          3   -1    0    0  501    0  0.00000000000E+00 -0.00000000000E+00 -0.15955772530E+03  0.15955772530E+03  0.00000000000E+00 0. -1.
         23    2    1    2    0    0 -0.22924722341E+02  0.10585416216E+02 -0.13440449489E+03  0.16298717019E+03  0.88671615925E+02 0.  0.
         13    1    3    3    0    0 -0.63192615870E+01 -0.34281827576E+02 -0.94377270105E+02  0.10060937273E+03  0.00000000000E+00 0. -1.
        -13    1    3    3    0    0 -0.16605460754E+02  0.44867243793E+02 -0.40027224784E+02  0.62377797463E+02  0.00000000000E+00 0.  1.
         22    1    1    2    0    0  0.22924722341E+02 -0.10585416216E+02  0.38131262634E+01  0.25536911771E+02  0.00000000000E+00 0. -1.
<mgrwt>
<rscale>  0 0.66696785E+02</rscale>
<asrwt>0</asrwt>
<pdfrwt beam="1">  1        3 0.24547343E-01 0.92196797E+02</pdfrwt>
<pdfrwt beam="2">  1       -3 0.44563625E-02 0.92196797E+02</pdfrwt>
<totfact> 0.88332168E+03</totfact>
</mgrwt>
</event>
<event>
 6    1  0.2995420E-002  0.9376739E+02  0.7546771E-02  0.1398838E+00
          2   -1    0    0  501    0  0.00000000000E+00  0.00000000000E+00  0.10799912988E+03  0.10799912988E+03  0.00000000000E+00 0. -1.
         -2   -1    0    0    0  501 -0.00000000000E+00 -0.00000000000E+00 -0.35000413254E+02  0.35000413254E+02  0.00000000000E+00 0.  1.
         23    2    1    2    0    0  0.70416957044E+01  0.13775357436E+02  0.82457604134E+02  0.12486624493E+03  0.92482304755E+02 0.  0.
         13    1    3    3    0    0  0.33074670919E+02  0.34808269728E+02  0.77305975714E+02  0.91004194293E+02  0.00000000000E+00 0. -1.
        -13    1    3    3    0    0 -0.26032975215E+02 -0.21032912291E+02  0.51516284195E+01  0.33862050637E+02  0.00000000000E+00 0.  1.
         22    1    1    2    0    0 -0.70416957044E+01 -0.13775357436E+02 -0.94588875068E+01  0.18133298204E+02  0.00000000000E+00 0.  1.
<mgrwt>
<rscale>  0 0.59760898E+02</rscale>
<asrwt>0</asrwt>
<pdfrwt beam="1">  1        2 0.16615251E-01 0.93767386E+02</pdfrwt>
<pdfrwt beam="2">  1       -2 0.53846790E-02 0.93767386E+02</pdfrwt>
<totfact> 0.52304904E+04</totfact>
</mgrwt>
</event>
<event>
 6    1  0.2995420E-002  0.9460528E+02  0.7546771E-02  0.1379862E+00
          2   -1    0    0  501    0  0.00000000000E+00  0.00000000000E+00  0.68905794932E+03  0.68905794932E+03  0.00000000000E+00 0. -1.
         -2   -1    0    0    0  501 -0.00000000000E+00 -0.00000000000E+00 -0.54774975034E+01  0.54774975034E+01  0.00000000000E+00 0.  1.
         23    2    1    2    0    0 -0.19133679754E+02  0.71913589908E+01  0.63218329791E+03  0.63922287344E+03  0.92370701102E+02 0.  0.
         13    1    3    3    0    0 -0.37927367492E+02  0.38661679281E+02  0.46025823728E+03  0.46343376618E+03  0.00000000000E+00 0.  1.
        -13    1    3    3    0    0  0.18793687738E+02 -0.31470320290E+02  0.17192506063E+03  0.17578910726E+03  0.00000000000E+00 0. -1.
         22    1    1    2    0    0  0.19133679754E+02 -0.71913589908E+01  0.51397153907E+02  0.55312573388E+02  0.00000000000E+00 0. -1.
<mgrwt>
<rscale>  0 0.64499943E+02</rscale>
<asrwt>0</asrwt>
<pdfrwt beam="1">  1        2 0.10600885E+00 0.94605284E+02</pdfrwt>
<pdfrwt beam="2">  1       -2 0.84269247E-03 0.94605284E+02</pdfrwt>
<totfact> 0.10265139E+05</totfact>
</mgrwt>
</event>
<event>
 6    1  0.2995420E-002  0.8705792E+02  0.7546771E-02  0.1387079E+00
          2   -1    0    0  501    0  0.00000000000E+00  0.00000000000E+00  0.32158313378E+03  0.32158313378E+03  0.00000000000E+00 0. -1.
         -2   -1    0    0    0  501 -0.00000000000E+00 -0.00000000000E+00 -0.10819609036E+02  0.10819609036E+02  0.00000000000E+00 0.  1.
         23    2    1    2    0    0  0.57614282734E+01  0.22609873349E+02  0.28325505355E+03  0.29633175148E+03  0.83873006054E+02 0.  0.
         11    1    3    3    0    0  0.71858542008E+01 -0.29721129063E+02  0.64225782027E+02  0.71133206664E+02  0.00000000000E+00 0. -1.
        -11    1    3    3    0    0 -0.14244259274E+01  0.52331002412E+02  0.21902927152E+03  0.22519854481E+03  0.00000000000E+00 0.  1.
         22    1    1    2    0    0 -0.57614282734E+01 -0.22609873349E+02  0.27508471197E+02  0.36070991339E+02  0.00000000000E+00 0. -1.
<mgrwt>
<rscale>  0 0.62639174E+02</rscale>
<asrwt>0</asrwt>
<pdfrwt beam="1">  1        2 0.49474321E-01 0.87057921E+02</pdfrwt>
<pdfrwt beam="2">  1       -2 0.16645555E-02 0.87057921E+02</pdfrwt>
<totfact> 0.87978122E+04</totfact>
</mgrwt>
</event>
<event>
 6    1  0.2995420E-002  0.9314654E+02  0.7546771E-02  0.1421817E+00
          2   -1    0    0  501    0  0.00000000000E+00  0.00000000000E+00  0.11891631909E+04  0.11891631909E+04  0.00000000000E+00 0. -1.
         -2   -1    0    0    0  501 -0.00000000000E+00 -0.00000000000E+00 -0.32386037894E+01  0.32386037894E+01  0.00000000000E+00 0.  1.
         23    2    1    2    0    0  0.11020222043E+02 -0.40850711711E+00  0.11652758820E+04  0.11689927966E+04  0.92491431919E+02 0.  0.
         11    1    3    3    0    0  0.43159981399E+02 -0.64611722290E+01  0.97124457282E+03  0.97222453733E+03  0.00000000000E+00 0. -1.
        -11    1    3    3    0    0 -0.32139759355E+02  0.60526651119E+01  0.19403130922E+03  0.19676825924E+03  0.00000000000E+00 0.  1.
         22    1    1    2    0    0 -0.11020222043E+02  0.40850711711E+00  0.20648705020E+02  0.23408998077E+02  0.00000000000E+00 0.  1.
<mgrwt>
<rscale>  0 0.54638298E+02</rscale>
<asrwt>0</asrwt>
<pdfrwt beam="1">  1        2 0.18294784E+00 0.93146536E+02</pdfrwt>
<pdfrwt beam="2">  1       -2 0.49824768E-03 0.93146536E+02</pdfrwt>
<totfact> 0.10550167E+05</totfact>
</mgrwt>
</event>
<event>
 6    1  0.2995420E-002  0.9337554E+02  0.7546771E-02  0.1391029E+00
         -2   -1    0    0    0  501 -0.00000000000E+00  0.00000000000E+00  0.26327123038E+01  0.26327123038E+01  0.00000000000E+00 0.  1.
          2   -1    0    0  501    0  0.00000000000E+00 -0.00000000000E+00 -0.12783562718E+04  0.12783562718E+04  0.00000000000E+00 0. -1.
         23    2    1    2    0    0 -0.17610661569E+02  0.21800535852E+01 -0.11758125216E+04  0.11795143393E+04  0.91673893481E+02 0.  0.
         11    1    3    3    0    0  0.24765964378E+02  0.30888660073E+02 -0.65403855059E+03  0.65523574992E+03  0.00000000000E+00 0. -1.
        -11    1    3    3    0    0 -0.42376625947E+02 -0.28708606487E+02 -0.52177397100E+03  0.52427858942E+03  0.00000000000E+00 0.  1.
         22    1    1    2    0    0  0.17610661569E+02 -0.21800535852E+01 -0.99911037922E+02  0.10147464478E+03  0.00000000000E+00 0. -1.
<mgrwt>
<rscale>  0 0.61651600E+02</rscale>
<asrwt>0</asrwt>
<pdfrwt beam="1">  1        2 0.19667059E+00 0.93375536E+02</pdfrwt>
<pdfrwt beam="2">  1       -2 0.40503185E-03 0.93375536E+02</pdfrwt>
<totfact> 0.12627527E+05</totfact>
</mgrwt>
</event>
<event>
 6    1  0.2995420E-002  0.8796958E+02  0.7546771E-02  0.1433146E+00
          2   -1    0    0  501    0  0.00000000000E+00  0.00000000000E+00  0.20756605023E+03  0.20756605023E+03  0.00000000000E+00 0. -1.
         -2   -1    0    0    0  501 -0.00000000000E+00 -0.00000000000E+00 -0.11823391801E+02  0.11823391801E+02  0.00000000000E+00 0.  1.
         23    2    1    2    0    0 -0.91148342967E-01 -0.11018194246E+02  0.17086618094E+03  0.19218194224E+03  0.87276790860E+02 0.  0.
         13    1    3    3    0    0 -0.21125440809E+02 -0.18106232112E+02  0.16742409530E+03  0.16972020380E+03  0.00000000000E+00 0. -1.
        -13    1    3    3    0    0  0.21034292466E+02  0.70880378653E+01  0.34420856386E+01  0.22461738442E+02  0.00000000000E+00 0.  1.
         22    1    1    2    0    0  0.91148342967E-01  0.11018194246E+02  0.24876477489E+02  0.27207499788E+02  0.00000000000E+00 0.  1.
<mgrwt>
<rscale>  0 0.52333612E+02</rscale>
<asrwt>0</asrwt>
<pdfrwt beam="1">  1        2 0.31933236E-01 0.87969581E+02</pdfrwt>
<pdfrwt beam="2">  1       -2 0.18189835E-02 0.87969581E+02</pdfrwt>
<totfact> 0.12289506E+05</totfact>
</mgrwt>
</event>
<event>
 6    1  0.2995420E-002  0.9443129E+02  0.7546771E-02  0.1397547E+00
         -4   -1    0    0    0  501 -0.00000000000E+00  0.00000000000E+00  0.98831489576E+01  0.98831489576E+01  0.00000000000E+00 0.  1.
          4   -1    0    0  501    0  0.00000000000E+00 -0.00000000000E+00 -0.30620546857E+03  0.30620546857E+03  0.00000000000E+00 0. -1.
         23    2    1    2    0    0 -0.14670443664E+02  0.48792898333E+01 -0.24900439957E+03  0.26630895357E+03  0.93157062856E+02 0.  0.
         11    1    3    3    0    0 -0.19645338024E+02  0.21031464426E+02 -0.24769065114E+03  0.24935701407E+03  0.00000000000E+00 0. -1.
        -11    1    3    3    0    0  0.49748943603E+01 -0.16152174593E+02 -0.13137484290E+01  0.16951939503E+02  0.00000000000E+00 0.  1.
         22    1    1    2    0    0  0.14670443664E+02 -0.48792898333E+01 -0.47317920042E+02  0.49779663957E+02  0.00000000000E+00 0.  1.
<mgrwt>
<rscale>  0 0.60068023E+02</rscale>
<asrwt>0</asrwt>
<pdfrwt beam="1">  1        4 0.47108528E-01 0.94431286E+02</pdfrwt>
<pdfrwt beam="2">  1       -4 0.15204846E-02 0.94431286E+02</pdfrwt>
<totfact> 0.10009126E+04</totfact>
</mgrwt>
</event>
<event>
 6    1  0.2995420E-002  0.9350869E+02  0.7546771E-02  0.1383238E+00
         -2   -1    0    0    0  501 -0.00000000000E+00  0.00000000000E+00  0.51650318142E+02  0.51650318142E+02  0.00000000000E+00 0. -1.
          2   -1    0    0  501    0  0.00000000000E+00 -0.00000000000E+00 -0.14018182782E+03  0.14018182782E+03  0.00000000000E+00 0.  1.
         23    2    1    2    0    0  0.19281523788E+02 -0.54492300828E+01 -0.12146076122E+03  0.15328598045E+03  0.91336761598E+02 0.  0.
         11    1    3    3    0    0  0.43003927549E+02 -0.47748462887E+01 -0.17537230967E+02  0.46687165386E+02  0.00000000000E+00 0. -1.
        -11    1    3    3    0    0 -0.23722403761E+02 -0.67438379413E+00 -0.10392353025E+03  0.10659881507E+03  0.00000000000E+00 0.  1.
         22    1    1    2    0    0 -0.19281523788E+02  0.54492300828E+01  0.32929251543E+02  0.38546165507E+02  0.00000000000E+00 0. -1.
<mgrwt>
<rscale>  0 0.63620312E+02</rscale>
<asrwt>0</asrwt>
<pdfrwt beam="1">  1        2 0.21566435E-01 0.93508691E+02</pdfrwt>
<pdfrwt beam="2">  1       -2 0.79462029E-02 0.93508691E+02</pdfrwt>
<totfact> 0.21665432E+04</totfact>
</mgrwt>
</event>
<event>
 6    1  0.2995420E-002  0.9870187E+02  0.7546771E-02  0.1332873E+00
          4   -1    0    0  501    0  0.00000000000E+00  0.00000000000E+00  0.84785544055E+01  0.84785544055E+01  0.00000000000E+00 0.  1.
         -4   -1    0    0    0  501 -0.00000000000E+00 -0.00000000000E+00 -0.56718653753E+03  0.56718653753E+03  0.00000000000E+00 0. -1.
         23    2    1    2    0    0 -0.37943048178E+02  0.12119610919E+02 -0.41027985031E+03  0.42198532591E+03  0.90307806096E+02 0.  0.
         11    1    3    3    0    0 -0.14828140208E+02  0.26925973816E+02 -0.38837939308E+02  0.49530468781E+02  0.00000000000E+00 0.  1.
        -11    1    3    3    0    0 -0.23114907971E+02 -0.14806362897E+02 -0.37144191100E+03  0.37245485713E+03  0.00000000000E+00 0. -1.
         22    1    1    2    0    0  0.37943048178E+02 -0.12119610919E+02 -0.14842813282E+03  0.15367976603E+03  0.00000000000E+00 0. -1.
<mgrwt>
<rscale>  0 0.78668542E+02</rscale>
<asrwt>0</asrwt>
<pdfrwt beam="1">  1        4 0.13043929E-02 0.98701873E+02</pdfrwt>
<pdfrwt beam="2">  1       -4 0.87259472E-01 0.98701873E+02</pdfrwt>
<totfact> 0.34776804E+03</totfact>
</mgrwt>
</event>
<event>
 6    1  0.2995420E-002  0.9252437E+02  0.7546771E-02  0.1387479E+00
         -2   -1    0    0    0  501 -0.00000000000E+00  0.00000000000E+00  0.24898999002E+02  0.24898999002E+02  0.00000000000E+00 0.  1.
          2   -1    0    0  501    0  0.00000000000E+00 -0.00000000000E+00 -0.12760271642E+03  0.12760271642E+03  0.00000000000E+00 0. -1.
         23    2    1    2    0    0 -0.16523919751E+02 -0.99942401222E+01 -0.91737461598E+02  0.13029397969E+03  0.90486653847E+02 0.  0.
         13    1    3    3    0    0 -0.20931155362E+02 -0.16940645242E+02  0.96265680893E+01  0.28596670072E+02  0.00000000000E+00 0.  1.
        -13    1    3    3    0    0  0.44072356115E+01  0.69464051199E+01 -0.10136402969E+03  0.10169730962E+03  0.00000000000E+00 0. -1.
         22    1    1    2    0    0  0.16523919751E+02  0.99942401222E+01 -0.10966255822E+02  0.22207735731E+02  0.00000000000E+00 0. -1.
<mgrwt>
<rscale>  0 0.62538111E+02</rscale>
<asrwt>0</asrwt>
<pdfrwt beam="1">  1        2 0.19631188E-01 0.92524371E+02</pdfrwt>
<pdfrwt beam="2">  1       -2 0.38306151E-02 0.92524371E+02</pdfrwt>
<totfact> 0.71553112E+04</totfact>
</mgrwt>
</event>
<event>
 6    1  0.2995420E-002  0.9168179E+02  0.7546771E-02  0.1427749E+00
         -2   -1    0    0    0  501 -0.00000000000E+00  0.00000000000E+00  0.69061459069E+02  0.69061459069E+02  0.00000000000E+00 0.  1.
          2   -1    0    0  501    0  0.00000000000E+00 -0.00000000000E+00 -0.43387034553E+02  0.43387034553E+02  0.00000000000E+00 0. -1.
         23    2    1    2    0    0  0.51822720882E+01  0.92044528439E+01  0.82237727181E+01  0.92049887192E+02  0.91071254511E+02 0.  0.
         11    1    3    3    0    0 -0.38712440548E+02  0.14164160421E+02 -0.12750705234E+02  0.43149240754E+02  0.00000000000E+00 0.  1.
        -11    1    3    3    0    0  0.43894712636E+02 -0.49597075771E+01  0.20974477953E+02  0.48900646438E+02  0.00000000000E+00 0. -1.
         22    1    1    2    0    0 -0.51822720882E+01 -0.92044528439E+01  0.17450651798E+02  0.20398606431E+02  0.00000000000E+00 0. -1.
<mgrwt>
<rscale>  0 0.53414553E+02</rscale>
<asrwt>0</asrwt>
<pdfrwt beam="1">  1        2 0.66749284E-02 0.91681794E+02</pdfrwt>
<pdfrwt beam="2">  1       -2 0.10624840E-01 0.91681794E+02</pdfrwt>
<totfact> 0.55488774E+04</totfact>
</mgrwt>
</event>
<event>
 6    1  0.2995420E-002  0.9026983E+02  0.7546771E-02  0.1389967E+00
         -2   -1    0    0    0  501 -0.00000000000E+00  0.00000000000E+00  0.12394790994E+03  0.12394790994E+03  0.00000000000E+00 0.  1.
          2   -1    0    0  501    0  0.00000000000E+00 -0.00000000000E+00 -0.29044281747E+02  0.29044281747E+02  0.00000000000E+00 0. -1.
         23    2    1    2    0    0  0.12634670170E+02 -0.15475389922E+02  0.48507052623E+02  0.10247719581E+03  0.88031351938E+02 0.  0.
         13    1    3    3    0    0  0.26761690142E+02 -0.41268495148E+02  0.42891906600E+01  0.49372805344E+02  0.00000000000E+00 0. -1.
        -13    1    3    3    0    0 -0.14127019972E+02  0.25793105226E+02  0.44217861963E+02  0.53104390469E+02  0.00000000000E+00 0.  1.
         22    1    1    2    0    0 -0.12634670170E+02  0.15475389922E+02  0.46396575570E+02  0.50514995874E+02  0.00000000000E+00 0.  1.
<mgrwt>
<rscale>  0 0.61914909E+02</rscale>
<asrwt>0</asrwt>
<pdfrwt beam="1">  1        2 0.44683511E-02 0.90269826E+02</pdfrwt>
<pdfrwt beam="2">  1       -2 0.19068909E-01 0.90269826E+02</pdfrwt>
<totfact> 0.36097742E+04</totfact>
</mgrwt>
</event>
<event>
 6    1  0.2995420E-002  0.9500873E+02  0.7546771E-02  0.1377083E+00
          2   -1    0    0  501    0  0.00000000000E+00  0.00000000000E+00  0.96803766054E+03  0.96803766054E+03  0.00000000000E+00 0. -1.
         -2   -1    0    0    0  501 -0.00000000000E+00 -0.00000000000E+00 -0.42001456954E+01  0.42001456954E+01  0.00000000000E+00 0.  1.
         23    2    1    2    0    0 -0.14628874683E+02  0.15232482158E+02  0.89992379011E+03  0.90492512766E+03  0.92631669433E+02 0.  0.
         11    1    3    3    0    0 -0.29850523242E+02  0.46554279173E+02  0.68176619971E+03  0.68400548661E+03  0.00000000000E+00 0. -1.
        -11    1    3    3    0    0  0.15221648559E+02 -0.31321797015E+02  0.21815759039E+03  0.22091964105E+03  0.00000000000E+00 0.  1.
         22    1    1    2    0    0  0.14628874683E+02 -0.15232482158E+02  0.63913724736E+02  0.67312678574E+02  0.00000000000E+00 0.  1.
<mgrwt>
<rscale>  0 0.65236919E+02</rscale>
<asrwt>0</asrwt>
<pdfrwt beam="1">  1        2 0.14892869E+00 0.95008729E+02</pdfrwt>
<pdfrwt beam="2">  1       -2 0.64617703E-03 0.95008729E+02</pdfrwt>
<totfact> 0.98051619E+04</totfact>
</mgrwt>
</event>
<event>
 6    1  0.2995420E-002  0.9114625E+02  0.7546771E-02  0.1413032E+00
          2   -1    0    0  501    0  0.00000000000E+00  0.00000000000E+00  0.22349141749E+02  0.22349141749E+02  0.00000000000E+00 0. -1.
         -2   -1    0    0    0  501 -0.00000000000E+00 -0.00000000000E+00 -0.12328597416E+03  0.12328597416E+03  0.00000000000E+00 0.  1.
         23    2    1    2    0    0  0.12890188470E+02 -0.39424296544E+01 -0.83642883710E+02  0.12370841137E+03  0.90143992243E+02 0.  0.
         13    1    3    3    0    0 -0.36474381394E+00  0.16560933812E+02  0.14842568042E+02  0.22241838792E+02  0.00000000000E+00 0. -1.
        -13    1    3    3    0    0  0.13254932284E+02 -0.20503363466E+02 -0.98485451753E+02  0.10146657258E+03  0.00000000000E+00 0.  1.
         22    1    1    2    0    0 -0.12890188470E+02  0.39424296544E+01 -0.17293948699E+02  0.21926704540E+02  0.00000000000E+00 0. -1.
<mgrwt>
<rscale>  0 0.56522763E+02</rscale>
<asrwt>0</asrwt>
<pdfrwt beam="1">  1        2 0.34383295E-02 0.91146251E+02</pdfrwt>
<pdfrwt beam="2">  1       -2 0.18967073E-01 0.91146251E+02</pdfrwt>
<totfact> 0.51401577E+04</totfact>
</mgrwt>
</event>
<event>
 6    1  0.2995420E-002  0.9351738E+02  0.7546771E-02  0.1400948E+00
         -2   -1    0    0    0  501 -0.00000000000E+00  0.00000000000E+00  0.29056019929E+02  0.29056019929E+02  0.00000000000E+00 0.  1.
          2   -1    0    0  501    0  0.00000000000E+00 -0.00000000000E+00 -0.24941429550E+03  0.24941429550E+03  0.00000000000E+00 0. -1.
         23    2    1    2    0    0 -0.59962125485E+01  0.13839392211E+02 -0.23773132358E+03  0.25546366119E+03  0.92293101768E+02 0.  0.
         13    1    3    3    0    0 -0.19567450031E+02  0.50596324531E+02 -0.13256579860E+03  0.14323604335E+03  0.00000000000E+00 0. -1.
        -13    1    3    3    0    0  0.13571237482E+02 -0.36756932320E+02 -0.10516552498E+03  0.11222761783E+03  0.00000000000E+00 0.  1.
         22    1    1    2    0    0  0.59962125485E+01 -0.13839392211E+02  0.17373048017E+02  0.23006654235E+02  0.00000000000E+00 0.  1.
<mgrwt>
<rscale>  0 0.59263588E+02</rscale>
<asrwt>0</asrwt>
<pdfrwt beam="1">  1        2 0.38371430E-01 0.93517378E+02</pdfrwt>
<pdfrwt beam="2">  1       -2 0.44701569E-02 0.93517378E+02</pdfrwt>
<totfact> 0.27643683E+04</totfact>
</mgrwt>
</event>
<event>
 6    1  0.2995420E-002  0.1047797E+03  0.7546771E-02  0.1304244E+00
         -4   -1    0    0    0  501 -0.00000000000E+00  0.00000000000E+00  0.98155157901E+02  0.98155157901E+02  0.00000000000E+00 0.  1.
          4   -1    0    0  501    0  0.00000000000E+00 -0.00000000000E+00 -0.15920905497E+03  0.15920905497E+03  0.00000000000E+00 0. -1.
         23    2    1    2    0    0 -0.44189001241E+02  0.33739801681E+02  0.62411071211E+02  0.12195874607E+03  0.88813016413E+02 0.  0.
         11    1    3    3    0    0 -0.57970604561E+02 -0.58781741471E+00  0.62116169193E+02  0.84966787616E+02  0.00000000000E+00 0. -1.
        -11    1    3    3    0    0  0.13781603320E+02  0.34327619095E+02  0.29490201734E+00  0.36991958451E+02  0.00000000000E+00 0.  1.
         22    1    1    2    0    0  0.44189001241E+02 -0.33739801681E+02 -0.12346496828E+03  0.13540546680E+03  0.00000000000E+00 0. -1.
<mgrwt>
<rscale>  0 0.89427502E+02</rscale>
<asrwt>0</asrwt>
<pdfrwt beam="1">  1        4 0.24493701E-01 0.10477974E+03</pdfrwt>
<pdfrwt beam="2">  1       -4 0.15100794E-01 0.10477974E+03</pdfrwt>
<totfact> 0.90442251E+02</totfact>
</mgrwt>
</event>
<event>
 6    1  0.2995420E-002  0.1005159E+03  0.7546771E-02  0.1332054E+00
          1   -1    0    0  501    0  0.00000000000E+00  0.00000000000E+00  0.11722763797E+02  0.11722763797E+02  0.00000000000E+00 0. -1.
         -1   -1    0    0    0  501 -0.00000000000E+00 -0.00000000000E+00 -0.41246895240E+03  0.41246895240E+03  0.00000000000E+00 0.  1.
         23    2    1    2    0    0 -0.71510104524E+01 -0.37584506120E+02 -0.27747836135E+03  0.29512317128E+03  0.92950057341E+02 0.  0.
         13    1    3    3    0    0 -0.48599820492E+02 -0.14886581672E+02 -0.17578330249E+03  0.18298448650E+03  0.00000000000E+00 0. -1.
        -13    1    3    3    0    0  0.41448810040E+02 -0.22697924448E+02 -0.10169505886E+03  0.11213868478E+03  0.00000000000E+00 0.  1.
         22    1    1    2    0    0  0.71510104524E+01  0.37584506120E+02 -0.12326782726E+03  0.12906854492E+03  0.00000000000E+00 0. -1.
<mgrwt>
<rscale>  0 0.78951204E+02</rscale>
<asrwt>0</asrwt>
<pdfrwt beam="1">  1        1 0.18035020E-02 0.10051590E+03</pdfrwt>
<pdfrwt beam="2">  1       -1 0.63456765E-01 0.10051590E+03</pdfrwt>
<totfact> 0.16486468E+04</totfact>
</mgrwt>
</event>
<event>
 6    1  0.2995420E-002  0.9008972E+02  0.7546771E-02  0.1407882E+00
          2   -1    0    0  501    0  0.00000000000E+00  0.00000000000E+00  0.45216739916E+03  0.45216739916E+03  0.00000000000E+00 0. -1.
         -2   -1    0    0    0  501 -0.00000000000E+00 -0.00000000000E+00 -0.69762771634E+01  0.69762771634E+01  0.00000000000E+00 0.  1.
         23    2    1    2    0    0 -0.39672054713E+01  0.14597348147E+02  0.42161009036E+03  0.43112785320E+03  0.88810676276E+02 0.  0.
         13    1    3    3    0    0 -0.39557469672E+02 -0.14153422317E+02  0.15367516123E+03  0.15931468216E+03  0.00000000000E+00 0.  1.
        -13    1    3    3    0    0  0.35590264201E+02  0.28750770464E+02  0.26793492912E+03  0.27181317104E+03  0.00000000000E+00 0. -1.
         22    1    1    2    0    0  0.39672054713E+01 -0.14597348147E+02  0.23581031640E+02  0.28015823125E+02  0.00000000000E+00 0.  1.
<mgrwt>
<rscale>  0 0.57669141E+02</rscale>
<asrwt>0</asrwt>
<pdfrwt beam="1">  1        2 0.69564192E-01 0.90089719E+02</pdfrwt>
<pdfrwt beam="2">  1       -2 0.10732738E-02 0.90089719E+02</pdfrwt>
<totfact> 0.11537681E+05</totfact>
</mgrwt>
</event>
<event>
 6    1  0.2995420E-002  0.1058277E+03  0.7546771E-02  0.1307495E+00
         -2   -1    0    0    0  501 -0.00000000000E+00  0.00000000000E+00  0.39239128386E+02  0.39239128386E+02  0.00000000000E+00 0.  1.
          2   -1    0    0  501    0  0.00000000000E+00 -0.00000000000E+00 -0.24939364357E+03  0.24939364357E+03  0.00000000000E+00 0. -1.
         23    2    1    2    0    0  0.50369933743E+02 -0.69748052678E+01 -0.21285403643E+03  0.23771062010E+03  0.92810128493E+02 0.  0.
         13    1    3    3    0    0 -0.16894593798E+02 -0.16037184192E+02 -0.13065836247E+02  0.26708325542E+02  0.00000000000E+00 0.  1.
        -13    1    3    3    0    0  0.67264527541E+02  0.90623789242E+01 -0.19978820019E+03  0.21100229456E+03  0.00000000000E+00 0. -1.
         22    1    1    2    0    0 -0.50369933743E+02  0.69748052678E+01  0.26995212537E+01  0.50922151847E+02  0.00000000000E+00 0.  1.
<mgrwt>
<rscale>  0 0.88109628E+02</rscale>
<asrwt>0</asrwt>
<pdfrwt beam="1">  1        2 0.38368253E-01 0.10582768E+03</pdfrwt>
<pdfrwt beam="2">  1       -2 0.60367889E-02 0.10582768E+03</pdfrwt>
<totfact> 0.17889878E+04</totfact>
</mgrwt>
</event>
<event>
 6    1  0.2995420E-002  0.9281799E+02  0.7546771E-02  0.1391939E+00
         -2   -1    0    0    0  501 -0.00000000000E+00  0.00000000000E+00  0.38610229903E+02  0.38610229903E+02  0.00000000000E+00 0.  1.
          2   -1    0    0  501    0  0.00000000000E+00 -0.00000000000E+00 -0.90944106764E+02  0.90944106764E+02  0.00000000000E+00 0. -1.
         23    2    1    2    0    0  0.13785734368E+01  0.17751545339E+02 -0.59619720039E+02  0.11031631864E+03  0.91094244137E+02 0.  0.
         13    1    3    3    0    0  0.22885478989E+02  0.25862141895E+02  0.10845512552E+02  0.36196970515E+02  0.00000000000E+00 0.  1.
        -13    1    3    3    0    0 -0.21506905552E+02 -0.81105965561E+01 -0.70465232591E+02  0.74119348129E+02  0.00000000000E+00 0. -1.
         22    1    1    2    0    0 -0.13785734368E+01 -0.17751545339E+02  0.72858431779E+01  0.19238018023E+02  0.00000000000E+00 0. -1.
<mgrwt>
<rscale>  0 0.61427038E+02</rscale>
<asrwt>0</asrwt>
<pdfrwt beam="1">  1        2 0.13991401E-01 0.92817989E+02</pdfrwt>
<pdfrwt beam="2">  1       -2 0.59400354E-02 0.92817989E+02</pdfrwt>
<totfact> 0.55001798E+04</totfact>
</mgrwt>
</event>
<event>
 6    1  0.2995420E-002  0.9449310E+02  0.7546771E-02  0.1369023E+00
         -2   -1    0    0    0  501 -0.00000000000E+00  0.00000000000E+00  0.79737943129E+02  0.79737943129E+02  0.00000000000E+00 0.  1.
          2   -1    0    0  501    0  0.00000000000E+00 -0.00000000000E+00 -0.44653834973E+02  0.44653834973E+02  0.00000000000E+00 0. -1.
         23    2    1    2    0    0  0.11621356802E+02  0.21586939842E+02  0.24043047179E+02  0.97503919631E+02  0.91257297352E+02 0.  0.
         11    1    3    3    0    0  0.18387312402E+02 -0.32985831870E+02  0.71894519733E+00  0.37771354804E+02  0.00000000000E+00 0. -1.
        -11    1    3    3    0    0 -0.67659556001E+01  0.54572771712E+02  0.23324101982E+02  0.59732564827E+02  0.00000000000E+00 0.  1.
         22    1    1    2    0    0 -0.11621356802E+02 -0.21586939842E+02  0.11041060976E+02  0.26887858471E+02  0.00000000000E+00 0.  1.
<mgrwt>
<rscale>  0 0.67439459E+02</rscale>
<asrwt>0</asrwt>
<pdfrwt beam="1">  1        2 0.68698208E-02 0.94493101E+02</pdfrwt>
<pdfrwt beam="2">  1       -2 0.12267376E-01 0.94493101E+02</pdfrwt>
<totfact> 0.42853414E+04</totfact>
</mgrwt>
</event>
<event>
 6    1  0.2995420E-002  0.9367045E+02  0.7546771E-02  0.1421393E+00
          2   -1    0    0  501    0  0.00000000000E+00  0.00000000000E+00  0.87851798126E+03  0.87851798126E+03  0.00000000000E+00 0. -1.
         -2   -1    0    0    0  501 -0.00000000000E+00 -0.00000000000E+00 -0.65564875111E+01  0.65564875111E+01  0.00000000000E+00 0.  1.
         23    2    1    2    0    0 -0.83993682223E+01 -0.69699382084E+01  0.86862535192E+03  0.87366135055E+03  0.93032381665E+02 0.  0.
         11    1    3    3    0    0  0.17741001490E+02  0.37306240082E+02  0.32643054305E+03  0.32903403793E+03  0.00000000000E+00 0.  1.
        -11    1    3    3    0    0 -0.26140369713E+02 -0.44276178290E+02  0.54219480886E+03  0.54462731262E+03  0.00000000000E+00 0. -1.
         22    1    1    2    0    0  0.83993682223E+01  0.69699382084E+01  0.33361418385E+01  0.11413118221E+02  0.00000000000E+00 0.  1.
<mgrwt>
<rscale>  0 0.54727340E+02</rscale>
<asrwt>0</asrwt>
<pdfrwt beam="1">  1        2 0.13515652E+00 0.93670451E+02</pdfrwt>
<pdfrwt beam="2">  1       -2 0.10086911E-02 0.93670451E+02</pdfrwt>
<totfact> 0.59206445E+04</totfact>
</mgrwt>
</event>
<event>
 6    1  0.2995420E-002  0.9717637E+02  0.7546771E-02  0.1352539E+00
         -1   -1    0    0    0  501 -0.00000000000E+00  0.00000000000E+00  0.69206038986E+01  0.69206038986E+01  0.00000000000E+00 0.  1.
          1   -1    0    0  501    0  0.00000000000E+00 -0.00000000000E+00 -0.94852207097E+03  0.94852207097E+03  0.00000000000E+00 0. -1.
         23    2    1    2    0    0  0.20288671299E+02 -0.21727061602E+02 -0.89437760921E+03  0.89964134746E+03  0.92517840541E+02 0.  0.
         13    1    3    3    0    0  0.64385815726E+01  0.33830937287E+02 -0.20334217338E+03  0.20623779267E+03  0.00000000000E+00 0.  1.
        -13    1    3    3    0    0  0.13850089727E+02 -0.55557998889E+02 -0.69103543583E+03  0.69340355479E+03  0.00000000000E+00 0. -1.
         22    1    1    2    0    0 -0.20288671299E+02  0.21727061602E+02 -0.47223857859E+02  0.55801327404E+02  0.00000000000E+00 0.  1.
<mgrwt>
<rscale>  0 0.72270043E+02</rscale>
<asrwt>0</asrwt>
<pdfrwt beam="1">  1        1 0.14592632E+00 0.97176367E+02</pdfrwt>
<pdfrwt beam="2">  1       -1 0.10647094E-02 0.97176367E+02</pdfrwt>
<totfact> 0.27639729E+04</totfact>
</mgrwt>
</event>
<event>
 6    1  0.2995420E-002  0.7429089E+02  0.7546771E-02  0.1455078E+00
         -2   -1    0    0    0  501 -0.00000000000E+00  0.00000000000E+00  0.62539356560E+01  0.62539356560E+01  0.00000000000E+00 0.  1.
          2   -1    0    0  501    0  0.00000000000E+00 -0.00000000000E+00 -0.30891476661E+03  0.30891476661E+03  0.00000000000E+00 0. -1.
         23    2    1    2    0    0 -0.16473407983E+01  0.13103291519E+02 -0.24506016539E+03  0.25607346850E+03  0.73107637281E+02 0.  0.
         11    1    3    3    0    0 -0.13513649807E+02  0.13900510378E+02 -0.24327610246E+03  0.24404734162E+03  0.00000000000E+00 0. -1.
        -11    1    3    3    0    0  0.11866309009E+02 -0.79721885852E+00 -0.17840629300E+01  0.12026126889E+02  0.00000000000E+00 0.  1.
         22    1    1    2    0    0  0.16473407983E+01 -0.13103291519E+02 -0.57600665564E+02  0.59095233765E+02  0.00000000000E+00 0.  1.
<mgrwt>
<rscale>  0 0.48238978E+02</rscale>
<asrwt>0</asrwt>
<pdfrwt beam="1">  1        2 0.47525353E-01 0.74290892E+02</pdfrwt>
<pdfrwt beam="2">  1       -2 0.96214386E-03 0.74290892E+02</pdfrwt>
<totfact> 0.19435954E+05</totfact>
</mgrwt>
</event>
<event>
 6    1  0.2995420E-002  0.9003884E+02  0.7546771E-02  0.1410616E+00
         -2   -1    0    0    0  501 -0.00000000000E+00  0.00000000000E+00  0.81273050376E+01  0.81273050376E+01  0.00000000000E+00 0. -1.
          2   -1    0    0  501    0  0.00000000000E+00 -0.00000000000E+00 -0.53712613205E+03  0.53712613205E+03  0.00000000000E+00 0.  1.
         23    2    1    2    0    0 -0.13379995809E+02  0.56367421637E+01 -0.52090816007E+03  0.52863248520E+03  0.88860542602E+02 0.  0.
         11    1    3    3    0    0 -0.10428520893E+02  0.12874800293E+02 -0.14077204731E+02  0.21741256257E+02  0.00000000000E+00 0. -1.
        -11    1    3    3    0    0 -0.29514749153E+01 -0.72380581291E+01 -0.50683095534E+03  0.50689122894E+03  0.00000000000E+00 0.  1.
         22    1    1    2    0    0  0.13379995809E+02 -0.56367421637E+01 -0.80906669423E+01  0.16620951887E+02  0.00000000000E+00 0.  1.
<mgrwt>
<rscale>  0 0.57056552E+02</rscale>
<asrwt>0</asrwt>
<pdfrwt beam="1">  1        2 0.82634767E-01 0.90038843E+02</pdfrwt>
<pdfrwt beam="2">  1       -2 0.12503550E-02 0.90038843E+02</pdfrwt>
<totfact> 0.77150252E+04</totfact>
</mgrwt>
</event>
<event>
 6    1  0.2995420E-002  0.1049481E+03  0.7546771E-02  0.1299710E+00
          2   -1    0    0  501    0  0.00000000000E+00  0.00000000000E+00  0.35128848376E+03  0.35128848376E+03  0.00000000000E+00 0. -1.
         -2   -1    0    0    0  501 -0.00000000000E+00 -0.00000000000E+00 -0.44980813834E+02  0.44980813834E+02  0.00000000000E+00 0.  1.
         23    2    1    2    0    0 -0.44617041101E+02 -0.40322714282E+02  0.31811805674E+03  0.33498237500E+03  0.86008673348E+02 0.  0.
         11    1    3    3    0    0  0.93568030311E+01 -0.48710162710E+02  0.13186165677E+03  0.14088195853E+03  0.00000000000E+00 0.  1.
        -11    1    3    3    0    0 -0.53973844132E+02  0.83874484276E+01  0.18625639998E+03  0.19410041647E+03  0.00000000000E+00 0. -1.
         22    1    1    2    0    0  0.44617041101E+02  0.40322714282E+02 -0.11810386821E+02  0.61286922590E+02  0.00000000000E+00 0.  1.
<mgrwt>
<rscale>  0 0.91310006E+02</rscale>
<asrwt>0</asrwt>
<pdfrwt beam="1">  1        2 0.54044380E-01 0.10494805E+03</pdfrwt>
<pdfrwt beam="2">  1       -2 0.69201254E-02 0.10494805E+03</pdfrwt>
<totfact> 0.10140602E+04</totfact>
</mgrwt>
</event>
<event>
 6    1  0.2995420E-002  0.9392287E+02  0.7546771E-02  0.1393695E+00
         -4   -1    0    0    0  501 -0.00000000000E+00  0.00000000000E+00  0.16434876200E+03  0.16434876200E+03  0.00000000000E+00 0.  1.
          4   -1    0    0  501    0  0.00000000000E+00 -0.00000000000E+00 -0.18820254432E+02  0.18820254432E+02  0.00000000000E+00 0. -1.
         23    2    1    2    0    0 -0.16700187570E+02 -0.50462560008E+00  0.12984347040E+03  0.16025240013E+03  0.92424856126E+02 0.  0.
         13    1    3    3    0    0 -0.28096185191E+02 -0.42038860419E+02  0.76359291719E+02  0.91582764969E+02  0.00000000000E+00 0.  1.
        -13    1    3    3    0    0  0.11395997621E+02  0.41534234819E+02  0.53484178677E+02  0.68669635156E+02  0.00000000000E+00 0. -1.
         22    1    1    2    0    0  0.16700187570E+02  0.50462560008E+00  0.15685037174E+02  0.22916616309E+02  0.00000000000E+00 0.  1.
<mgrwt>
<rscale>  0 0.60996988E+02</rscale>
<asrwt>0</asrwt>
<pdfrwt beam="1">  1        4 0.28954239E-02 0.93922867E+02</pdfrwt>
<pdfrwt beam="2">  1       -4 0.25284424E-01 0.93922867E+02</pdfrwt>
<totfact> 0.12254254E+04</totfact>
</mgrwt>
</event>
<event>
 6    1  0.2995420E-002  0.9436666E+02  0.7546771E-02  0.1411694E+00
         -2   -1    0    0    0  501 -0.00000000000E+00  0.00000000000E+00  0.88747959297E+01  0.88747959297E+01  0.00000000000E+00 0. -1.
          2   -1    0    0  501    0  0.00000000000E+00 -0.00000000000E+00 -0.32316011485E+03  0.32316011485E+03  0.00000000000E+00 0.  1.
         23    2    1    2    0    0 -0.77137935233E+01  0.97104583321E+01 -0.26852251317E+03  0.28462151603E+03  0.93548231926E+02 0.  0.
         11    1    3    3    0    0  0.10391199122E+02 -0.77383088463E-01  0.41381813835E+01  0.11185148747E+02  0.00000000000E+00 0. -1.
        -11    1    3    3    0    0 -0.18104992646E+02  0.97878414206E+01 -0.27266069455E+03  0.27343636728E+03  0.00000000000E+00 0.  1.
         22    1    1    2    0    0  0.77137935233E+01 -0.97104583321E+01 -0.45762805752E+02  0.47413394751E+02  0.00000000000E+00 0. -1.
<mgrwt>
<rscale>  0 0.56817477E+02</rscale>
<asrwt>0</asrwt>
<pdfrwt beam="1">  1        2 0.49716939E-01 0.94366664E+02</pdfrwt>
<pdfrwt beam="2">  1       -2 0.13653533E-02 0.94366664E+02</pdfrwt>
<totfact> 0.11753698E+05</totfact>
</mgrwt>
</event>
<event>
 6    1  0.2995420E-002  0.9284551E+02  0.7546771E-02  0.1413884E+00
         -2   -1    0    0    0  501 -0.00000000000E+00  0.00000000000E+00  0.79616007146E+01  0.79616007146E+01  0.00000000000E+00 0.  1.
          2   -1    0    0  501    0  0.00000000000E+00 -0.00000000000E+00 -0.52234476211E+03  0.52234476211E+03  0.00000000000E+00 0. -1.
         23    2    1    2    0    0 -0.62348977573E+01  0.10932393201E+02 -0.50757652372E+03  0.51599827114E+03  0.91988571113E+02 0.  0.
         13    1    3    3    0    0 -0.10628585818E+02 -0.40014397560E+02 -0.24814050569E+03  0.25157072448E+03  0.00000000000E+00 0. -1.
        -13    1    3    3    0    0  0.43936880604E+01  0.50946790761E+02 -0.25943601803E+03  0.26442754666E+03  0.00000000000E+00 0.  1.
         22    1    1    2    0    0  0.62348977573E+01 -0.10932393201E+02 -0.68066376690E+01  0.14308091679E+02  0.00000000000E+00 0.  1.
<mgrwt>
<rscale>  0 0.56336134E+02</rscale>
<asrwt>0</asrwt>
<pdfrwt beam="1">  1        2 0.80360713E-01 0.92845508E+02</pdfrwt>
<pdfrwt beam="2">  1       -2 0.12248620E-02 0.92845508E+02</pdfrwt>
<totfact> 0.82242805E+04</totfact>
</mgrwt>
</event>
<event>
 6    1  0.2995420E-002  0.9955938E+02  0.7546771E-02  0.1329622E+00
          4   -1    0    0  501    0  0.00000000000E+00  0.00000000000E+00  0.28168530457E+03  0.28168530457E+03  0.00000000000E+00 0. -1.
         -4   -1    0    0    0  501 -0.00000000000E+00 -0.00000000000E+00 -0.18489785452E+02  0.18489785452E+02  0.00000000000E+00 0.  1.
         23    2    1    2    0    0 -0.40649896152E+02  0.60042064887E+01  0.21436060636E+03  0.23635257631E+03  0.90684101229E+02 0.  0.
         11    1    3    3    0    0 -0.29403473515E+02  0.19937484504E+02  0.19218744019E+02  0.40390935428E+02  0.00000000000E+00 0.  1.
        -11    1    3    3    0    0 -0.11246422637E+02 -0.13933278015E+02  0.19514186234E+03  0.19596164088E+03  0.00000000000E+00 0. -1.
         22    1    1    2    0    0  0.40649896152E+02 -0.60042064887E+01  0.48834912757E+02  0.63822513713E+02  0.00000000000E+00 0. -1.
<mgrwt>
<rscale>  0 0.79799127E+02</rscale>
<asrwt>0</asrwt>
<pdfrwt beam="1">  1        4 0.43336198E-01 0.99559383E+02</pdfrwt>
<pdfrwt beam="2">  1       -4 0.28445826E-02 0.99559383E+02</pdfrwt>
<totfact> 0.45940458E+03</totfact>
</mgrwt>
</event>
<event>
 6    1  0.2995420E-002  0.9155694E+02  0.7546771E-02  0.1411223E+00
         -2   -1    0    0    0  501 -0.00000000000E+00  0.00000000000E+00  0.43934368206E+01  0.43934368206E+01  0.00000000000E+00 0.  1.
          2   -1    0    0  501    0  0.00000000000E+00 -0.00000000000E+00 -0.63554990979E+03  0.63554990979E+03  0.00000000000E+00 0. -1.
         23    2    1    2    0    0 -0.10664488055E+02 -0.85659365724E+01 -0.56703414384E+03  0.57437826698E+03  0.90529369357E+02 0.  0.
         13    1    3    3    0    0  0.30782921043E+02 -0.18310274184E+02 -0.41354423685E+03  0.41509238755E+03  0.00000000000E+00 0. -1.
        -13    1    3    3    0    0 -0.41447409099E+02  0.97443376113E+01 -0.15348990699E+03  0.15928587943E+03  0.00000000000E+00 0.  1.
         22    1    1    2    0    0  0.10664488055E+02  0.85659365724E+01 -0.64122329125E+02  0.65565079632E+02  0.00000000000E+00 0.  1.
<mgrwt>
<rscale>  0 0.56921926E+02</rscale>
<asrwt>0</asrwt>
<pdfrwt beam="1">  1        2 0.97776890E-01 0.91556940E+02</pdfrwt>
<pdfrwt beam="2">  1       -2 0.67591349E-03 0.91556940E+02</pdfrwt>
<totfact> 0.15300788E+05</totfact>
</mgrwt>
</event>
<event>
 6    1  0.2995420E-002  0.9084011E+02  0.7546771E-02  0.1400273E+00
         -2   -1    0    0    0  501 -0.00000000000E+00  0.00000000000E+00  0.25768714054E+01  0.25768714054E+01  0.00000000000E+00 0.  1.
          2   -1    0    0  501    0  0.00000000000E+00 -0.00000000000E+00 -0.16822207042E+04  0.16822207042E+04  0.00000000000E+00 0. -1.
         23    2    1    2    0    0  0.11864582679E+02 -0.11656359063E+02 -0.16281939371E+04  0.16307260416E+04  0.89304460822E+02 0.  0.
         11    1    3    3    0    0 -0.39706311733E+01 -0.49407277115E+02 -0.82140021376E+03  0.82289437725E+03  0.00000000000E+00 0.  1.
        -11    1    3    3    0    0  0.15835213853E+02  0.37750918052E+02 -0.80679372337E+03  0.80783166432E+03  0.00000000000E+00 0. -1.
         22    1    1    2    0    0 -0.11864582679E+02  0.11656359063E+02 -0.51449895634E+02  0.54071534004E+02  0.00000000000E+00 0.  1.
<mgrwt>
<rscale>  0 0.59422022E+02</rscale>
<asrwt>0</asrwt>
<pdfrwt beam="1">  1        2 0.25880257E+00 0.90840111E+02</pdfrwt>
<pdfrwt beam="2">  1       -2 0.39644269E-03 0.90840111E+02</pdfrwt>
<totfact> 0.80393763E+04</totfact>
</mgrwt>
</event>
<event>
 6    1  0.2995420E-002  0.1002882E+03  0.7546771E-02  0.1334016E+00
          4   -1    0    0  501    0  0.00000000000E+00  0.00000000000E+00  0.51515094025E+03  0.51515094025E+03  0.00000000000E+00 0. -1.
         -4   -1    0    0    0  501 -0.00000000000E+00 -0.00000000000E+00 -0.16673012570E+02  0.16673012570E+02  0.00000000000E+00 0.  1.
         23    2    1    2    0    0  0.24559761114E+02 -0.27965851250E+02  0.47982240926E+03  0.49019104432E+03  0.93125962050E+02 0.  0.
         13    1    3    3    0    0  0.51221915664E+02 -0.36245341146E+02  0.21700753450E+03  0.22589749762E+03  0.00000000000E+00 0.  1.
        -13    1    3    3    0    0 -0.26662154550E+02  0.82794898959E+01  0.26281487476E+03  0.26429354671E+03  0.00000000000E+00 0. -1.
         22    1    1    2    0    0 -0.24559761114E+02  0.27965851250E+02  0.18655518421E+02  0.41632908494E+02  0.00000000000E+00 0.  1.
<mgrwt>
<rscale>  0 0.78276083E+02</rscale>
<asrwt>0</asrwt>
<pdfrwt beam="1">  1        4 0.79253979E-01 0.10028816E+03</pdfrwt>
<pdfrwt beam="2">  1       -4 0.25650793E-02 0.10028816E+03</pdfrwt>
<totfact> 0.15392408E+03</totfact>
</mgrwt>
</event>
<event>
 6    1  0.2995420E-002  0.9276263E+02  0.7546771E-02  0.1383273E+00
          2   -1    0    0  501    0  0.00000000000E+00  0.00000000000E+00  0.56280506821E+03  0.56280506821E+03  0.00000000000E+00 0. -1.
         -2   -1    0    0    0  501 -0.00000000000E+00 -0.00000000000E+00 -0.92280983812E+02  0.92280983812E+02  0.00000000000E+00 0.  1.
         23    2    1    2    0    0 -0.15470965806E+02  0.13468521798E+02  0.55778541597E+03  0.56544626259E+03  0.90466312731E+02 0.  0.
         13    1    3    3    0    0 -0.44721021229E+02  0.31784874000E+02  0.26401785266E+03  0.26965844040E+03  0.00000000000E+00 0.  1.
        -13    1    3    3    0    0  0.29250055423E+02 -0.18316352202E+02  0.29376756331E+03  0.29578782219E+03  0.00000000000E+00 0. -1.
         22    1    1    2    0    0  0.15470965806E+02 -0.13468521798E+02 -0.87261331573E+02  0.89639789437E+02  0.00000000000E+00 0.  1.
<mgrwt>
<rscale>  0 0.63611121E+02</rscale>
<asrwt>0</asrwt>
<pdfrwt beam="1">  1        2 0.86585393E-01 0.92762630E+02</pdfrwt>
<pdfrwt beam="2">  1       -2 0.14197075E-01 0.92762630E+02</pdfrwt>
<totfact> 0.19818090E+03</totfact>
</mgrwt>
</event>
<event>
 6    1  0.2995420E-002  0.9683895E+02  0.7546771E-02  0.1354205E+00
         -2   -1    0    0    0  501 -0.00000000000E+00  0.00000000000E+00  0.47312894327E+01  0.47312894327E+01  0.00000000000E+00 0.  1.
          2   -1    0    0  501    0  0.00000000000E+00 -0.00000000000E+00 -0.29938265581E+04  0.29938265581E+04  0.00000000000E+00 0. -1.
         23    2    1    2    0    0 -0.29201183554E+02  0.10054976239E+00 -0.29388366477E+04  0.29404317070E+04  0.92331264828E+02 0.  0.
         13    1    3    3    0    0 -0.14003847955E+02 -0.25744049427E+01 -0.28632809719E+04  0.28633163743E+04  0.00000000000E+00 0. -1.
        -13    1    3    3    0    0 -0.15197335599E+02  0.26749547051E+01 -0.75555675844E+02  0.77115332745E+02  0.00000000000E+00 0.  1.
         22    1    1    2    0    0  0.29201183554E+02 -0.10054976239E+00 -0.50258620975E+02  0.58126140535E+02  0.00000000000E+00 0.  1.
<mgrwt>
<rscale>  0 0.71760970E+02</rscale>
<asrwt>0</asrwt>
<pdfrwt beam="1">  1        2 0.46058863E+00 0.96838947E+02</pdfrwt>
<pdfrwt beam="2">  1       -2 0.72789080E-03 0.96838947E+02</pdfrwt>
<totfact> 0.70942182E+03</totfact>
</mgrwt>
</event>
<event>
 6    1  0.2995420E-002  0.9236516E+02  0.7546771E-02  0.1403089E+00
          2   -1    0    0  501    0  0.00000000000E+00  0.00000000000E+00  0.14092236584E+03  0.14092236584E+03  0.00000000000E+00 0. -1.
         -2   -1    0    0    0  501 -0.00000000000E+00 -0.00000000000E+00 -0.21096118996E+02  0.21096118996E+02  0.00000000000E+00 0.  1.
         23    2    1    2    0    0  0.14648571642E+02 -0.38017879091E+01  0.11135006877E+03  0.14467259664E+03  0.91116892848E+02 0.  0.
         13    1    3    3    0    0  0.30738513411E+02  0.19796453391E+02  0.11017914569E+03  0.11608703596E+03  0.00000000000E+00 0. -1.
        -13    1    3    3    0    0 -0.16089941769E+02 -0.23598241300E+02  0.11709230785E+01  0.28585560681E+02  0.00000000000E+00 0.  1.
         22    1    1    2    0    0 -0.14648571642E+02  0.38017879091E+01  0.84761780763E+01  0.17345888194E+02  0.00000000000E+00 0.  1.
<mgrwt>
<rscale>  0 0.58764993E+02</rscale>
<asrwt>0</asrwt>
<pdfrwt beam="1">  1        2 0.21680363E-01 0.92365158E+02</pdfrwt>
<pdfrwt beam="2">  1       -2 0.32455569E-02 0.92365158E+02</pdfrwt>
<totfact> 0.81631131E+04</totfact>
</mgrwt>
</event>
<event>
 6    1  0.2995420E-002  0.9847515E+02  0.7546771E-02  0.1335091E+00
         -1   -1    0    0    0  501 -0.00000000000E+00  0.00000000000E+00  0.48811761980E+02  0.48811761980E+02  0.00000000000E+00 0.  1.
          1   -1    0    0  501    0  0.00000000000E+00 -0.00000000000E+00 -0.96253899201E+02  0.96253899201E+02  0.00000000000E+00 0. -1.
         23    2    1    2    0    0 -0.31410372058E+02  0.22403950422E+02 -0.35486688838E+02  0.10467406288E+03  0.90602460716E+02 0.  0.
         13    1    3    3    0    0  0.22956483371E+02  0.32926254829E+02 -0.27663549048E+02  0.48748439276E+02  0.00000000000E+00 0. -1.
        -13    1    3    3    0    0 -0.54366855429E+02 -0.10522304408E+02 -0.78231397897E+01  0.55925623604E+02  0.00000000000E+00 0.  1.
         22    1    1    2    0    0  0.31410372058E+02 -0.22403950422E+02 -0.11955448382E+02  0.40391598301E+02  0.00000000000E+00 0.  1.
<mgrwt>
<rscale>  0 0.77909487E+02</rscale>
<asrwt>0</asrwt>
<pdfrwt beam="1">  1        1 0.14808292E-01 0.98475146E+02</pdfrwt>
<pdfrwt beam="2">  1       -1 0.75095019E-02 0.98475146E+02</pdfrwt>
<totfact> 0.31738071E+04</totfact>
</mgrwt>
</event>
<event>
 6    1  0.2995420E-002  0.9457217E+02  0.7546771E-02  0.1420451E+00
          2   -1    0    0  501    0  0.00000000000E+00  0.00000000000E+00  0.65845893866E+02  0.65845893866E+02  0.00000000000E+00 0. -1.
         -2   -1    0    0    0  501 -0.00000000000E+00 -0.00000000000E+00 -0.42469751505E+02  0.42469751505E+02  0.00000000000E+00 0.  1.
         23    2    1    2    0    0  0.89857720706E+01 -0.59187330476E+01  0.17933314860E+02  0.96257458452E+02  0.93958070569E+02 0.  0.
         13    1    3    3    0    0  0.14240437275E+02 -0.21866331109E+02 -0.33321054048E+02  0.42322796846E+02  0.00000000000E+00 0.  1.
        -13    1    3    3    0    0 -0.52546652041E+01  0.15947598062E+02  0.51254368909E+02  0.53934661606E+02  0.00000000000E+00 0. -1.
         22    1    1    2    0    0 -0.89857720706E+01  0.59187330476E+01  0.54428275007E+01  0.12058186920E+02  0.00000000000E+00 0. -1.
<mgrwt>
<rscale>  0 0.54925571E+02</rscale>
<asrwt>0</asrwt>
<pdfrwt beam="1">  1        2 0.10130138E-01 0.94572166E+02</pdfrwt>
<pdfrwt beam="2">  1       -2 0.65338079E-02 0.94572166E+02</pdfrwt>
<totfact> 0.70159461E+04</totfact>
</mgrwt>
</event>
<event>
 6    1  0.2995420E-002  0.9016283E+02  0.7546771E-02  0.1430870E+00
         -1   -1    0    0    0  501 -0.00000000000E+00  0.00000000000E+00  0.25332834676E+02  0.25332834676E+02  0.00000000000E+00 0.  1.
          1   -1    0    0  501    0  0.00000000000E+00 -0.00000000000E+00 -0.18167750668E+03  0.18167750668E+03  0.00000000000E+00 0. -1.
         23    2    1    2    0    0 -0.21833388632E+01 -0.10364749346E+02 -0.16836610681E+03  0.19098817258E+03  0.89538489755E+02 0.  0.
         11    1    3    3    0    0 -0.42236910381E+02 -0.20722733951E+02 -0.10803895130E+03  0.11783803842E+03  0.00000000000E+00 0. -1.
        -11    1    3    3    0    0  0.40053571517E+02  0.10357984605E+02 -0.60327155509E+02  0.73150134164E+02  0.00000000000E+00 0.  1.
         22    1    1    2    0    0  0.21833388632E+01  0.10364749346E+02  0.12021434800E+02  0.16022168775E+02  0.00000000000E+00 0.  1.
<mgrwt>
<rscale>  0 0.52785828E+02</rscale>
<asrwt>0</asrwt>
<pdfrwt beam="1">  1        1 0.27950386E-01 0.90162831E+02</pdfrwt>
<pdfrwt beam="2">  1       -1 0.38973592E-02 0.90162831E+02</pdfrwt>
<totfact> 0.37054320E+04</totfact>
</mgrwt>
</event>
<event>
 6    1  0.2995420E-002  0.9574091E+02  0.7546771E-02  0.1373689E+00
          2   -1    0    0  501    0  0.00000000000E+00  0.00000000000E+00  0.81323585409E+02  0.81323585409E+02  0.00000000000E+00 0. -1.
         -2   -1    0    0    0  501 -0.00000000000E+00 -0.00000000000E+00 -0.44550598273E+02  0.44550598273E+02  0.00000000000E+00 0.  1.
         23    2    1    2    0    0  0.21029071240E+02 -0.58275065786E+01  0.40101759876E+02  0.10380016280E+03  0.93220925661E+02 0.  0.
         13    1    3    3    0    0  0.52630898064E+01 -0.30356181046E+01 -0.30656609221E+02  0.31252884355E+02  0.00000000000E+00 0.  1.
        -13    1    3    3    0    0  0.15765981434E+02 -0.27918884740E+01  0.70758369097E+02  0.72547278440E+02  0.00000000000E+00 0. -1.
         22    1    1    2    0    0 -0.21029071240E+02  0.58275065786E+01 -0.33287727409E+01  0.22074020887E+02  0.00000000000E+00 0.  1.
<mgrwt>
<rscale>  0 0.66152272E+02</rscale>
<asrwt>0</asrwt>
<pdfrwt beam="1">  1        2 0.12511321E-01 0.95740914E+02</pdfrwt>
<pdfrwt beam="2">  1       -2 0.68539382E-02 0.95740914E+02</pdfrwt>
<totfact> 0.50768144E+04</totfact>
</mgrwt>
</event>
<event>
 6    1  0.2995420E-002  0.9736714E+02  0.7546771E-02  0.1359880E+00
         -2   -1    0    0    0  501 -0.00000000000E+00  0.00000000000E+00  0.18924257469E+02  0.18924257469E+02  0.00000000000E+00 0.  1.
          2   -1    0    0  501    0  0.00000000000E+00 -0.00000000000E+00 -0.73117592552E+03  0.73117592552E+03  0.00000000000E+00 0. -1.
         23    2    1    2    0    0 -0.12460035565E+02 -0.22938326970E+02 -0.71698879765E+03  0.72356982816E+03  0.93802670194E+02 0.  0.
         13    1    3    3    0    0  0.25787326102E+02 -0.21264676135E+02 -0.58974768656E+03  0.59069408871E+03  0.00000000000E+00 0. -1.
        -13    1    3    3    0    0 -0.38247361667E+02 -0.16736508355E+01 -0.12724111109E+03  0.13287573944E+03  0.00000000000E+00 0.  1.
         22    1    1    2    0    0  0.12460035565E+02  0.22938326970E+02  0.47371296012E+01  0.26530354829E+02  0.00000000000E+00 0.  1.
<mgrwt>
<rscale>  0 0.70062579E+02</rscale>
<asrwt>0</asrwt>
<pdfrwt beam="1">  1        2 0.11248859E+00 0.97367142E+02</pdfrwt>
<pdfrwt beam="2">  1       -2 0.29114245E-02 0.97367142E+02</pdfrwt>
<totfact> 0.16283899E+04</totfact>
</mgrwt>
</event>
<event>
 6    1  0.2995420E-002  0.1012907E+03  0.7546771E-02  0.1403285E+00
          1   -1    0    0  501    0  0.00000000000E+00  0.00000000000E+00  0.52064467050E+03  0.52064467050E+03  0.00000000000E+00 0. -1.
         -1   -1    0    0    0  501 -0.00000000000E+00 -0.00000000000E+00 -0.80870433342E+01  0.80870433342E+01  0.00000000000E+00 0.  1.
         23    2    1    2    0    0  0.88851688566E+01  0.72058441628E+01  0.50491283345E+03  0.51497259734E+03  0.10064261631E+03 0.  0.
         13    1    3    3    0    0  0.22429529634E+02 -0.16691140361E+02  0.37611915621E+02  0.46865063350E+02  0.00000000000E+00 0.  1.
        -13    1    3    3    0    0 -0.13544360778E+02  0.23896984524E+02  0.46730091782E+03  0.46810753399E+03  0.00000000000E+00 0. -1.
         22    1    1    2    0    0 -0.88851688566E+01 -0.72058441628E+01  0.76447937232E+01  0.13759116497E+02  0.00000000000E+00 0.  1.
<mgrwt>
<rscale>  0 0.58719504E+02</rscale>
<asrwt>0</asrwt>
<pdfrwt beam="1">  1        1 0.80099154E-01 0.10129070E+03</pdfrwt>
<pdfrwt beam="2">  1       -1 0.12441609E-02 0.10129070E+03</pdfrwt>
<totfact> 0.52445989E+04</totfact>
</mgrwt>
</event>
<event>
 6    1  0.2995420E-002  0.9139777E+02  0.7546771E-02  0.1405265E+00
          2   -1    0    0  501    0  0.00000000000E+00  0.00000000000E+00  0.34474093774E+02  0.34474093774E+02  0.00000000000E+00 0. -1.
         -2   -1    0    0    0  501 -0.00000000000E+00 -0.00000000000E+00 -0.85006960127E+02  0.85006960127E+02  0.00000000000E+00 0.  1.
         23    2    1    2    0    0 -0.44957235539E+01  0.14408445409E+02 -0.35132558482E+02  0.97917559011E+02  0.90142869201E+02 0.  0.
         13    1    3    3    0    0 -0.32266953883E+02  0.19755063523E+02  0.14724023128E+02  0.40598222926E+02  0.00000000000E+00 0. -1.
        -13    1    3    3    0    0  0.27771230329E+02 -0.53466181138E+01 -0.49856581611E+02  0.57319336084E+02  0.00000000000E+00 0.  1.
         22    1    1    2    0    0  0.44957235539E+01 -0.14408445409E+02 -0.15400307870E+02  0.21563494890E+02  0.00000000000E+00 0. -1.
<mgrwt>
<rscale>  0 0.58263884E+02</rscale>
<asrwt>0</asrwt>
<pdfrwt beam="1">  1        2 0.53037068E-02 0.91397766E+02</pdfrwt>
<pdfrwt beam="2">  1       -2 0.13077994E-01 0.91397766E+02</pdfrwt>
<totfact> 0.53546687E+04</totfact>
</mgrwt>
</event>
<event>
 6    1  0.2995420E-002  0.9056316E+02  0.7546771E-02  0.1423595E+00
          2   -1    0    0  501    0  0.00000000000E+00  0.00000000000E+00  0.18362272487E+02  0.18362272487E+02  0.00000000000E+00 0. -1.
         -2   -1    0    0    0  501 -0.00000000000E+00 -0.00000000000E+00 -0.14305072291E+03  0.14305072291E+03  0.00000000000E+00 0.  1.
         23    2    1    2    0    0 -0.38601684376E+00  0.11669824093E+02 -0.11389732130E+03  0.14551386740E+03  0.89807304839E+02 0.  0.
         11    1    3    3    0    0 -0.14126525048E+02  0.42287979431E+02 -0.26432377561E+02  0.51831481725E+02  0.00000000000E+00 0. -1.
        -11    1    3    3    0    0  0.13740508205E+02 -0.30618155338E+02 -0.87464943740E+02  0.93682385674E+02  0.00000000000E+00 0.  1.
         22    1    1    2    0    0  0.38601684376E+00 -0.11669824093E+02 -0.10791129120E+02  0.15899127997E+02  0.00000000000E+00 0.  1.
<mgrwt>
<rscale>  0 0.54267413E+02</rscale>
<asrwt>0</asrwt>
<pdfrwt beam="1">  1        2 0.28249650E-02 0.90563159E+02</pdfrwt>
<pdfrwt beam="2">  1       -2 0.22007803E-01 0.90563159E+02</pdfrwt>
<totfact> 0.51892261E+04</totfact>
</mgrwt>
</event>
<event>
 6    1  0.2995420E-002  0.8328423E+02  0.7546771E-02  0.1419635E+00
          2   -1    0    0  501    0  0.00000000000E+00  0.00000000000E+00  0.94231980205E+03  0.94231980205E+03  0.00000000000E+00 0. -1.
         -2   -1    0    0    0  501 -0.00000000000E+00 -0.00000000000E+00 -0.11056766821E+02  0.11056766821E+02  0.00000000000E+00 0.  1.
         23    2    1    2    0    0 -0.12875843851E+02 -0.94199672010E+01  0.93355182158E+03  0.93725944506E+03  0.81741914879E+02 0.  0.
         11    1    3    3    0    0 -0.23453073747E+02  0.20467759890E+02  0.15675192569E+03  0.15981283449E+03  0.00000000000E+00 0.  1.
        -11    1    3    3    0    0  0.10577229896E+02 -0.29887727091E+02  0.77679989589E+03  0.77744661057E+03  0.00000000000E+00 0. -1.
         22    1    1    2    0    0  0.12875843851E+02  0.94199672010E+01 -0.22887863485E+01  0.16117123810E+02  0.00000000000E+00 0.  1.
<mgrwt>
<rscale>  0 0.55098276E+02</rscale>
<asrwt>0</asrwt>
<pdfrwt beam="1">  1        2 0.14497221E+00 0.83284235E+02</pdfrwt>
<pdfrwt beam="2">  1       -2 0.17010418E-02 0.83284235E+02</pdfrwt>
<totfact> 0.25413283E+04</totfact>
</mgrwt>
</event>
<event>
 6    1  0.2995420E-002  0.9098167E+02  0.7546771E-02  0.1407870E+00
          2   -1    0    0  501    0  0.00000000000E+00  0.00000000000E+00  0.14673272799E+03  0.14673272799E+03  0.00000000000E+00 0. -1.
         -2   -1    0    0    0  501 -0.00000000000E+00 -0.00000000000E+00 -0.19693578425E+02  0.19693578425E+02  0.00000000000E+00 0.  1.
         23    2    1    2    0    0  0.67897487216E+01  0.13025679527E+02  0.97018987565E+02  0.13300506854E+03  0.89788057631E+02 0.  0.
         11    1    3    3    0    0  0.25170249969E+02  0.46379023989E+02  0.52819715521E+02  0.74662424937E+02  0.00000000000E+00 0.  1.
        -11    1    3    3    0    0 -0.18380501247E+02 -0.33353344463E+02  0.44199272044E+02  0.58342643599E+02  0.00000000000E+00 0. -1.
         22    1    1    2    0    0 -0.67897487216E+01 -0.13025679527E+02  0.30020161995E+02  0.33421237875E+02  0.00000000000E+00 0. -1.
<mgrwt>
<rscale>  0 0.57671874E+02</rscale>
<asrwt>0</asrwt>
<pdfrwt beam="1">  1        2 0.22574265E-01 0.90981670E+02</pdfrwt>
<pdfrwt beam="2">  1       -2 0.30297814E-02 0.90981670E+02</pdfrwt>
<totfact> 0.86107351E+04</totfact>
</mgrwt>
</event>
<event>
 6    1  0.2995420E-002  0.9540617E+02  0.7546771E-02  0.1383586E+00
         -2   -1    0    0    0  501 -0.00000000000E+00  0.00000000000E+00  0.35942737857E+03  0.35942737857E+03  0.00000000000E+00 0.  1.
          2   -1    0    0  501    0  0.00000000000E+00 -0.00000000000E+00 -0.92746455579E+01  0.92746455579E+01  0.00000000000E+00 0. -1.
         23    2    1    2    0    0  0.16462031624E+02  0.89938947177E+01  0.26926468688E+03  0.28566730467E+03  0.93543833216E+02 0.  0.
         13    1    3    3    0    0  0.38260055237E+02  0.10546024448E+02  0.25808848089E+03  0.26112202976E+03  0.00000000000E+00 0.  1.
        -13    1    3    3    0    0 -0.21798023613E+02 -0.15521297298E+01  0.11176205983E+02  0.24545274908E+02  0.00000000000E+00 0. -1.
         22    1    1    2    0    0 -0.16462031624E+02 -0.89938947177E+01  0.80888046133E+02  0.83034719452E+02  0.00000000000E+00 0. -1.
<mgrwt>
<rscale>  0 0.63530607E+02</rscale>
<asrwt>0</asrwt>
<pdfrwt beam="1">  1        2 0.14268688E-02 0.95406170E+02</pdfrwt>
<pdfrwt beam="2">  1       -2 0.55296509E-01 0.95406170E+02</pdfrwt>
<totfact> 0.24159625E+04</totfact>
</mgrwt>
</event>
<event>
 6    1  0.2995420E-002  0.8949048E+02  0.7546771E-02  0.1405047E+00
         -2   -1    0    0    0  501 -0.00000000000E+00  0.00000000000E+00  0.66616372939E+02  0.66616372939E+02  0.00000000000E+00 0.  1.
          2   -1    0    0  501    0  0.00000000000E+00 -0.00000000000E+00 -0.46325849424E+02  0.46325849424E+02  0.00000000000E+00 0. -1.
         23    2    1    2    0    0  0.11336468377E+01  0.16094743854E+02  0.33580676349E+01  0.89553464444E+02  0.88023976511E+02 0.  0.
         13    1    3    3    0    0  0.32575484021E+02  0.30756596763E+02  0.22281213995E+02  0.50035816180E+02  0.00000000000E+00 0.  1.
        -13    1    3    3    0    0 -0.31441837184E+02 -0.14661852909E+02 -0.18923146360E+02  0.39517648265E+02  0.00000000000E+00 0. -1.
         22    1    1    2    0    0 -0.11336468377E+01 -0.16094743854E+02  0.16932455879E+02  0.23388757919E+02  0.00000000000E+00 0.  1.
<mgrwt>
<rscale>  0 0.58313931E+02</rscale>
<asrwt>0</asrwt>
<pdfrwt beam="1">  1        2 0.71270537E-02 0.89490482E+02</pdfrwt>
<pdfrwt beam="2">  1       -2 0.10248673E-01 0.89490482E+02</pdfrwt>
<totfact> 0.53867962E+04</totfact>
</mgrwt>
</event>
<event>
 6    1  0.2995420E-002  0.9365296E+02  0.7546771E-02  0.1370451E+00
         -1   -1    0    0    0  501 -0.00000000000E+00  0.00000000000E+00  0.37620510189E+02  0.37620510189E+02  0.00000000000E+00 0.  1.
          1   -1    0    0  501    0  0.00000000000E+00 -0.00000000000E+00 -0.11896739976E+03  0.11896739976E+03  0.00000000000E+00 0. -1.
         23    2    1    2    0    0 -0.20963860421E+02  0.12859426946E+02 -0.90606434820E+02  0.13030887870E+03  0.90366086190E+02 0.  0.
         13    1    3    3    0    0  0.53727949253E+01 -0.22939423172E+02  0.57021279488E+01  0.24240427470E+02  0.00000000000E+00 0.  1.
        -13    1    3    3    0    0 -0.26336655346E+02  0.35798850118E+02 -0.96308562769E+02  0.10606845123E+03  0.00000000000E+00 0. -1.
         22    1    1    2    0    0  0.20963860421E+02 -0.12859426946E+02  0.92595452466E+01  0.26279031247E+02  0.00000000000E+00 0.  1.
<mgrwt>
<rscale>  0 0.67041999E+02</rscale>
<asrwt>0</asrwt>
<pdfrwt beam="1">  1        1 0.18302677E-01 0.93652965E+02</pdfrwt>
<pdfrwt beam="2">  1       -1 0.57877709E-02 0.93652965E+02</pdfrwt>
<totfact> 0.35422703E+04</totfact>
</mgrwt>
</event>
<event>
 6    1  0.2995420E-002  0.9781338E+02  0.7546771E-02  0.1342590E+00
         -2   -1    0    0    0  501 -0.00000000000E+00  0.00000000000E+00  0.64099062219E+01  0.64099062219E+01  0.00000000000E+00 0.  1.
          2   -1    0    0  501    0  0.00000000000E+00 -0.00000000000E+00 -0.75439494893E+03  0.75439494893E+03  0.00000000000E+00 0. -1.
         23    2    1    2    0    0 -0.74319397931E+01 -0.33756964792E+02 -0.63975483985E+03  0.64718908507E+03  0.91502406079E+02 0.  0.
         11    1    3    3    0    0  0.33787282699E+02 -0.43673308295E+02 -0.38227422220E+03  0.38624152973E+03  0.00000000000E+00 0.  1.
        -11    1    3    3    0    0 -0.41219222492E+02  0.99163435031E+01 -0.25748061765E+03  0.26094755534E+03  0.00000000000E+00 0. -1.
         22    1    1    2    0    0  0.74319397931E+01  0.33756964792E+02 -0.10823020285E+03  0.11361577008E+03  0.00000000000E+00 0.  1.
<mgrwt>
<rscale>  0 0.75415231E+02</rscale>
<asrwt>0</asrwt>
<pdfrwt beam="1">  1        2 0.11606071E+00 0.97813377E+02</pdfrwt>
<pdfrwt beam="2">  1       -2 0.98613982E-03 0.97813377E+02</pdfrwt>
<totfact> 0.74159957E+04</totfact>
</mgrwt>
</event>
<event>
 6    1  0.2995420E-002  0.9365392E+02  0.7546771E-02  0.1387157E+00
         -1   -1    0    0    0  501 -0.00000000000E+00  0.00000000000E+00  0.18088287909E+02  0.18088287909E+02  0.00000000000E+00 0.  1.
          1   -1    0    0  501    0  0.00000000000E+00 -0.00000000000E+00 -0.26591640486E+03  0.26591640486E+03  0.00000000000E+00 0. -1.
         23    2    1    2    0    0 -0.85223946335E+01  0.16665160621E+02 -0.24820165525E+03  0.26528309242E+03  0.91764364890E+02 0.  0.
         11    1    3    3    0    0  0.35136354950E+02  0.27551163495E+02 -0.16205253738E+03  0.16809121013E+03  0.00000000000E+00 0. -1.
        -11    1    3    3    0    0 -0.43658749583E+02 -0.10886002874E+02 -0.86149117867E+02  0.97191882290E+02  0.00000000000E+00 0.  1.
         22    1    1    2    0    0  0.85223946335E+01 -0.16665160621E+02  0.37353830298E+00  0.18721600350E+02  0.00000000000E+00 0.  1.
<mgrwt>
<rscale>  0 0.62619358E+02</rscale>
<asrwt>0</asrwt>
<pdfrwt beam="1">  1        1 0.40910213E-01 0.93653924E+02</pdfrwt>
<pdfrwt beam="2">  1       -1 0.27828138E-02 0.93653924E+02</pdfrwt>
<totfact> 0.37986644E+04</totfact>
</mgrwt>
</event>
<event>
 6    1  0.2995420E-002  0.9307028E+02  0.7546771E-02  0.1384195E+00
         -1   -1    0    0    0  501 -0.00000000000E+00  0.00000000000E+00  0.52651092003E+01  0.52651092003E+01  0.00000000000E+00 0.  1.
          1   -1    0    0  501    0  0.00000000000E+00 -0.00000000000E+00 -0.63671518044E+03  0.63671518044E+03  0.00000000000E+00 0. -1.
         23    2    1    2    0    0  0.14313259938E+02  0.13980690417E+02 -0.56391444774E+03  0.57154315770E+03  0.90894156183E+02 0.  0.
         11    1    3    3    0    0  0.39329249107E+02 -0.13160555409E+02 -0.44748696712E+03  0.44940469045E+03  0.00000000000E+00 0.  1.
        -11    1    3    3    0    0 -0.25015989169E+02  0.27141245825E+02 -0.11642748062E+03  0.12213846725E+03  0.00000000000E+00 0. -1.
         22    1    1    2    0    0 -0.14313259938E+02 -0.13980690417E+02 -0.67535623495E+02  0.70437131936E+02  0.00000000000E+00 0.  1.
<mgrwt>
<rscale>  0 0.63373896E+02</rscale>
<asrwt>0</asrwt>
<pdfrwt beam="1">  1        1 0.97956191E-01 0.93070279E+02</pdfrwt>
<pdfrwt beam="2">  1       -1 0.81001672E-03 0.93070279E+02</pdfrwt>
<totfact> 0.72804366E+04</totfact>
</mgrwt>
</event>
<event>
 6    1  0.2995420E-002  0.9865225E+02  0.7546771E-02  0.1357230E+00
          2   -1    0    0  501    0  0.00000000000E+00  0.00000000000E+00  0.28927100800E+02  0.28927100800E+02  0.00000000000E+00 0. -1.
         -2   -1    0    0    0  501 -0.00000000000E+00 -0.00000000000E+00 -0.13500638312E+03  0.13500638312E+03  0.00000000000E+00 0.  1.
         23    2    1    2    0    0 -0.15093319188E+01 -0.26199373654E+02 -0.81204645823E+02  0.12777504364E+03  0.95097749769E+02 0.  0.
         13    1    3    3    0    0  0.22075086885E+02 -0.21201710999E+02  0.10959105478E+02  0.32510367625E+02  0.00000000000E+00 0. -1.
        -13    1    3    3    0    0 -0.23584418803E+02 -0.49976626550E+01 -0.92163751301E+02  0.95264676015E+02  0.00000000000E+00 0.  1.
         22    1    1    2    0    0  0.15093319188E+01  0.26199373654E+02 -0.24874636496E+02  0.36158440280E+02  0.00000000000E+00 0. -1.
<mgrwt>
<rscale>  0 0.70848859E+02</rscale>
<asrwt>0</asrwt>
<pdfrwt beam="1">  1        2 0.44503233E-02 0.98652254E+02</pdfrwt>
<pdfrwt beam="2">  1       -2 0.20770212E-01 0.98652254E+02</pdfrwt>
<totfact> 0.31816719E+04</totfact>
</mgrwt>
</event>
<event>
 6    1  0.2995420E-002  0.9311870E+02  0.7546771E-02  0.1356629E+00
         -2   -1    0    0    0  501 -0.00000000000E+00  0.00000000000E+00  0.33541244092E+02  0.33541244092E+02  0.00000000000E+00 0.  1.
          2   -1    0    0  501    0  0.00000000000E+00 -0.00000000000E+00 -0.11805301211E+03  0.11805301211E+03  0.00000000000E+00 0. -1.
         23    2    1    2    0    0  0.19228460913E+02  0.24979169499E+02 -0.53595434429E+02  0.10744097433E+03  0.87620772391E+02 0.  0.
         11    1    3    3    0    0  0.21737900152E+02  0.35103831599E+02 -0.73878089709E+02  0.84633252538E+02  0.00000000000E+00 0. -1.
        -11    1    3    3    0    0 -0.25094392393E+01 -0.10124662100E+02  0.20282655280E+02  0.22807721788E+02  0.00000000000E+00 0.  1.
         22    1    1    2    0    0 -0.19228460913E+02 -0.24979169499E+02 -0.30916333588E+02  0.44153281876E+02  0.00000000000E+00 0. -1.
<mgrwt>
<rscale>  0 0.71028753E+02</rscale>
<asrwt>0</asrwt>
<pdfrwt beam="1">  1        2 0.18162002E-01 0.93118700E+02</pdfrwt>
<pdfrwt beam="2">  1       -2 0.51601913E-02 0.93118700E+02</pdfrwt>
<totfact> 0.50320449E+04</totfact>
</mgrwt>
</event>
<event>
 6    1  0.2995420E-002  0.9343572E+02  0.7546771E-02  0.1404981E+00
         -2   -1    0    0    0  501 -0.00000000000E+00  0.00000000000E+00  0.56652218706E+01  0.56652218706E+01  0.00000000000E+00 0. -1.
          2   -1    0    0  501    0  0.00000000000E+00 -0.00000000000E+00 -0.51487537701E+03  0.51487537701E+03  0.00000000000E+00 0.  1.
         23    2    1    2    0    0 -0.74566399033E+01 -0.12073469584E+02 -0.45573767084E+03  0.46521721572E+03  0.92351843725E+02 0.  0.
         13    1    3    3    0    0 -0.68073023617E+01  0.36786059800E+02 -0.11344249097E+03  0.11945188285E+03  0.00000000000E+00 0. -1.
        -13    1    3    3    0    0 -0.64933754164E+00 -0.48859529384E+02 -0.34229517987E+03  0.34576533287E+03  0.00000000000E+00 0.  1.
         22    1    1    2    0    0  0.74566399033E+01  0.12073469584E+02 -0.53472484301E+02  0.55323383156E+02  0.00000000000E+00 0. -1.
<mgrwt>
<rscale>  0 0.58328939E+02</rscale>
<asrwt>0</asrwt>
<pdfrwt beam="1">  1        2 0.79211630E-01 0.93435717E+02</pdfrwt>
<pdfrwt beam="2">  1       -2 0.87157222E-03 0.93435717E+02</pdfrwt>
<totfact> 0.13544124E+05</totfact>
</mgrwt>
</event>
<event>
 6    1  0.2995420E-002  0.1057355E+03  0.7546771E-02  0.1308165E+00
          2   -1    0    0  501    0  0.00000000000E+00  0.00000000000E+00  0.49699099677E+02  0.49699099677E+02  0.00000000000E+00 0. -1.
         -2   -1    0    0    0  501 -0.00000000000E+00 -0.00000000000E+00 -0.17469698384E+03  0.17469698384E+03  0.00000000000E+00 0.  1.
         23    2    1    2    0    0 -0.14731110935E+01 -0.50343823903E+02 -0.19536283889E+02  0.10752512992E+03  0.92969438610E+02 0.  0.
         11    1    3    3    0    0 -0.10739101252E+02 -0.48068719611E+01  0.34385075473E+02  0.36342368237E+02  0.00000000000E+00 0. -1.
        -11    1    3    3    0    0  0.92659901590E+01 -0.45536951942E+02 -0.53921359363E+02  0.71182761687E+02  0.00000000000E+00 0.  1.
         22    1    1    2    0    0  0.14731110935E+01  0.50343823903E+02 -0.10546160028E+03  0.11687095360E+03  0.00000000000E+00 0.  1.
<mgrwt>
<rscale>  0 0.87841249E+02</rscale>
<asrwt>0</asrwt>
<pdfrwt beam="1">  1        2 0.76460155E-02 0.10573546E+03</pdfrwt>
<pdfrwt beam="2">  1       -2 0.26876459E-01 0.10573546E+03</pdfrwt>
<totfact> 0.10301446E+04</totfact>
</mgrwt>
</event>
<event>
 6    1  0.2995420E-002  0.9193592E+02  0.7546771E-02  0.1405532E+00
          2   -1    0    0  501    0  0.00000000000E+00  0.00000000000E+00  0.64116224018E+03  0.64116224018E+03  0.00000000000E+00 0. -1.
         -2   -1    0    0    0  501 -0.00000000000E+00 -0.00000000000E+00 -0.18813122085E+02  0.18813122085E+02  0.00000000000E+00 0.  1.
         23    2    1    2    0    0 -0.86272540565E+01  0.11986009140E+02  0.63433059032E+03  0.64095827509E+03  0.90742044649E+02 0.  0.
         13    1    3    3    0    0 -0.61770445374E+01  0.23516105070E+02  0.62612261272E+03  0.62659451740E+03  0.00000000000E+00 0. -1.
        -13    1    3    3    0    0 -0.24502095190E+01 -0.11530095930E+02  0.82079776048E+01  0.14363757698E+02  0.00000000000E+00 0.  1.
         22    1    1    2    0    0  0.86272540565E+01 -0.11986009140E+02 -0.11981472227E+02  0.19017087169E+02  0.00000000000E+00 0.  1.
<mgrwt>
<rscale>  0 0.58202863E+02</rscale>
<asrwt>0</asrwt>
<pdfrwt beam="1">  1        2 0.98640328E-01 0.91935916E+02</pdfrwt>
<pdfrwt beam="2">  1       -2 0.28943270E-02 0.91935916E+02</pdfrwt>
<totfact> 0.19034817E+04</totfact>
</mgrwt>
</event>
<event>
 6    1  0.2995420E-002  0.8981621E+02  0.7546771E-02  0.1411038E+00
          2   -1    0    0  501    0  0.00000000000E+00  0.00000000000E+00  0.22288281382E+04  0.22288281382E+04  0.00000000000E+00 0. -1.
         -2   -1    0    0    0  501 -0.00000000000E+00 -0.00000000000E+00 -0.22105992924E+01  0.22105992924E+01  0.00000000000E+00 0.  1.
         23    2    1    2    0    0 -0.13191472295E+02  0.60944982501E+01  0.21869467400E+04  0.21887903039E+04  0.88632912979E+02 0.  0.
         13    1    3    3    0    0  0.99891004867E+01  0.17568149995E+02  0.19957178014E+04  0.19958201234E+04  0.00000000000E+00 0. -1.
        -13    1    3    3    0    0 -0.23180572782E+02 -0.11473651745E+02  0.19122893855E+03  0.19297018054E+03  0.00000000000E+00 0.  1.
         22    1    1    2    0    0  0.13191472295E+02 -0.60944982501E+01  0.39670798959E+02  0.42248433583E+02  0.00000000000E+00 0.  1.
<mgrwt>
<rscale>  0 0.56962880E+02</rscale>
<asrwt>0</asrwt>
<pdfrwt beam="1">  1        2 0.34289484E+00 0.89816207E+02</pdfrwt>
<pdfrwt beam="2">  1       -2 0.34009398E-03 0.89816207E+02</pdfrwt>
<totfact> 0.52792003E+04</totfact>
</mgrwt>
</event>
<event>
 6    1  0.2995420E-002  0.9536304E+02  0.7546771E-02  0.1410099E+00
          2   -1    0    0  501    0  0.00000000000E+00  0.00000000000E+00  0.12868783191E+03  0.12868783191E+03  0.00000000000E+00 0. -1.
         -2   -1    0    0    0  501 -0.00000000000E+00 -0.00000000000E+00 -0.22667104207E+02  0.22667104207E+02  0.00000000000E+00 0.  1.
         23    2    1    2    0    0  0.11684843784E+02 -0.39025346565E+01  0.97450810698E+02  0.13634797678E+03  0.94563972612E+02 0.  0.
         13    1    3    3    0    0  0.61613970898E+01  0.22567586048E+02 -0.10077512545E+02  0.25471847464E+02  0.00000000000E+00 0.  1.
        -13    1    3    3    0    0  0.55234466937E+01 -0.26470120704E+02  0.10752832324E+03  0.11087612932E+03  0.00000000000E+00 0. -1.
         22    1    1    2    0    0 -0.11684843784E+02  0.39025346565E+01  0.85699170051E+01  0.15006959334E+02  0.00000000000E+00 0.  1.
<mgrwt>
<rscale>  0 0.57171773E+02</rscale>
<asrwt>0</asrwt>
<pdfrwt beam="1">  1        2 0.19798128E-01 0.95363045E+02</pdfrwt>
<pdfrwt beam="2">  1       -2 0.34872469E-02 0.95363045E+02</pdfrwt>
<totfact> 0.81696958E+04</totfact>
</mgrwt>
</event>
<event>
 6    1  0.2995420E-002  0.9253803E+02  0.7546771E-02  0.1390260E+00
         -2   -1    0    0    0  501 -0.00000000000E+00  0.00000000000E+00  0.63935423739E+02  0.63935423739E+02  0.00000000000E+00 0.  1.
          2   -1    0    0  501    0  0.00000000000E+00 -0.00000000000E+00 -0.82090744428E+02  0.82090744428E+02  0.00000000000E+00 0. -1.
         23    2    1    2    0    0  0.38786356540E+01  0.18045463478E+02 -0.52966575908E+02  0.10662431470E+03  0.90678573848E+02 0.  0.
         13    1    3    3    0    0 -0.34826063099E+02  0.34390808896E+02 -0.38210970443E+02  0.62093966452E+02  0.00000000000E+00 0. -1.
        -13    1    3    3    0    0  0.38704698753E+02 -0.16345345419E+02 -0.14755605465E+02  0.44530348248E+02  0.00000000000E+00 0.  1.
         22    1    1    2    0    0 -0.38786356540E+01 -0.18045463478E+02  0.34811255220E+02  0.39401853467E+02  0.00000000000E+00 0.  1.
<mgrwt>
<rscale>  0 0.61842055E+02</rscale>
<asrwt>0</asrwt>
<pdfrwt beam="1">  1        2 0.12629345E-01 0.92538026E+02</pdfrwt>
<pdfrwt beam="2">  1       -2 0.98362190E-02 0.92538026E+02</pdfrwt>
<totfact> 0.28730487E+04</totfact>
</mgrwt>
</event>
<event>
 6    1  0.2995420E-002  0.8981715E+02  0.7546771E-02  0.1409428E+00
          2   -1    0    0  501    0  0.00000000000E+00  0.00000000000E+00  0.96870965918E+03  0.96870965918E+03  0.00000000000E+00 0. -1.
         -2   -1    0    0    0  501 -0.00000000000E+00 -0.00000000000E+00 -0.33799635774E+01  0.33799635774E+01  0.00000000000E+00 0.  1.
         23    2    1    2    0    0 -0.13515623436E+02 -0.62730180165E+01  0.91999661383E+03  0.92437053711E+03  0.88572555506E+02 0.  0.
         11    1    3    3    0    0 -0.31481864096E+02  0.23093951944E+02  0.21383916173E+03  0.21737439011E+03  0.00000000000E+00 0.  1.
        -11    1    3    3    0    0  0.17966240660E+02 -0.29366969960E+02  0.70615745210E+03  0.70699614700E+03  0.00000000000E+00 0. -1.
         22    1    1    2    0    0  0.13515623436E+02  0.62730180165E+01  0.45333081774E+02  0.47719085647E+02  0.00000000000E+00 0. -1.
<mgrwt>
<rscale>  0 0.57321713E+02</rscale>
<asrwt>0</asrwt>
<pdfrwt beam="1">  1        2 0.14903203E+00 0.89817150E+02</pdfrwt>
<pdfrwt beam="2">  1       -2 0.51999517E-03 0.89817150E+02</pdfrwt>
<totfact> 0.13192565E+05</totfact>
</mgrwt>
</event>
<event>
 6    1  0.2995420E-002  0.9411485E+02  0.7546771E-02  0.1379249E+00
         -1   -1    0    0    0  501 -0.00000000000E+00  0.00000000000E+00  0.79236166130E+02  0.79236166130E+02  0.00000000000E+00 0.  1.
          1   -1    0    0  501    0  0.00000000000E+00 -0.00000000000E+00 -0.44290863518E+02  0.44290863518E+02  0.00000000000E+00 0. -1.
         23    2    1    2    0    0 -0.20162265905E+02 -0.57661830282E+01  0.16401152088E+02  0.95533256201E+02  0.91748784283E+02 0.  0.
         13    1    3    3    0    0  0.31171723163E+02 -0.14403466736E+02  0.25391931040E+02  0.42706982344E+02  0.00000000000E+00 0.  1.
        -13    1    3    3    0    0 -0.51333989068E+02  0.86372837076E+01 -0.89907789524E+01  0.52826273857E+02  0.00000000000E+00 0. -1.
         22    1    1    2    0    0  0.20162265905E+02  0.57661830282E+01  0.18544150524E+02  0.27993773447E+02  0.00000000000E+00 0.  1.
<mgrwt>
<rscale>  0 0.64661579E+02</rscale>
<asrwt>0</asrwt>
<pdfrwt beam="1">  1        1 0.68139790E-02 0.94114851E+02</pdfrwt>
<pdfrwt beam="2">  1       -1 0.12190179E-01 0.94114851E+02</pdfrwt>
<totfact> 0.42022516E+04</totfact>
</mgrwt>
</event>
<event>
 6    1  0.2995420E-002  0.9831586E+02  0.7546771E-02  0.1348386E+00
         -2   -1    0    0    0  501 -0.00000000000E+00  0.00000000000E+00  0.14184678485E+02  0.14184678485E+02  0.00000000000E+00 0.  1.
          2   -1    0    0  501    0  0.00000000000E+00 -0.00000000000E+00 -0.33745879699E+03  0.33745879699E+03  0.00000000000E+00 0. -1.
         23    2    1    2    0    0 -0.28013849664E+02 -0.12829472034E+02 -0.29038101385E+03  0.30657322521E+03  0.93362937406E+02 0.  0.
         13    1    3    3    0    0  0.10202346285E+02 -0.12310912300E+02 -0.25203150605E+01  0.16186365231E+02  0.00000000000E+00 0.  1.
        -13    1    3    3    0    0 -0.38216195949E+02 -0.51855973474E+00 -0.28786069879E+03  0.29038685997E+03  0.00000000000E+00 0. -1.
         22    1    1    2    0    0  0.28013849664E+02  0.12829472034E+02 -0.32893104654E+02  0.45070250270E+02  0.00000000000E+00 0.  1.
<mgrwt>
<rscale>  0 0.73560929E+02</rscale>
<asrwt>0</asrwt>
<pdfrwt beam="1">  1        2 0.51916732E-01 0.98315864E+02</pdfrwt>
<pdfrwt beam="2">  1       -2 0.21822585E-02 0.98315864E+02</pdfrwt>
<totfact> 0.57677267E+04</totfact>
</mgrwt>
</event>
<event>
 6    1  0.2995420E-002  0.9420519E+02  0.7546771E-02  0.1387048E+00
          1   -1    0    0  501    0  0.00000000000E+00  0.00000000000E+00  0.19260153884E+04  0.19260153884E+04  0.00000000000E+00 0. -1.
         -1   -1    0    0    0  501 -0.00000000000E+00 -0.00000000000E+00 -0.31701248468E+01  0.31701248468E+01  0.00000000000E+00 0.  1.
         23    2    1    2    0    0 -0.46980584272E+01 -0.17814543736E+02  0.18822411042E+04  0.18845970901E+04  0.92386081085E+02 0.  0.
         11    1    3    3    0    0 -0.32770559084E+02 -0.29934294431E+02  0.48633221498E+03  0.48835335041E+03  0.00000000000E+00 0.  1.
        -11    1    3    3    0    0  0.28072500656E+02  0.12119750695E+02  0.13959088892E+04  0.13962437397E+04  0.00000000000E+00 0. -1.
         22    1    1    2    0    0  0.46980584272E+01  0.17814543736E+02  0.40604159375E+02  0.44588423162E+02  0.00000000000E+00 0.  1.
<mgrwt>
<rscale>  0 0.62646939E+02</rscale>
<asrwt>0</asrwt>
<pdfrwt beam="1">  1        1 0.29630913E+00 0.94205189E+02</pdfrwt>
<pdfrwt beam="2">  1       -1 0.48771305E-03 0.94205189E+02</pdfrwt>
<totfact> 0.18863307E+04</totfact>
</mgrwt>
</event>
<event>
 6    1  0.2995420E-002  0.9085041E+02  0.7546771E-02  0.1425509E+00
          4   -1    0    0  501    0  0.00000000000E+00  0.00000000000E+00  0.17357758309E+03  0.17357758309E+03  0.00000000000E+00 0. -1.
         -4   -1    0    0    0  501 -0.00000000000E+00 -0.00000000000E+00 -0.16679936379E+02  0.16679936379E+02  0.00000000000E+00 0.  1.
         23    2    1    2    0    0 -0.10738280294E+02  0.32954444321E+01  0.15376105337E+03  0.17859523687E+03  0.90153349809E+02 0.  0.
         13    1    3    3    0    0  0.21219477199E+02 -0.34685462404E+02  0.79110679598E+02  0.88948564582E+02  0.00000000000E+00 0. -1.
        -13    1    3    3    0    0 -0.31957757494E+02  0.37980906836E+02  0.74650373767E+02  0.89646672285E+02  0.00000000000E+00 0.  1.
         22    1    1    2    0    0  0.10738280294E+02 -0.32954444321E+01  0.31365933448E+01  0.11662282602E+02  0.00000000000E+00 0.  1.
<mgrwt>
<rscale>  0 0.53872230E+02</rscale>
<asrwt>0</asrwt>
<pdfrwt beam="1">  1        4 0.26704242E-01 0.90850411E+02</pdfrwt>
<pdfrwt beam="2">  1       -4 0.25661442E-02 0.90850411E+02</pdfrwt>
<totfact> 0.13225801E+04</totfact>
</mgrwt>
</event>
<event>
 6    1  0.2995420E-002  0.9274820E+02  0.7546771E-02  0.1404738E+00
         -2   -1    0    0    0  501 -0.00000000000E+00  0.00000000000E+00  0.66762887103E+01  0.66762887103E+01  0.00000000000E+00 0.  1.
          2   -1    0    0  501    0  0.00000000000E+00 -0.00000000000E+00 -0.48596672546E+03  0.48596672546E+03  0.00000000000E+00 0. -1.
         23    2    1    2    0    0  0.14058150255E+02  0.38051757810E+01 -0.45470378579E+03  0.46406654908E+03  0.91597588489E+02 0.  0.
         11    1    3    3    0    0 -0.24565077312E+02  0.13679479831E+01 -0.36153224362E+02  0.43730652142E+02  0.00000000000E+00 0.  1.
        -11    1    3    3    0    0  0.38623227567E+02  0.24372277979E+01 -0.41855056143E+03  0.42033589694E+03  0.00000000000E+00 0. -1.
         22    1    1    2    0    0 -0.14058150255E+02 -0.38051757810E+01 -0.24586650957E+02  0.28576465082E+02  0.00000000000E+00 0. -1.
<mgrwt>
<rscale>  0 0.58384762E+02</rscale>
<asrwt>0</asrwt>
<pdfrwt beam="1">  1        2 0.74764097E-01 0.92748203E+02</pdfrwt>
<pdfrwt beam="2">  1       -2 0.10271215E-02 0.92748203E+02</pdfrwt>
<totfact> 0.11415826E+05</totfact>
</mgrwt>
</event>
<event>
 6    1  0.2995420E-002  0.9717344E+02  0.7546771E-02  0.1374633E+00
          1   -1    0    0  501    0  0.00000000000E+00  0.00000000000E+00  0.61454986000E+01  0.61454986000E+01  0.00000000000E+00 0. -1.
         -1   -1    0    0    0  501 -0.00000000000E+00 -0.00000000000E+00 -0.57104118620E+03  0.57104118620E+03  0.00000000000E+00 0.  1.
         23    2    1    2    0    0 -0.18795422678E+02  0.83059280327E+01 -0.48879083755E+03  0.49835645865E+03  0.94975895094E+02 0.  0.
         13    1    3    3    0    0 -0.10685559521E+02  0.51819374359E+02 -0.26730862041E+03  0.27249463717E+03  0.00000000000E+00 0. -1.
        -13    1    3    3    0    0 -0.81098631562E+01 -0.43513446327E+02 -0.22148221714E+03  0.22586182147E+03  0.00000000000E+00 0.  1.
         22    1    1    2    0    0  0.18795422678E+02 -0.83059280327E+01 -0.76104850056E+02  0.78830226159E+02  0.00000000000E+00 0.  1.
<mgrwt>
<rscale>  0 0.65895795E+02</rscale>
<asrwt>0</asrwt>
<pdfrwt beam="1">  1        1 0.94546117E-03 0.97173438E+02</pdfrwt>
<pdfrwt beam="2">  1       -1 0.87852504E-01 0.97173438E+02</pdfrwt>
<totfact> 0.21021409E+04</totfact>
</mgrwt>
</event>
<event>
 6    1  0.2995420E-002  0.9913585E+02  0.7546771E-02  0.1333777E+00
         -2   -1    0    0    0  501 -0.00000000000E+00  0.00000000000E+00  0.33193454366E+02  0.33193454366E+02  0.00000000000E+00 0.  1.
          2   -1    0    0  501    0  0.00000000000E+00 -0.00000000000E+00 -0.14900596745E+03  0.14900596745E+03  0.00000000000E+00 0. -1.
         23    2    1    2    0    0  0.11748438694E+02  0.36867070712E+02 -0.65882011886E+02  0.11903090383E+03  0.91272722442E+02 0.  0.
         11    1    3    3    0    0  0.28722838393E+02  0.37989865740E+02 -0.82493333945E+02  0.95254299062E+02  0.00000000000E+00 0. -1.
        -11    1    3    3    0    0 -0.16974399699E+02 -0.11227950278E+01  0.16611322059E+02  0.23776604770E+02  0.00000000000E+00 0.  1.
         22    1    1    2    0    0 -0.11748438694E+02 -0.36867070712E+02 -0.49930501199E+02  0.63168517986E+02  0.00000000000E+00 0. -1.
<mgrwt>
<rscale>  0 0.78357987E+02</rscale>
<asrwt>0</asrwt>
<pdfrwt beam="1">  1        2 0.22923995E-01 0.99135849E+02</pdfrwt>
<pdfrwt beam="2">  1       -2 0.51066852E-02 0.99135849E+02</pdfrwt>
<totfact> 0.39730590E+04</totfact>
</mgrwt>
</event>
<event>
 6    1  0.2995420E-002  0.1140807E+03  0.7546771E-02  0.1355652E+00
          1   -1    0    0  501    0  0.00000000000E+00  0.00000000000E+00  0.72336038916E+02  0.72336038916E+02  0.00000000000E+00 0. -1.
         -1   -1    0    0    0  501 -0.00000000000E+00 -0.00000000000E+00 -0.11463086971E+03  0.11463086971E+03  0.00000000000E+00 0.  1.
         23    2    1    2    0    0 -0.52278269799E+01 -0.16626680944E+02  0.25560342597E+02  0.11690906645E+03  0.11274139440E+03 0.  0.
         13    1    3    3    0    0 -0.25533063241E+02 -0.39576034511E+02  0.56369710165E+02  0.73455728505E+02  0.00000000000E+00 0. -1.
        -13    1    3    3    0    0  0.20305236261E+02  0.22949353567E+02 -0.30809367568E+02  0.43453337947E+02  0.00000000000E+00 0.  1.
         22    1    1    2    0    0  0.52278269799E+01  0.16626680944E+02 -0.67855173390E+02  0.70057842173E+02  0.00000000000E+00 0.  1.
<mgrwt>
<rscale>  0 0.71322794E+02</rscale>
<asrwt>0</asrwt>
<pdfrwt beam="1">  1        1 0.11128621E-01 0.11408067E+03</pdfrwt>
<pdfrwt beam="2">  1       -1 0.17635518E-01 0.11408067E+03</pdfrwt>
<totfact> 0.12640813E+04</totfact>
</mgrwt>
</event>
<event>
 6    1  0.2995420E-002  0.9490338E+02  0.7546771E-02  0.1367806E+00
          2   -1    0    0  501    0  0.00000000000E+00  0.00000000000E+00  0.13259945351E+04  0.13259945351E+04  0.00000000000E+00 0. -1.
         -2   -1    0    0    0  501 -0.00000000000E+00 -0.00000000000E+00 -0.50801843244E+01  0.50801843244E+01  0.00000000000E+00 0.  1.
         23    2    1    2    0    0  0.68928330076E+01 -0.23712193968E+02  0.12783350569E+04  0.12818530214E+04  0.91634444913E+02 0.  0.
         13    1    3    3    0    0  0.39825121295E+02  0.13261588729E+02  0.42038310293E+03  0.42247350598E+03  0.00000000000E+00 0.  1.
        -13    1    3    3    0    0 -0.32932288288E+02 -0.36973782697E+02  0.85795195394E+03  0.85937951540E+03  0.00000000000E+00 0. -1.
         22    1    1    2    0    0 -0.68928330076E+01  0.23712193968E+02  0.42579293922E+02  0.49221698066E+02  0.00000000000E+00 0.  1.
<mgrwt>
<rscale>  0 0.67780978E+02</rscale>
<asrwt>0</asrwt>
<pdfrwt beam="1">  1        2 0.20399888E+00 0.94903376E+02</pdfrwt>
<pdfrwt beam="2">  1       -2 0.78156788E-03 0.94903376E+02</pdfrwt>
<totfact> 0.47405834E+04</totfact>
</mgrwt>
</event>
<event>
 6    1  0.2995420E-002  0.9491305E+02  0.7546771E-02  0.1354121E+00
          4   -1    0    0  501    0  0.00000000000E+00  0.00000000000E+00  0.84493400375E+02  0.84493400375E+02  0.00000000000E+00 0. -1.
         -4   -1    0    0    0  501 -0.00000000000E+00 -0.00000000000E+00 -0.50799318684E+02  0.50799318684E+02  0.00000000000E+00 0.  1.
         23    2    1    2    0    0  0.31053242947E+02 -0.61807982408E+00  0.40993054001E+02  0.10338721927E+03  0.89687238284E+02 0.  0.
         11    1    3    3    0    0  0.33719710193E+02 -0.40090639577E+02  0.35880837231E+02  0.63495769289E+02  0.00000000000E+00 0. -1.
        -11    1    3    3    0    0 -0.26664672455E+01  0.39472559752E+02  0.51122167704E+01  0.39891449977E+02  0.00000000000E+00 0.  1.
         22    1    1    2    0    0 -0.31053242947E+02  0.61807982408E+00 -0.72989723105E+01  0.31905499793E+02  0.00000000000E+00 0.  1.
<mgrwt>
<rscale>  0 0.71786484E+02</rscale>
<asrwt>0</asrwt>
<pdfrwt beam="1">  1        4 0.12998985E-01 0.94913048E+02</pdfrwt>
<pdfrwt beam="2">  1       -4 0.78152798E-02 0.94913048E+02</pdfrwt>
<totfact> 0.81972586E+03</totfact>
</mgrwt>
</event>
<event>
 6    1  0.2995420E-002  0.8981421E+02  0.7546771E-02  0.1402228E+00
          2   -1    0    0  501    0  0.00000000000E+00  0.00000000000E+00  0.46056740511E+03  0.46056740511E+03  0.00000000000E+00 0.  1.
         -2   -1    0    0    0  501 -0.00000000000E+00 -0.00000000000E+00 -0.82307010231E+01  0.82307010231E+01  0.00000000000E+00 0. -1.
         23    2    1    2    0    0  0.80499758688E+01  0.14615171267E+02  0.43700287602E+03  0.44613686994E+03  0.88250709508E+02 0.  0.
         11    1    3    3    0    0  0.18259314843E+02  0.28308544465E+02  0.60494954374E+02  0.69241719888E+02  0.00000000000E+00 0. -1.
        -11    1    3    3    0    0 -0.10209338974E+02 -0.13693373198E+02  0.37650792164E+03  0.37689515005E+03  0.00000000000E+00 0.  1.
         22    1    1    2    0    0 -0.80499758688E+01 -0.14615171267E+02  0.15333828074E+02  0.22661236199E+02  0.00000000000E+00 0. -1.
<mgrwt>
<rscale>  0 0.58964891E+02</rscale>
<asrwt>0</asrwt>
<pdfrwt beam="1">  1        2 0.70856504E-01 0.89814214E+02</pdfrwt>
<pdfrwt beam="2">  1       -2 0.12662621E-02 0.89814214E+02</pdfrwt>
<totfact> 0.89433209E+04</totfact>
</mgrwt>
</event>
<event>
 6    1  0.2995420E-002  0.8842489E+02  0.7546771E-02  0.1409863E+00
          3   -1    0    0  501    0  0.00000000000E+00  0.00000000000E+00  0.94822647523E+02  0.94822647523E+02  0.00000000000E+00 0. -1.
         -3   -1    0    0    0  501 -0.00000000000E+00 -0.00000000000E+00 -0.30470357606E+02  0.30470357606E+02  0.00000000000E+00 0.  1.
         23    2    1    2    0    0  0.10738868317E+02  0.11190458566E+02  0.65039095371E+02  0.10976814257E+03  0.87054072516E+02 0.  0.
         11    1    3    3    0    0  0.29067676556E+02  0.96595837144E+01 -0.10222717589E+02  0.32291505583E+02  0.00000000000E+00 0.  1.
        -11    1    3    3    0    0 -0.18328808240E+02  0.15308748519E+01  0.75261812960E+02  0.77476636990E+02  0.00000000000E+00 0. -1.
         22    1    1    2    0    0 -0.10738868317E+02 -0.11190458566E+02 -0.68680545313E+00  0.15524862556E+02  0.00000000000E+00 0.  1.
<mgrwt>
<rscale>  0 0.57224432E+02</rscale>
<asrwt>0</asrwt>
<pdfrwt beam="1">  1        3 0.14588100E-01 0.88424890E+02</pdfrwt>
<pdfrwt beam="2">  1       -3 0.46877473E-02 0.88424890E+02</pdfrwt>
<totfact> 0.19923228E+04</totfact>
</mgrwt>
</event>
<event>
 6    1  0.2995420E-002  0.9564253E+02  0.7546771E-02  0.1362125E+00
         -4   -1    0    0    0  501 -0.00000000000E+00  0.00000000000E+00  0.28160849859E+02  0.28160849859E+02  0.00000000000E+00 0.  1.
          4   -1    0    0  501    0  0.00000000000E+00 -0.00000000000E+00 -0.16730043341E+03  0.16730043341E+03  0.00000000000E+00 0. -1.
         23    2    1    2    0    0 -0.25082686473E+02  0.86239244660E+01 -0.13925618808E+03  0.16893720307E+03  0.91891128130E+02 0.  0.
         13    1    3    3    0    0 -0.16140940022E+02  0.49494654068E+02 -0.92904225294E+02  0.10649622436E+03  0.00000000000E+00 0. -1.
        -13    1    3    3    0    0 -0.89417464508E+01 -0.40870729602E+02 -0.46351962782E+02  0.62440978704E+02  0.00000000000E+00 0.  1.
         22    1    1    2    0    0  0.25082686473E+02 -0.86239244660E+01  0.11660452473E+00  0.26524080201E+02  0.00000000000E+00 0.  1.
<mgrwt>
<rscale>  0 0.69406047E+02</rscale>
<asrwt>0</asrwt>
<pdfrwt beam="1">  1        4 0.25738528E-01 0.95642525E+02</pdfrwt>
<pdfrwt beam="2">  1       -4 0.43324385E-02 0.95642525E+02</pdfrwt>
<totfact> 0.63411114E+03</totfact>
</mgrwt>
</event>
<event>
 6    1  0.2995420E-002  0.9135714E+02  0.7546771E-02  0.1396433E+00
          2   -1    0    0  501    0  0.00000000000E+00  0.00000000000E+00  0.59818749347E+03  0.59818749347E+03  0.00000000000E+00 0. -1.
         -2   -1    0    0    0  501 -0.00000000000E+00 -0.00000000000E+00 -0.90001836111E+01  0.90001836111E+01  0.00000000000E+00 0.  1.
         23    2    1    2    0    0  0.15632659708E+02 -0.75939317810E+01  0.58070751931E+03  0.58784976879E+03  0.89688794359E+02 0.  0.
         13    1    3    3    0    0 -0.20418152689E+02 -0.20948380048E+01  0.48493454357E+03  0.48536872669E+03  0.00000000000E+00 0. -1.
        -13    1    3    3    0    0  0.36050812397E+02 -0.54990937762E+01  0.95772975737E+02  0.10248104209E+03  0.00000000000E+00 0.  1.
         22    1    1    2    0    0 -0.15632659708E+02  0.75939317810E+01  0.84797905534E+01  0.19337908296E+02  0.00000000000E+00 0.  1.
<mgrwt>
<rscale>  0 0.60334588E+02</rscale>
<asrwt>0</asrwt>
<pdfrwt beam="1">  1        2 0.92028814E-01 0.91357144E+02</pdfrwt>
<pdfrwt beam="2">  1       -2 0.13846441E-02 0.91357144E+02</pdfrwt>
<totfact> 0.59357683E+04</totfact>
</mgrwt>
</event>
<event>
 6    1  0.2995420E-002  0.9354542E+02  0.7546771E-02  0.1369756E+00
         -2   -1    0    0    0  501 -0.00000000000E+00  0.00000000000E+00  0.74200354809E+01  0.74200354809E+01  0.00000000000E+00 0.  1.
          2   -1    0    0  501    0  0.00000000000E+00 -0.00000000000E+00 -0.95711890068E+03  0.95711890068E+03  0.00000000000E+00 0. -1.
         23    2    1    2    0    0  0.10738753018E+02 -0.22536502409E+02 -0.92395580793E+03  0.92867921287E+03  0.90152818275E+02 0.  0.
         13    1    3    3    0    0  0.50557954315E+01 -0.13620089539E+02 -0.20308479218E+02  0.24970026725E+02  0.00000000000E+00 0.  1.
        -13    1    3    3    0    0  0.56829575865E+01 -0.89164128699E+01 -0.90364732872E+03  0.90370918615E+03  0.00000000000E+00 0. -1.
         22    1    1    2    0    0 -0.10738753018E+02  0.22536502409E+02 -0.25743057265E+02  0.35859723292E+02  0.00000000000E+00 0.  1.
<mgrwt>
<rscale>  0 0.67235186E+02</rscale>
<asrwt>0</asrwt>
<pdfrwt beam="1">  1        2 0.14724912E+00 0.93545419E+02</pdfrwt>
<pdfrwt beam="2">  1       -2 0.11415435E-02 0.93545419E+02</pdfrwt>
<totfact> 0.44448513E+04</totfact>
</mgrwt>
</event>
<event>
 6    1  0.2995420E-002  0.9659538E+02  0.7546771E-02  0.1346442E+00
          2   -1    0    0  501    0  0.00000000000E+00  0.00000000000E+00  0.18977952403E+04  0.18977952403E+04  0.00000000000E+00 0.  1.
         -2   -1    0    0    0  501 -0.00000000000E+00 -0.00000000000E+00 -0.25310284336E+02  0.25310284336E+02  0.00000000000E+00 0. -1.
         23    2    1    2    0    0 -0.21983493830E+02  0.25394767879E+02  0.18848425885E+04  0.18873161503E+04  0.90567653230E+02 0.  0.
         11    1    3    3    0    0  0.18067073170E+02 -0.24815288173E+02  0.45695312492E+03  0.45798294296E+03  0.00000000000E+00 0. -1.
        -11    1    3    3    0    0 -0.40050567000E+02  0.50210056052E+02  0.14278894635E+04  0.14293332074E+04  0.00000000000E+00 0.  1.
         22    1    1    2    0    0  0.21983493830E+02 -0.25394767879E+02 -0.12357632447E+02  0.35789374349E+02  0.00000000000E+00 0. -1.
<mgrwt>
<rscale>  0 0.74176103E+02</rscale>
<asrwt>0</asrwt>
<pdfrwt beam="1">  1        2 0.29196839E+00 0.96595383E+02</pdfrwt>
<pdfrwt beam="2">  1       -2 0.38938914E-02 0.96595383E+02</pdfrwt>
<totfact> 0.24177051E+03</totfact>
</mgrwt>
</event>
<event>
 6    1  0.2995420E-002  0.9197300E+02  0.7546771E-02  0.1411114E+00
         -4   -1    0    0    0  501 -0.00000000000E+00  0.00000000000E+00  0.34468084115E+03  0.34468084115E+03  0.00000000000E+00 0. -1.
          4   -1    0    0  501    0  0.00000000000E+00 -0.00000000000E+00 -0.80970071276E+01  0.80970071276E+01  0.00000000000E+00 0.  1.
         23    2    1    2    0    0 -0.91348321718E+01  0.99628543797E+01  0.28640238674E+03  0.30080784465E+03  0.90974329585E+02 0.  0.
         13    1    3    3    0    0 -0.32027935925E+02 -0.30541070041E+02  0.11558689151E+03  0.12376944343E+03  0.00000000000E+00 0.  1.
        -13    1    3    3    0    0  0.22893103753E+02  0.40503924421E+02  0.17081549523E+03  0.17703840121E+03  0.00000000000E+00 0. -1.
         22    1    1    2    0    0  0.91348321718E+01 -0.99628543797E+01  0.50181447278E+02  0.51970003628E+02  0.00000000000E+00 0.  1.
<mgrwt>
<rscale>  0 0.56946056E+02</rscale>
<asrwt>0</asrwt>
<pdfrwt beam="1">  1        4 0.12456937E-02 0.91972998E+02</pdfrwt>
<pdfrwt beam="2">  1       -4 0.53027810E-01 0.91972998E+02</pdfrwt>
<totfact> 0.10562828E+04</totfact>
</mgrwt>
</event>
<event>
 6    1  0.2995420E-002  0.9225795E+02  0.7546771E-02  0.1427730E+00
          2   -1    0    0  501    0  0.00000000000E+00  0.00000000000E+00  0.72441063404E+02  0.72441063404E+02  0.00000000000E+00 0.  1.
         -2   -1    0    0    0  501 -0.00000000000E+00 -0.00000000000E+00 -0.46538471145E+02  0.46538471145E+02  0.00000000000E+00 0. -1.
         23    2    1    2    0    0  0.22165335070E+00  0.10367055142E+02  0.40760448472E+02  0.10086101215E+03  0.91673358456E+02 0.  0.
         13    1    3    3    0    0  0.27443282255E+02 -0.43423429898E+01 -0.18934921494E+02  0.33623220184E+02  0.00000000000E+00 0. -1.
        -13    1    3    3    0    0 -0.27221628905E+02  0.14709398131E+02  0.59695369966E+02  0.67237791970E+02  0.00000000000E+00 0.  1.
         22    1    1    2    0    0 -0.22165335070E+00 -0.10367055142E+02 -0.14857856214E+02  0.18118522395E+02  0.00000000000E+00 0. -1.
<mgrwt>
<rscale>  0 0.53418479E+02</rscale>
<asrwt>0</asrwt>
<pdfrwt beam="1">  1        2 0.11144779E-01 0.92257951E+02</pdfrwt>
<pdfrwt beam="2">  1       -2 0.71597648E-02 0.92257951E+02</pdfrwt>
<totfact> 0.54259148E+04</totfact>
</mgrwt>
</event>
<event>
 6    1  0.2995420E-002  0.9171647E+02  0.7546771E-02  0.1429315E+00
          2   -1    0    0  501    0  0.00000000000E+00  0.00000000000E+00  0.28069310622E+02  0.28069310622E+02  0.00000000000E+00 0. -1.
         -2   -1    0    0    0  501 -0.00000000000E+00 -0.00000000000E+00 -0.10445533230E+03  0.10445533230E+03  0.00000000000E+00 0.  1.
         23    2    1    2    0    0  0.10308110735E+01  0.10251218234E+02 -0.50582263407E+02  0.10474004309E+03  0.91135949047E+02 0.  0.
         11    1    3    3    0    0  0.66604099398E+01 -0.80757631643E+01  0.24820728412E+02  0.26937846427E+02  0.00000000000E+00 0. -1.
        -11    1    3    3    0    0 -0.56295988664E+01  0.18326981398E+02 -0.75402991818E+02  0.77802196664E+02  0.00000000000E+00 0.  1.
         22    1    1    2    0    0 -0.10308110735E+01 -0.10251218234E+02 -0.25803758269E+02  0.27784599827E+02  0.00000000000E+00 0.  1.
<mgrwt>
<rscale>  0 0.53097678E+02</rscale>
<asrwt>0</asrwt>
<pdfrwt beam="1">  1        2 0.43183555E-02 0.91716472E+02</pdfrwt>
<pdfrwt beam="2">  1       -2 0.16070051E-01 0.91716472E+02</pdfrwt>
<totfact> 0.50137167E+04</totfact>
</mgrwt>
</event>
<event>
 6    1  0.2995420E-002  0.9549428E+02  0.7546771E-02  0.1378462E+00
         -1   -1    0    0    0  501 -0.00000000000E+00  0.00000000000E+00  0.11143454445E+02  0.11143454445E+02  0.00000000000E+00 0.  1.
          1   -1    0    0  501    0  0.00000000000E+00 -0.00000000000E+00 -0.33136058701E+03  0.33136058701E+03  0.00000000000E+00 0. -1.
         23    2    1    2    0    0  0.15821347367E+02 -0.12774610702E+02 -0.29521933727E+03  0.31027989708E+03  0.93304082023E+02 0.  0.
         13    1    3    3    0    0  0.48263475447E+02  0.71856193349E+01 -0.22663003257E+03  0.23182357052E+03  0.00000000000E+00 0. -1.
        -13    1    3    3    0    0 -0.32442128079E+02 -0.19960230037E+02 -0.68589304702E+02  0.78456326558E+02  0.00000000000E+00 0.  1.
         22    1    1    2    0    0 -0.15821347367E+02  0.12774610702E+02 -0.24997795291E+02  0.32224144373E+02  0.00000000000E+00 0.  1.
<mgrwt>
<rscale>  0 0.64869897E+02</rscale>
<asrwt>0</asrwt>
<pdfrwt beam="1">  1        1 0.50978549E-01 0.95494280E+02</pdfrwt>
<pdfrwt beam="2">  1       -1 0.17143777E-02 0.95494280E+02</pdfrwt>
<totfact> 0.58204058E+04</totfact>
</mgrwt>
</event>
<event>
 6    1  0.2995420E-002  0.9126113E+02  0.7546771E-02  0.1426787E+00
         -2   -1    0    0    0  501 -0.00000000000E+00  0.00000000000E+00  0.27678617960E+02  0.27678617960E+02  0.00000000000E+00 0.  1.
          2   -1    0    0  501    0  0.00000000000E+00 -0.00000000000E+00 -0.10058414593E+03  0.10058414593E+03  0.00000000000E+00 0. -1.
         23    2    1    2    0    0  0.49742626645E+01  0.96625164432E+01 -0.73787610667E+02  0.11735929733E+03  0.90611730303E+02 0.  0.
         11    1    3    3    0    0 -0.17079273123E+01  0.21698643184E+02  0.15688373318E+02  0.26830452644E+02  0.00000000000E+00 0.  1.
        -11    1    3    3    0    0  0.66821899769E+01 -0.12036126741E+02 -0.89475983985E+02  0.90528844685E+02  0.00000000000E+00 0. -1.
         22    1    1    2    0    0 -0.49742626645E+01 -0.96625164432E+01  0.88208270132E+00  0.10903466557E+02  0.00000000000E+00 0. -1.
<mgrwt>
<rscale>  0 0.53610401E+02</rscale>
<asrwt>0</asrwt>
<pdfrwt beam="1">  1        2 0.15474484E-01 0.91261126E+02</pdfrwt>
<pdfrwt beam="2">  1       -2 0.42582489E-02 0.91261126E+02</pdfrwt>
<totfact> 0.80081305E+04</totfact>
</mgrwt>
</event>
<event>
 6    1  0.2995420E-002  0.1130643E+03  0.7546771E-02  0.1282630E+00
         -2   -1    0    0    0  501 -0.00000000000E+00  0.00000000000E+00  0.94181039956E+02  0.94181039956E+02  0.00000000000E+00 0. -1.
          2   -1    0    0  501    0  0.00000000000E+00 -0.00000000000E+00 -0.13497814619E+03  0.13497814619E+03  0.00000000000E+00 0.  1.
         23    2    1    2    0    0 -0.18583712830E+02 -0.63525526418E+02 -0.91768385150E+02  0.14561926657E+03  0.91666173658E+02 0.  0.
         11    1    3    3    0    0 -0.47356885516E+02 -0.11711634421E+02 -0.63167472571E+02  0.79812070375E+02  0.00000000000E+00 0. -1.
        -11    1    3    3    0    0  0.28773172686E+02 -0.51813891997E+02 -0.28600912579E+02  0.65807196192E+02  0.00000000000E+00 0.  1.
         22    1    1    2    0    0  0.18583712830E+02  0.63525526418E+02  0.50971278915E+02  0.83539919580E+02  0.00000000000E+00 0. -1.
<mgrwt>
<rscale>  0 0.98898308E+02</rscale>
<asrwt>0</asrwt>
<pdfrwt beam="1">  1        2 0.20765869E-01 0.11306429E+03</pdfrwt>
<pdfrwt beam="2">  1       -2 0.14489391E-01 0.11306429E+03</pdfrwt>
<totfact> 0.89561746E+03</totfact>
</mgrwt>
</event>
<event>
 6    1  0.2995420E-002  0.1105930E+03  0.7546771E-02  0.1289105E+00
         -1   -1    0    0    0  501 -0.00000000000E+00  0.00000000000E+00  0.13858837764E+03  0.13858837764E+03  0.00000000000E+00 0.  1.
          1   -1    0    0  501    0  0.00000000000E+00 -0.00000000000E+00 -0.79092589022E+02  0.79092589022E+02  0.00000000000E+00 0. -1.
         23    2    1    2    0    0 -0.53557295093E+02  0.32403631700E+02 -0.24156946073E+02  0.11320054158E+03  0.91172503335E+02 0.  0.
         13    1    3    3    0    0 -0.33938267682E+02  0.90915919266E+01  0.33144947800E+02  0.48301662722E+02  0.00000000000E+00 0.  1.
        -13    1    3    3    0    0 -0.19619027411E+02  0.23312039773E+02 -0.57301893874E+02  0.64898878853E+02  0.00000000000E+00 0. -1.
         22    1    1    2    0    0  0.53557295093E+02 -0.32403631700E+02  0.83652734694E+02  0.10448042509E+03  0.00000000000E+00 0. -1.
<mgrwt>
<rscale>  0 0.95925472E+02</rscale>
<asrwt>0</asrwt>
<pdfrwt beam="1">  1        1 0.12168091E-01 0.11059297E+03</pdfrwt>
<pdfrwt beam="2">  1       -1 0.21321289E-01 0.11059297E+03</pdfrwt>
<totfact> 0.82905607E+03</totfact>
</mgrwt>
</event>
<event>
 6    1  0.2995420E-002  0.9664619E+02  0.7546771E-02  0.1344343E+00
         -3   -1    0    0    0  501 -0.00000000000E+00  0.00000000000E+00  0.15526280715E+03  0.15526280715E+03  0.00000000000E+00 0.  1.
          3   -1    0    0  501    0  0.00000000000E+00 -0.00000000000E+00 -0.28989631023E+02  0.28989631023E+02  0.00000000000E+00 0. -1.
         23    2    1    2    0    0 -0.21165394998E+02 -0.27581730934E+02  0.75140035153E+02  0.12241940548E+03  0.90176272531E+02 0.  0.
         13    1    3    3    0    0  0.25060767676E+02 -0.27314399074E+02  0.35997768969E+01  0.37243480866E+02  0.00000000000E+00 0. -1.
        -13    1    3    3    0    0 -0.46226162673E+02 -0.26733185938E+00  0.71540258256E+02  0.85175924610E+02  0.00000000000E+00 0.  1.
         22    1    1    2    0    0  0.21165394998E+02  0.27581730934E+02  0.51133140978E+02  0.61833032701E+02  0.00000000000E+00 0.  1.
<mgrwt>
<rscale>  0 0.74847884E+02</rscale>
<asrwt>0</asrwt>
<pdfrwt beam="1">  1        3 0.44599433E-02 0.96646190E+02</pdfrwt>
<pdfrwt beam="2">  1       -3 0.23886585E-01 0.96646190E+02</pdfrwt>
<totfact> 0.93642978E+03</totfact>
</mgrwt>
</event>
<event>
 6    1  0.2995420E-002  0.8413098E+02  0.7546771E-02  0.1441129E+00
          2   -1    0    0  501    0  0.00000000000E+00  0.00000000000E+00  0.70977784256E+03  0.70977784256E+03  0.00000000000E+00 0.  1.
         -2   -1    0    0    0  501 -0.00000000000E+00 -0.00000000000E+00 -0.33889719288E+01  0.33889719288E+01  0.00000000000E+00 0. -1.
         23    2    1    2    0    0 -0.11041835337E+02 -0.17167496220E+01  0.66482240199E+03  0.67012450191E+03  0.83385565388E+02 0.  0.
         13    1    3    3    0    0  0.28473739339E+02 -0.18037536734E+02  0.16094744498E+03  0.16443900574E+03  0.00000000000E+00 0. -1.
        -13    1    3    3    0    0 -0.39515574676E+02  0.16320787112E+02  0.50387495701E+03  0.50568549617E+03  0.00000000000E+00 0.  1.
         22    1    1    2    0    0  0.11041835337E+02  0.17167496220E+01  0.41566468642E+02  0.43042312580E+02  0.00000000000E+00 0. -1.
<mgrwt>
<rscale>  0 0.50789501E+02</rscale>
<asrwt>0</asrwt>
<pdfrwt beam="1">  1        2 0.10919647E+00 0.84130980E+02</pdfrwt>
<pdfrwt beam="2">  1       -2 0.52138086E-03 0.84130980E+02</pdfrwt>
<totfact> 0.19140097E+05</totfact>
</mgrwt>
</event>
<event>
 6    1  0.2995420E-002  0.1137595E+03  0.7546771E-02  0.1281878E+00
          2   -1    0    0  501    0  0.00000000000E+00  0.00000000000E+00  0.15244140465E+03  0.15244140465E+03  0.00000000000E+00 0. -1.
         -2   -1    0    0    0  501 -0.00000000000E+00 -0.00000000000E+00 -0.60700108169E+02  0.60700108169E+02  0.00000000000E+00 0.  1.
         23    2    1    2    0    0 -0.32069884717E+02  0.57587611171E+02  0.93424045584E+02  0.14720486056E+03  0.92716817316E+02 0.  0.
         11    1    3    3    0    0 -0.19976585385E+02  0.55526347041E+02  0.11103525742E+03  0.12574206762E+03  0.00000000000E+00 0. -1.
        -11    1    3    3    0    0 -0.12093299333E+02  0.20612641308E+01 -0.17611211834E+02  0.21462792941E+02  0.00000000000E+00 0.  1.
         22    1    1    2    0    0  0.32069884717E+02 -0.57587611171E+02 -0.16827491047E+01  0.65936652256E+02  0.00000000000E+00 0.  1.
<mgrwt>
<rscale>  0 0.99251492E+02</rscale>
<asrwt>0</asrwt>
<pdfrwt beam="1">  1        2 0.23452524E-01 0.11375948E+03</pdfrwt>
<pdfrwt beam="2">  1       -2 0.93384782E-02 0.11375948E+03</pdfrwt>
<totfact> 0.15710462E+04</totfact>
</mgrwt>
</event>
<event>
 6    1  0.2995420E-002  0.9291664E+02  0.7546771E-02  0.1390883E+00
         -2   -1    0    0    0  501 -0.00000000000E+00  0.00000000000E+00  0.36531927564E+01  0.36531927564E+01  0.00000000000E+00 0.  1.
          2   -1    0    0  501    0  0.00000000000E+00 -0.00000000000E+00 -0.90676215926E+03  0.90676215926E+03  0.00000000000E+00 0. -1.
         23    2    1    2    0    0  0.13384027783E+02  0.12113062809E+02 -0.82658906663E+03  0.83179503933E+03  0.91146277436E+02 0.  0.
         13    1    3    3    0    0 -0.24991777688E+02 -0.56446889089E+01 -0.63839524867E+03  0.63890918368E+03  0.00000000000E+00 0. -1.
        -13    1    3    3    0    0  0.38375805472E+02  0.17757751717E+02 -0.18819381796E+03  0.19288585565E+03  0.00000000000E+00 0.  1.
         22    1    1    2    0    0 -0.13384027783E+02 -0.12113062809E+02 -0.76519899870E+02  0.78620312683E+02  0.00000000000E+00 0.  1.
<mgrwt>
<rscale>  0 0.61687726E+02</rscale>
<asrwt>0</asrwt>
<pdfrwt beam="1">  1        2 0.13950197E+00 0.92916642E+02</pdfrwt>
<pdfrwt beam="2">  1       -2 0.56202925E-03 0.92916642E+02</pdfrwt>
<totfact> 0.12958022E+05</totfact>
</mgrwt>
</event>
<event>
 6    1  0.2995420E-002  0.9802328E+02  0.7546771E-02  0.1344030E+00
         -2   -1    0    0    0  501 -0.00000000000E+00  0.00000000000E+00  0.32304924657E+01  0.32304924657E+01  0.00000000000E+00 0.  1.
          2   -1    0    0  501    0  0.00000000000E+00 -0.00000000000E+00 -0.17224906144E+04  0.17224906144E+04  0.00000000000E+00 0. -1.
         23    2    1    2    0    0  0.33273981971E+02 -0.39013108893E+01 -0.15546043720E+04  0.15576916627E+04  0.92120489912E+02 0.  0.
         11    1    3    3    0    0  0.15894965587E+02 -0.17665600214E+02 -0.14711777343E+04  0.14713696508E+04  0.00000000000E+00 0. -1.
        -11    1    3    3    0    0  0.17379016384E+02  0.13764289324E+02 -0.83426637642E+02  0.86322011905E+02  0.00000000000E+00 0.  1.
         22    1    1    2    0    0 -0.33273981971E+02  0.39013108893E+01 -0.16465574994E+03  0.16802944412E+03  0.00000000000E+00 0. -1.
<mgrwt>
<rscale>  0 0.74948735E+02</rscale>
<asrwt>0</asrwt>
<pdfrwt beam="1">  1        2 0.26499779E+00 0.98023277E+02</pdfrwt>
<pdfrwt beam="2">  1       -2 0.49700028E-03 0.98023277E+02</pdfrwt>
<totfact> 0.56326607E+04</totfact>
</mgrwt>
</event>
<event>
 6    1  0.2995420E-002  0.9407373E+02  0.7546771E-02  0.1407467E+00
         -2   -1    0    0    0  501 -0.00000000000E+00  0.00000000000E+00  0.12178404404E+03  0.12178404404E+03  0.00000000000E+00 0.  1.
          2   -1    0    0  501    0  0.00000000000E+00 -0.00000000000E+00 -0.24811186054E+02  0.24811186054E+02  0.00000000000E+00 0. -1.
         23    2    1    2    0    0  0.13335518720E+02  0.98481981336E+00  0.72732336507E+02  0.11891114060E+03  0.93118530138E+02 0.  0.
         11    1    3    3    0    0 -0.99910262587E+01 -0.23788799244E+02 -0.11362565728E+02  0.28192826660E+02  0.00000000000E+00 0. -1.
        -11    1    3    3    0    0  0.23326544979E+02  0.24773619057E+02  0.84094902235E+02  0.90718313938E+02  0.00000000000E+00 0.  1.
         22    1    1    2    0    0 -0.13335518720E+02 -0.98481981336E+00  0.24240521480E+02  0.27684089496E+02  0.00000000000E+00 0.  1.
<mgrwt>
<rscale>  0 0.57762903E+02</rscale>
<asrwt>0</asrwt>
<pdfrwt beam="1">  1        2 0.38171056E-02 0.94073730E+02</pdfrwt>
<pdfrwt beam="2">  1       -2 0.18736006E-01 0.94073730E+02</pdfrwt>
<totfact> 0.45926402E+04</totfact>
</mgrwt>
</event>
<event>
 6    1  0.2995420E-002  0.1026728E+03  0.7546771E-02  0.1404727E+00
          2   -1    0    0  501    0  0.00000000000E+00  0.00000000000E+00  0.20517507293E+03  0.20517507293E+03  0.00000000000E+00 0. -1.
         -2   -1    0    0    0  501 -0.00000000000E+00 -0.00000000000E+00 -0.18627483443E+02  0.18627483443E+02  0.00000000000E+00 0.  1.
         23    2    1    2    0    0  0.14384500391E+01 -0.10640744519E+02  0.18669382880E+03  0.21306402908E+03  0.10210974584E+03 0.  0.
         13    1    3    3    0    0 -0.32293111604E+02  0.22575173925E+01  0.11760591048E+02  0.34442022931E+02  0.00000000000E+00 0.  1.
        -13    1    3    3    0    0  0.33731561643E+02 -0.12898261912E+02  0.17493323775E+03  0.17862200615E+03  0.00000000000E+00 0. -1.
         22    1    1    2    0    0 -0.14384500391E+01  0.10640744519E+02 -0.14623931160E+00  0.10738527291E+02  0.00000000000E+00 0. -1.
<mgrwt>
<rscale>  0 0.58387184E+02</rscale>
<asrwt>0</asrwt>
<pdfrwt beam="1">  1        2 0.31565394E-01 0.10267276E+03</pdfrwt>
<pdfrwt beam="2">  1       -2 0.28657668E-02 0.10267276E+03</pdfrwt>
<totfact> 0.66043650E+04</totfact>
</mgrwt>
</event>
<event>
 6    1  0.2995420E-002  0.9248118E+02  0.7546771E-02  0.1421184E+00
         -2   -1    0    0    0  501 -0.00000000000E+00  0.00000000000E+00  0.33807339396E+01  0.33807339396E+01  0.00000000000E+00 0.  1.
          2   -1    0    0  501    0  0.00000000000E+00 -0.00000000000E+00 -0.86569310368E+03  0.86569310368E+03  0.00000000000E+00 0. -1.
         23    2    1    2    0    0  0.18733059788E+01 -0.11222347067E+02 -0.82201860437E+03  0.82720454247E+03  0.91778640195E+02 0.  0.
         11    1    3    3    0    0 -0.24089646492E+02 -0.44041280290E+02 -0.48787226986E+03  0.49044805753E+03  0.00000000000E+00 0.  1.
        -11    1    3    3    0    0  0.25962952471E+02  0.32818933223E+02 -0.33414633451E+03  0.33675648494E+03  0.00000000000E+00 0. -1.
         22    1    1    2    0    0 -0.18733059788E+01  0.11222347067E+02 -0.40293765370E+02  0.41869295154E+02  0.00000000000E+00 0. -1.
<mgrwt>
<rscale>  0 0.54771286E+02</rscale>
<asrwt>0</asrwt>
<pdfrwt beam="1">  1        2 0.13318366E+00 0.92481183E+02</pdfrwt>
<pdfrwt beam="2">  1       -2 0.52011251E-03 0.92481183E+02</pdfrwt>
<totfact> 0.15316549E+05</totfact>
</mgrwt>
</event>
<event>
 6    1  0.2995420E-002  0.9077867E+02  0.7546771E-02  0.1433009E+00
          2   -1    0    0  501    0  0.00000000000E+00  0.00000000000E+00  0.16541728689E+04  0.16541728689E+04  0.00000000000E+00 0. -1.
         -2   -1    0    0    0  501 -0.00000000000E+00 -0.00000000000E+00 -0.17313022017E+01  0.17313022017E+01  0.00000000000E+00 0.  1.
         23    2    1    2    0    0  0.98296033243E+01  0.20827239309E+01  0.15956810440E+04  0.15982611682E+04  0.90220889622E+02 0.  0.
         11    1    3    3    0    0 -0.36130927651E+01  0.10149442125E+00  0.15611313474E+04  0.15611355318E+04  0.00000000000E+00 0. -1.
        -11    1    3    3    0    0  0.13442696089E+02  0.19812295097E+01  0.34549696578E+02  0.37125636455E+02  0.00000000000E+00 0.  1.
         22    1    1    2    0    0 -0.98296033243E+01 -0.20827239309E+01  0.56760522731E+02  0.57643002881E+02  0.00000000000E+00 0. -1.
<mgrwt>
<rscale>  0 0.52360758E+02</rscale>
<asrwt>0</asrwt>
<pdfrwt beam="1">  1        2 0.25448687E+00 0.90778675E+02</pdfrwt>
<pdfrwt beam="2">  1       -2 0.26635551E-03 0.90778675E+02</pdfrwt>
<totfact> 0.14456055E+05</totfact>
</mgrwt>
</event>
<event>
 6    1  0.2995420E-002  0.1013562E+03  0.7546771E-02  0.1326183E+00
         -1   -1    0    0    0  501 -0.00000000000E+00  0.00000000000E+00  0.50892203233E+02  0.50892203233E+02  0.00000000000E+00 0.  1.
          1   -1    0    0  501    0  0.00000000000E+00 -0.00000000000E+00 -0.13426385562E+03  0.13426385562E+03  0.00000000000E+00 0. -1.
         23    2    1    2    0    0 -0.41155864389E+02  0.43177977483E+01 -0.98270193892E+02  0.14117407288E+03  0.92523722884E+02 0.  0.
         11    1    3    3    0    0  0.83411474746E+01 -0.21311156982E+02 -0.78921489653E+02  0.82172633414E+02  0.00000000000E+00 0.  1.
        -11    1    3    3    0    0 -0.49497011863E+02  0.25628954730E+02 -0.19348704239E+02  0.59001439471E+02  0.00000000000E+00 0. -1.
         22    1    1    2    0    0  0.41155864389E+02 -0.43177977483E+01  0.14898541503E+02  0.43981985971E+02  0.00000000000E+00 0.  1.
<mgrwt>
<rscale>  0 0.81019595E+02</rscale>
<asrwt>0</asrwt>
<pdfrwt beam="1">  1        1 0.20655977E-01 0.10135624E+03</pdfrwt>
<pdfrwt beam="2">  1       -1 0.78295699E-02 0.10135624E+03</pdfrwt>
<totfact> 0.19605408E+04</totfact>
</mgrwt>
</event>
<event>
 6    1  0.2995420E-002  0.9144031E+02  0.7546771E-02  0.1411819E+00
         -1   -1    0    0    0  501 -0.00000000000E+00  0.00000000000E+00  0.35039004692E+01  0.35039004692E+01  0.00000000000E+00 0.  1.
          1   -1    0    0  501    0  0.00000000000E+00 -0.00000000000E+00 -0.80390714983E+03  0.80390714983E+03  0.00000000000E+00 0. -1.
         23    2    1    2    0    0 -0.13949378698E+01  0.13532360017E+02 -0.73008019521E+03  0.73578422178E+03  0.90422668376E+02 0.  0.
         13    1    3    3    0    0  0.34406906382E+02  0.35418176526E+02 -0.37748257332E+03  0.38069853637E+03  0.00000000000E+00 0.  1.
        -13    1    3    3    0    0 -0.35801844252E+02 -0.21885816509E+02 -0.35259762190E+03  0.35508568541E+03  0.00000000000E+00 0. -1.
         22    1    1    2    0    0  0.13949378698E+01 -0.13532360017E+02 -0.70323054145E+02  0.71626828518E+02  0.00000000000E+00 0. -1.
<mgrwt>
<rscale>  0 0.56789813E+02</rscale>
<asrwt>0</asrwt>
<pdfrwt beam="1">  1        1 0.12367810E+00 0.91440306E+02</pdfrwt>
<pdfrwt beam="2">  1       -1 0.53906128E-03 0.91440306E+02</pdfrwt>
<totfact> 0.92372550E+04</totfact>
</mgrwt>
</event>
<event>
 6    1  0.2995420E-002  0.9386035E+02  0.7546771E-02  0.1411044E+00
          1   -1    0    0  501    0  0.00000000000E+00  0.00000000000E+00  0.14638082907E+03  0.14638082907E+03  0.00000000000E+00 0. -1.
         -1   -1    0    0    0  501 -0.00000000000E+00 -0.00000000000E+00 -0.19889806175E+02  0.19889806175E+02  0.00000000000E+00 0.  1.
         23    2    1    2    0    0 -0.90471044090E+00 -0.12699285630E+02  0.10164551732E+03  0.13835308693E+03  0.92992876695E+02 0.  0.
         11    1    3    3    0    0 -0.34098752286E+02  0.13507625610E+01  0.41122368245E+01  0.34372372026E+02  0.00000000000E+00 0.  1.
        -11    1    3    3    0    0  0.33194041846E+02 -0.14050048191E+02  0.97533280496E+02  0.10398071491E+03  0.00000000000E+00 0. -1.
         22    1    1    2    0    0  0.90471044090E+00  0.12699285630E+02  0.24845505579E+02  0.27917548316E+02  0.00000000000E+00 0. -1.
<mgrwt>
<rscale>  0 0.56961482E+02</rscale>
<asrwt>0</asrwt>
<pdfrwt beam="1">  1        1 0.22520127E-01 0.93860351E+02</pdfrwt>
<pdfrwt beam="2">  1       -1 0.30599703E-02 0.93860351E+02</pdfrwt>
<totfact> 0.69100219E+04</totfact>
</mgrwt>
</event>
<event>
 6    1  0.2995420E-002  0.9192164E+02  0.7546771E-02  0.1411018E+00
          2   -1    0    0  501    0  0.00000000000E+00  0.00000000000E+00  0.13243818283E+04  0.13243818283E+04  0.00000000000E+00 0. -1.
         -2   -1    0    0    0  501 -0.00000000000E+00 -0.00000000000E+00 -0.80652034689E+01  0.80652034689E+01  0.00000000000E+00 0.  1.
         23    2    1    2    0    0 -0.12651181649E+02  0.48797881138E+01  0.13156644444E+04  0.13188716840E+04  0.90916026242E+02 0.  0.
         13    1    3    3    0    0  0.23008742779E+02  0.23426791949E+02  0.10151667010E+04  0.10156976162E+04  0.00000000000E+00 0. -1.
        -13    1    3    3    0    0 -0.35659924428E+02 -0.18547003835E+02  0.30049774342E+03  0.30317406776E+03  0.00000000000E+00 0.  1.
         22    1    1    2    0    0  0.12651181649E+02 -0.48797881138E+01  0.65218046905E+00  0.13575347823E+02  0.00000000000E+00 0.  1.
<mgrwt>
<rscale>  0 0.56967300E+02</rscale>
<asrwt>0</asrwt>
<pdfrwt beam="1">  1        2 0.20375088E+00 0.91921644E+02</pdfrwt>
<pdfrwt beam="2">  1       -2 0.12408016E-02 0.91921644E+02</pdfrwt>
<totfact> 0.24611419E+04</totfact>
</mgrwt>
</event>
<event>
 6    1  0.2995420E-002  0.9231320E+02  0.7546771E-02  0.1394519E+00
          2   -1    0    0  501    0  0.00000000000E+00  0.00000000000E+00  0.68252523700E+02  0.68252523700E+02  0.00000000000E+00 0. -1.
         -2   -1    0    0    0  501 -0.00000000000E+00 -0.00000000000E+00 -0.49004003506E+02  0.49004003506E+02  0.00000000000E+00 0.  1.
         23    2    1    2    0    0  0.37929733428E+01 -0.16947748767E+02  0.29716910357E+02  0.96978459555E+02  0.90664844462E+02 0.  0.
         13    1    3    3    0    0 -0.30373703426E+00 -0.49039457501E+02  0.39727582247E+02  0.63112926088E+02  0.00000000000E+00 0. -1.
        -13    1    3    3    0    0  0.40967103771E+01  0.32091708733E+02 -0.10010671890E+02  0.33865533467E+02  0.00000000000E+00 0.  1.
         22    1    1    2    0    0 -0.37929733428E+01  0.16947748767E+02 -0.10468390164E+02  0.20278067651E+02  0.00000000000E+00 0.  1.
<mgrwt>
<rscale>  0 0.60796570E+02</rscale>
<asrwt>0</asrwt>
<pdfrwt beam="1">  1        2 0.10500388E-01 0.92313200E+02</pdfrwt>
<pdfrwt beam="2">  1       -2 0.75390775E-02 0.92313200E+02</pdfrwt>
<totfact> 0.53892020E+04</totfact>
</mgrwt>
</event>
<event>
 6    1  0.2995420E-002  0.9231224E+02  0.7546771E-02  0.1415450E+00
         -4   -1    0    0    0  501 -0.00000000000E+00  0.00000000000E+00  0.10276011365E+03  0.10276011365E+03  0.00000000000E+00 0.  1.
          4   -1    0    0  501    0  0.00000000000E+00 -0.00000000000E+00 -0.34575374789E+02  0.34575374789E+02  0.00000000000E+00 0. -1.
         23    2    1    2    0    0 -0.10757376405E+02  0.63616953225E+01  0.29855357879E+02  0.97020060114E+02  0.91462327523E+02 0.  0.
         11    1    3    3    0    0 -0.41978818206E+02  0.28021520546E+02  0.30581624943E+02  0.59014087943E+02  0.00000000000E+00 0. -1.
        -11    1    3    3    0    0  0.31221441800E+02 -0.21659825223E+02 -0.72626706425E+00  0.38005972171E+02  0.00000000000E+00 0.  1.
         22    1    1    2    0    0  0.10757376405E+02 -0.63616953225E+01  0.38329380986E+02  0.40315428328E+02  0.00000000000E+00 0. -1.
<mgrwt>
<rscale>  0 0.55995345E+02</rscale>
<asrwt>0</asrwt>
<pdfrwt beam="1">  1        4 0.53192884E-02 0.92312240E+02</pdfrwt>
<pdfrwt beam="2">  1       -4 0.15809248E-01 0.92312240E+02</pdfrwt>
<totfact> 0.10819645E+04</totfact>
</mgrwt>
</event>
<event>
 6    1  0.2995420E-002  0.1054919E+03  0.7546771E-02  0.1305604E+00
          1   -1    0    0  501    0  0.00000000000E+00  0.00000000000E+00  0.37412060869E+03  0.37412060869E+03  0.00000000000E+00 0. -1.
         -1   -1    0    0    0  501 -0.00000000000E+00 -0.00000000000E+00 -0.17633111302E+02  0.17633111302E+02  0.00000000000E+00 0.  1.
         23    2    1    2    0    0  0.48869691366E+02  0.20870542404E+02  0.27427080523E+03  0.29385882358E+03  0.91130166892E+02 0.  0.
         13    1    3    3    0    0  0.12374887542E+02 -0.34404147664E+02  0.13120785072E+03  0.13620676675E+03  0.00000000000E+00 0. -1.
        -13    1    3    3    0    0  0.36494803824E+02  0.55274690068E+02  0.14306295451E+03  0.15765205683E+03  0.00000000000E+00 0.  1.
         22    1    1    2    0    0 -0.48869691366E+02 -0.20870542404E+02  0.82216692154E+02  0.97894896410E+02  0.00000000000E+00 0. -1.
<mgrwt>
<rscale>  0 0.88872823E+02</rscale>
<asrwt>0</asrwt>
<pdfrwt beam="1">  1        1 0.57557011E-01 0.10549187E+03</pdfrwt>
<pdfrwt beam="2">  1       -1 0.27127866E-02 0.10549187E+03</pdfrwt>
<totfact> 0.26266406E+04</totfact>
</mgrwt>
</event>
<event>
 6    1  0.2995420E-002  0.1003839E+03  0.7546771E-02  0.1325318E+00
         -1   -1    0    0    0  501 -0.00000000000E+00  0.00000000000E+00  0.28737124747E+02  0.28737124747E+02  0.00000000000E+00 0.  1.
          1   -1    0    0  501    0  0.00000000000E+00 -0.00000000000E+00 -0.62498855098E+03  0.62498855098E+03  0.00000000000E+00 0. -1.
         23    2    1    2    0    0  0.19153218482E+02 -0.38781679341E+02 -0.60180257392E+03  0.61011742340E+03  0.90587349687E+02 0.  0.
         13    1    3    3    0    0  0.23285121826E+02  0.25679983776E+02 -0.25566669860E+03  0.25800604497E+03  0.00000000000E+00 0. -1.
        -13    1    3    3    0    0 -0.41319033439E+01 -0.64461663117E+02 -0.34613587532E+03  0.35211137843E+03  0.00000000000E+00 0.  1.
         22    1    1    2    0    0 -0.19153218482E+02  0.38781679341E+02  0.55511476870E+01  0.43608252331E+02  0.00000000000E+00 0.  1.
<mgrwt>
<rscale>  0 0.81330496E+02</rscale>
<asrwt>0</asrwt>
<pdfrwt beam="1">  1        1 0.96152077E-01 0.10038392E+03</pdfrwt>
<pdfrwt beam="2">  1       -1 0.44210965E-02 0.10038392E+03</pdfrwt>
<totfact> 0.66444350E+03</totfact>
</mgrwt>
</event>
<event>
 6    1  0.2995420E-002  0.9356443E+02  0.7546771E-02  0.1385417E+00
          1   -1    0    0  501    0  0.00000000000E+00  0.00000000000E+00  0.54014575875E+03  0.54014575875E+03  0.00000000000E+00 0.  1.
         -1   -1    0    0    0  501 -0.00000000000E+00 -0.00000000000E+00 -0.70513568663E+01  0.70513568663E+01  0.00000000000E+00 0. -1.
         23    2    1    2    0    0  0.14566274197E+02  0.12672023508E+02  0.50163162498E+03  0.51028285205E+03  0.91550780429E+02 0.  0.
         11    1    3    3    0    0 -0.16270329873E+02 -0.31107309299E+02  0.28393144913E+03  0.28609343951E+03  0.00000000000E+00 0.  1.
        -11    1    3    3    0    0  0.30836604071E+02  0.43779332807E+02  0.21770017585E+03  0.22418941255E+03  0.00000000000E+00 0. -1.
         22    1    1    2    0    0 -0.14566274197E+02 -0.12672023508E+02  0.31462776900E+02  0.36914263558E+02  0.00000000000E+00 0. -1.
<mgrwt>
<rscale>  0 0.63061054E+02</rscale>
<asrwt>0</asrwt>
<pdfrwt beam="1">  1        1 0.83099315E-01 0.93564427E+02</pdfrwt>
<pdfrwt beam="2">  1       -1 0.10848246E-02 0.93564427E+02</pdfrwt>
<totfact> 0.60093655E+04</totfact>
</mgrwt>
</event>
<event>
 6    1  0.2995420E-002  0.9499464E+02  0.7546771E-02  0.1377819E+00
          1   -1    0    0  501    0  0.00000000000E+00  0.00000000000E+00  0.10167728865E+04  0.10167728865E+04  0.00000000000E+00 0. -1.
         -1   -1    0    0    0  501 -0.00000000000E+00 -0.00000000000E+00 -0.37009961392E+01  0.37009961392E+01  0.00000000000E+00 0.  1.
         23    2    1    2    0    0 -0.65316929224E+01 -0.19827424684E+02  0.92919676010E+03  0.93403993527E+03  0.92672498130E+02 0.  0.
         13    1    3    3    0    0 -0.42793041774E+02 -0.34418136359E+02  0.60755721696E+03  0.61003411741E+03  0.00000000000E+00 0. -1.
        -13    1    3    3    0    0  0.36261348852E+02  0.14590711675E+02  0.32163954315E+03  0.32400581786E+03  0.00000000000E+00 0.  1.
         22    1    1    2    0    0  0.65316929224E+01  0.19827424684E+02  0.83875130231E+02  0.86433947343E+02  0.00000000000E+00 0.  1.
<mgrwt>
<rscale>  0 0.65040513E+02</rscale>
<asrwt>0</asrwt>
<pdfrwt beam="1">  1        1 0.15642638E+00 0.94994640E+02</pdfrwt>
<pdfrwt beam="2">  1       -1 0.56938483E-03 0.94994640E+02</pdfrwt>
<totfact> 0.59380453E+04</totfact>
</mgrwt>
</event>
<event>
 6    1  0.2995420E-002  0.9329589E+02  0.7546771E-02  0.1426742E+00
         -1   -1    0    0    0  501 -0.00000000000E+00  0.00000000000E+00  0.23897102448E+03  0.23897102448E+03  0.00000000000E+00 0.  1.
          1   -1    0    0  501    0  0.00000000000E+00 -0.00000000000E+00 -0.12099621900E+02  0.12099621900E+02  0.00000000000E+00 0. -1.
         23    2    1    2    0    0  0.10178086958E+02  0.13952695470E+00  0.17608090678E+03  0.19927018899E+03  0.92738932316E+02 0.  0.
         13    1    3    3    0    0  0.40503614605E+02  0.27736143650E+02  0.12119683535E+03  0.13076126857E+03  0.00000000000E+00 0.  1.
        -13    1    3    3    0    0 -0.30325527647E+02 -0.27596616695E+02  0.54884071429E+02  0.68508920417E+02  0.00000000000E+00 0. -1.
         22    1    1    2    0    0 -0.10178086958E+02 -0.13952695470E+00  0.50790495799E+02  0.51800457386E+02  0.00000000000E+00 0.  1.
<mgrwt>
<rscale>  0 0.53619605E+02</rscale>
<asrwt>0</asrwt>
<pdfrwt beam="1">  1        1 0.18614805E-02 0.93295887E+02</pdfrwt>
<pdfrwt beam="2">  1       -1 0.36764769E-01 0.93295887E+02</pdfrwt>
<totfact> 0.41794802E+04</totfact>
</mgrwt>
</event>
<event>
 6    1  0.2995420E-002  0.1212238E+03  0.7546771E-02  0.1261319E+00
         -1   -1    0    0    0  501 -0.00000000000E+00  0.00000000000E+00  0.41054167453E+02  0.41054167453E+02  0.00000000000E+00 0.  1.
          1   -1    0    0  501    0  0.00000000000E+00 -0.00000000000E+00 -0.37849353639E+03  0.37849353639E+03  0.00000000000E+00 0. -1.
         23    2    1    2    0    0 -0.49394417748E+01  0.80838278635E+02 -0.31189661938E+03  0.33462622580E+03  0.90199691986E+02 0.  0.
         11    1    3    3    0    0  0.22048469033E+02 -0.11261096274E+02 -0.76918317523E+02  0.80804547190E+02  0.00000000000E+00 0.  1.
        -11    1    3    3    0    0 -0.26987910808E+02  0.92099374910E+02 -0.23497830186E+03  0.25382167861E+03  0.00000000000E+00 0. -1.
         22    1    1    2    0    0  0.49394417748E+01 -0.80838278635E+02 -0.25542749553E+02  0.84921478040E+02  0.00000000000E+00 0.  1.
<mgrwt>
<rscale>  0 0.10959670E+03</rscale>
<asrwt>0</asrwt>
<pdfrwt beam="1">  1        1 0.58229777E-01 0.12122380E+03</pdfrwt>
<pdfrwt beam="2">  1       -1 0.63160255E-02 0.12122380E+03</pdfrwt>
<totfact> 0.76070189E+03</totfact>
</mgrwt>
</event>
<event>
 6    1  0.2995420E-002  0.8921436E+02  0.7546771E-02  0.1408622E+00
          1   -1    0    0  501    0  0.00000000000E+00  0.00000000000E+00  0.56212272473E+03  0.56212272473E+03  0.00000000000E+00 0. -1.
         -1   -1    0    0    0  501 -0.00000000000E+00 -0.00000000000E+00 -0.69386321016E+01  0.69386321016E+01  0.00000000000E+00 0.  1.
         23    2    1    2    0    0  0.14168489264E+02 -0.60271237947E+01  0.54040312311E+03  0.54771775430E+03  0.87875654172E+02 0.  0.
         13    1    3    3    0    0 -0.21547127151E+02  0.19264943284E+02  0.39019399060E+03  0.39126304072E+03  0.00000000000E+00 0. -1.
        -13    1    3    3    0    0  0.35715616415E+02 -0.25292067079E+02  0.15020913251E+03  0.15645471358E+03  0.00000000000E+00 0.  1.
         22    1    1    2    0    0 -0.14168489264E+02  0.60271237947E+01  0.14780969520E+02  0.21343602536E+02  0.00000000000E+00 0. -1.
<mgrwt>
<rscale>  0 0.57502430E+02</rscale>
<asrwt>0</asrwt>
<pdfrwt beam="1">  1        1 0.86480384E-01 0.89214365E+02</pdfrwt>
<pdfrwt beam="2">  1       -1 0.10674823E-02 0.89214365E+02</pdfrwt>
<totfact> 0.57983585E+04</totfact>
</mgrwt>
</event>
<event>
 6    1  0.2995420E-002  0.9248680E+02  0.7546771E-02  0.1413161E+00
         -2   -1    0    0    0  501 -0.00000000000E+00  0.00000000000E+00  0.71835574770E+02  0.71835574770E+02  0.00000000000E+00 0. -1.
          2   -1    0    0  501    0  0.00000000000E+00 -0.00000000000E+00 -0.39692778832E+02  0.39692778832E+02  0.00000000000E+00 0.  1.
         23    2    1    2    0    0 -0.11796815560E+02 -0.51602374279E+01  0.21821685197E+02  0.95026286016E+02  0.91586113475E+02 0.  0.
         11    1    3    3    0    0  0.39233020341E+02 -0.10667655162E+02  0.14575505246E+02  0.43191134564E+02  0.00000000000E+00 0.  1.
        -11    1    3    3    0    0 -0.51029835901E+02  0.55074177346E+01  0.72461799508E+01  0.51835151452E+02  0.00000000000E+00 0. -1.
         22    1    1    2    0    0  0.11796815560E+02  0.51602374279E+01  0.10321110742E+02  0.16502067586E+02  0.00000000000E+00 0.  1.
<mgrwt>
<rscale>  0 0.56494423E+02</rscale>
<asrwt>0</asrwt>
<pdfrwt beam="1">  1        2 0.61065814E-02 0.92486805E+02</pdfrwt>
<pdfrwt beam="2">  1       -2 0.11051627E-01 0.92486805E+02</pdfrwt>
<totfact> 0.58463339E+04</totfact>
</mgrwt>
</event>
<event>
 6    1  0.2995420E-002  0.9080235E+02  0.7546771E-02  0.1415368E+00
          2   -1    0    0  501    0  0.00000000000E+00  0.00000000000E+00  0.71856885560E+03  0.71856885560E+03  0.00000000000E+00 0. -1.
         -2   -1    0    0    0  501 -0.00000000000E+00 -0.00000000000E+00 -0.49514091853E+01  0.49514091853E+01  0.00000000000E+00 0.  1.
         23    2    1    2    0    0  0.10231633313E+02 -0.82577502384E+01  0.69393209048E+03  0.69984770689E+03  0.89845366470E+02 0.  0.
         11    1    3    3    0    0  0.53558045902E+01  0.15100103426E+02  0.64699747042E+03  0.64719581619E+03  0.00000000000E+00 0. -1.
        -11    1    3    3    0    0  0.48758287230E+01 -0.23357853664E+02  0.46934620065E+02  0.52651890699E+02  0.00000000000E+00 0.  1.
         22    1    1    2    0    0 -0.10231633313E+02  0.82577502384E+01  0.19685355938E+02  0.23672557903E+02  0.00000000000E+00 0. -1.
<mgrwt>
<rscale>  0 0.56013136E+02</rscale>
<asrwt>0</asrwt>
<pdfrwt beam="1">  1        2 0.11054897E+00 0.90802349E+02</pdfrwt>
<pdfrwt beam="2">  1       -2 0.76175583E-03 0.90802349E+02</pdfrwt>
<totfact> 0.11206741E+05</totfact>
</mgrwt>
</event>
<event>
 6    1  0.2995420E-002  0.9414867E+02  0.7546771E-02  0.1375839E+00
          2   -1    0    0  501    0  0.00000000000E+00  0.00000000000E+00  0.83404748084E+03  0.83404748084E+03  0.00000000000E+00 0. -1.
         -2   -1    0    0    0  501 -0.00000000000E+00 -0.00000000000E+00 -0.42557154656E+01  0.42557154656E+01  0.00000000000E+00 0.  1.
         23    2    1    2    0    0 -0.22130716766E+02 -0.94229976062E+00  0.73226130467E+03  0.73828896072E+03  0.91505817624E+02 0.  0.
         11    1    3    3    0    0  0.25779448952E+02 -0.13252848551E+02  0.49895488035E+03  0.49979614906E+03  0.00000000000E+00 0. -1.
        -11    1    3    3    0    0 -0.47910165718E+02  0.12310548790E+02  0.23330642431E+03  0.23849281167E+03  0.00000000000E+00 0.  1.
         22    1    1    2    0    0  0.22130716766E+02  0.94229976062E+00  0.97530460708E+02  0.10001423558E+03  0.00000000000E+00 0.  1.
<mgrwt>
<rscale>  0 0.65570399E+02</rscale>
<asrwt>0</asrwt>
<pdfrwt beam="1">  1        2 0.12831487E+00 0.94148665E+02</pdfrwt>
<pdfrwt beam="2">  1       -2 0.65472612E-03 0.94148665E+02</pdfrwt>
<totfact> 0.11642805E+05</totfact>
</mgrwt>
</event>
<event>
 6    1  0.2995420E-002  0.9332347E+02  0.7546771E-02  0.1400260E+00
          4   -1    0    0  501    0  0.00000000000E+00  0.00000000000E+00  0.77464139071E+02  0.77464139071E+02  0.00000000000E+00 0. -1.
         -4   -1    0    0    0  501 -0.00000000000E+00 -0.00000000000E+00 -0.84652347403E+02  0.84652347403E+02  0.00000000000E+00 0.  1.
         23    2    1    2    0    0 -0.15322073759E+02  0.79998599644E+00  0.47923324930E+02  0.10490908293E+03  0.92053596817E+02 0.  0.
         11    1    3    3    0    0 -0.22055803187E+02  0.25037192335E+02  0.65984827213E+02  0.73941306971E+02  0.00000000000E+00 0. -1.
        -11    1    3    3    0    0  0.67337294275E+01 -0.24237206338E+02 -0.18061502283E+02  0.30967775958E+02  0.00000000000E+00 0.  1.
         22    1    1    2    0    0  0.15322073759E+02 -0.79998599644E+00 -0.55111533262E+02  0.57207403545E+02  0.00000000000E+00 0.  1.
<mgrwt>
<rscale>  0 0.59425158E+02</rscale>
<asrwt>0</asrwt>
<pdfrwt beam="1">  1        4 0.11917560E-01 0.93323473E+02</pdfrwt>
<pdfrwt beam="2">  1       -4 0.13023438E-01 0.93323473E+02</pdfrwt>
<totfact> 0.40246798E+03</totfact>
</mgrwt>
</event>
<event>
 6    1  0.2995420E-002  0.9308600E+02  0.7546771E-02  0.1362474E+00
         -1   -1    0    0    0  501 -0.00000000000E+00  0.00000000000E+00  0.16157879889E+03  0.16157879889E+03  0.00000000000E+00 0.  1.
          1   -1    0    0  501    0  0.00000000000E+00 -0.00000000000E+00 -0.38541823025E+02  0.38541823025E+02  0.00000000000E+00 0. -1.
         23    2    1    2    0    0  0.20273786726E+02  0.20175558874E+02  0.22737611323E+02  0.95822768957E+02  0.88582867857E+02 0.  0.
         11    1    3    3    0    0  0.18888715595E+01  0.48615620046E+02 -0.89219838737E+01  0.49463604240E+02  0.00000000000E+00 0. -1.
        -11    1    3    3    0    0  0.18384915166E+02 -0.28440061172E+02  0.31659595197E+02  0.46359164716E+02  0.00000000000E+00 0.  1.
         22    1    1    2    0    0 -0.20273786726E+02 -0.20175558874E+02  0.10029936454E+03  0.10429785295E+03  0.00000000000E+00 0.  1.
<mgrwt>
<rscale>  0 0.69304708E+02</rscale>
<asrwt>0</asrwt>
<pdfrwt beam="1">  1        1 0.59295114E-02 0.93086004E+02</pdfrwt>
<pdfrwt beam="2">  1       -1 0.24858276E-01 0.93086004E+02</pdfrwt>
<totfact> 0.16487508E+04</totfact>
</mgrwt>
</event>
<event>
 6    1  0.2995420E-002  0.9015998E+02  0.7546771E-02  0.1423824E+00
         -2   -1    0    0    0  501 -0.00000000000E+00  0.00000000000E+00  0.25062369149E+01  0.25062369149E+01  0.00000000000E+00 0. -1.
          2   -1    0    0  501    0  0.00000000000E+00 -0.00000000000E+00 -0.22970011463E+04  0.22970011463E+04  0.00000000000E+00 0.  1.
         23    2    1    2    0    0 -0.82697678437E+01  0.84065325613E+01 -0.22745570398E+04  0.22763432408E+04  0.89385479013E+02 0.  0.
         11    1    3    3    0    0 -0.29829564175E+01 -0.41873320819E+01 -0.22230513910E+04  0.22230573360E+04  0.00000000000E+00 0.  1.
        -11    1    3    3    0    0 -0.52868114262E+01  0.12593864643E+02 -0.51505648741E+02  0.53285904834E+02  0.00000000000E+00 0. -1.
         22    1    1    2    0    0  0.82697678437E+01 -0.84065325613E+01 -0.19937869654E+02  0.23164142467E+02  0.00000000000E+00 0. -1.
<mgrwt>
<rscale>  0 0.54220086E+02</rscale>
<asrwt>0</asrwt>
<pdfrwt beam="1">  1        2 0.35338523E+00 0.90159984E+02</pdfrwt>
<pdfrwt beam="2">  1       -2 0.38557443E-03 0.90159984E+02</pdfrwt>
<totfact> 0.40905130E+04</totfact>
</mgrwt>
</event>
<event>
 6    1  0.2995420E-002  0.9406031E+02  0.7546771E-02  0.1386579E+00
          1   -1    0    0  501    0  0.00000000000E+00  0.00000000000E+00  0.69382943705E+02  0.69382943705E+02  0.00000000000E+00 0. -1.
         -1   -1    0    0    0  501 -0.00000000000E+00 -0.00000000000E+00 -0.55125232306E+02  0.55125232306E+02  0.00000000000E+00 0.  1.
         23    2    1    2    0    0 -0.18575436322E+02  0.16606319949E+01  0.31414199588E+02  0.99167504745E+02  0.92192936435E+02 0.  0.
         13    1    3    3    0    0  0.95629665003E+01 -0.41421367766E+02  0.12028351398E+02  0.44179874074E+02  0.00000000000E+00 0. -1.
        -13    1    3    3    0    0 -0.28138402822E+02  0.43081999761E+02  0.19385848190E+02  0.54987630671E+02  0.00000000000E+00 0.  1.
         22    1    1    2    0    0  0.18575436322E+02 -0.16606319949E+01 -0.17156488190E+02  0.25340671266E+02  0.00000000000E+00 0.  1.
<mgrwt>
<rscale>  0 0.62765604E+02</rscale>
<asrwt>0</asrwt>
<pdfrwt beam="1">  1        1 0.10674299E-01 0.94060311E+02</pdfrwt>
<pdfrwt beam="2">  1       -1 0.84808049E-02 0.94060311E+02</pdfrwt>
<totfact> 0.40195906E+04</totfact>
</mgrwt>
</event>
<event>
 6    1  0.2995420E-002  0.9468889E+02  0.7546771E-02  0.1333404E+00
          2   -1    0    0  501    0  0.00000000000E+00  0.00000000000E+00  0.41104589768E+02  0.41104589768E+02  0.00000000000E+00 0. -1.
         -2   -1    0    0    0  501 -0.00000000000E+00 -0.00000000000E+00 -0.11965964035E+03  0.11965964035E+03  0.00000000000E+00 0.  1.
         23    2    1    2    0    0  0.40904521389E+02 -0.18016201959E+02 -0.44790862643E+02  0.10474830568E+03  0.83475881333E+02 0.  0.
         11    1    3    3    0    0  0.51159834171E+02 -0.40121568566E+02 -0.47080910686E+02  0.80272542302E+02  0.00000000000E+00 0.  1.
        -11    1    3    3    0    0 -0.10255312782E+02  0.22105366607E+02  0.22900480430E+01  0.24475763382E+02  0.00000000000E+00 0. -1.
         22    1    1    2    0    0 -0.40904521389E+02  0.18016201959E+02 -0.33764187943E+02  0.56015924437E+02  0.00000000000E+00 0. -1.
<mgrwt>
<rscale>  0 0.78486015E+02</rscale>
<asrwt>0</asrwt>
<pdfrwt beam="1">  1        2 0.63237831E-02 0.94688891E+02</pdfrwt>
<pdfrwt beam="2">  1       -2 0.18409175E-01 0.94688891E+02</pdfrwt>
<totfact> 0.24652758E+04</totfact>
</mgrwt>
</event>
<event>
 6    1  0.2995420E-002  0.8979375E+02  0.7546771E-02  0.1404288E+00
          1   -1    0    0  501    0  0.00000000000E+00  0.00000000000E+00  0.36469205008E+03  0.36469205008E+03  0.00000000000E+00 0. -1.
         -1   -1    0    0    0  501 -0.00000000000E+00 -0.00000000000E+00 -0.80091802291E+01  0.80091802291E+01  0.00000000000E+00 0.  1.
         23    2    1    2    0    0 -0.16134755639E+02  0.96048084129E+00  0.32439995851E+03  0.33659805555E+03  0.88327034685E+02 0.  0.
         11    1    3    3    0    0 -0.35651193365E+02  0.12642083388E+02  0.30305246888E+03  0.30540404182E+03  0.00000000000E+00 0. -1.
        -11    1    3    3    0    0  0.19516437726E+02 -0.11681602546E+02  0.21347489627E+02  0.31194013736E+02  0.00000000000E+00 0.  1.
         22    1    1    2    0    0  0.16134755639E+02 -0.96048084129E+00  0.32282911336E+02  0.36103174754E+02  0.00000000000E+00 0.  1.
<mgrwt>
<rscale>  0 0.58488061E+02</rscale>
<asrwt>0</asrwt>
<pdfrwt beam="1">  1        1 0.56106456E-01 0.89793752E+02</pdfrwt>
<pdfrwt beam="2">  1       -1 0.12321819E-02 0.89793752E+02</pdfrwt>
<totfact> 0.81956378E+04</totfact>
</mgrwt>
</event>
<event>
 6    1  0.2995420E-002  0.9188862E+02  0.7546771E-02  0.1417248E+00
          2   -1    0    0  501    0  0.00000000000E+00  0.00000000000E+00  0.12894718407E+04  0.12894718407E+04  0.00000000000E+00 0. -1.
         -2   -1    0    0    0  501 -0.00000000000E+00 -0.00000000000E+00 -0.22504667096E+01  0.22504667096E+01  0.00000000000E+00 0.  1.
         23    2    1    2    0    0  0.10246507626E+02 -0.68472105917E+01  0.12138622067E+04  0.12173351940E+04  0.91058456820E+02 0.  0.
         13    1    3    3    0    0 -0.32934395502E+02  0.19996890290E+02  0.38769057894E+03  0.38960048130E+03  0.00000000000E+00 0.  1.
        -13    1    3    3    0    0  0.43180903128E+02 -0.26844100882E+02  0.82617162771E+03  0.82773471268E+03  0.00000000000E+00 0. -1.
         22    1    1    2    0    0 -0.10246507626E+02  0.68472105917E+01  0.73359167318E+02  0.74387113407E+02  0.00000000000E+00 0.  1.
<mgrwt>
<rscale>  0 0.55607343E+02</rscale>
<asrwt>0</asrwt>
<pdfrwt beam="1">  1        2 0.19837969E+00 0.91888616E+02</pdfrwt>
<pdfrwt beam="2">  1       -2 0.34622668E-03 0.91888616E+02</pdfrwt>
<totfact> 0.15476692E+05</totfact>
</mgrwt>
</event>
<event>
 6    1  0.2995420E-002  0.9548255E+02  0.7546771E-02  0.1362700E+00
         -2   -1    0    0    0  501 -0.00000000000E+00  0.00000000000E+00  0.12617359598E+02  0.12617359598E+02  0.00000000000E+00 0.  1.
          2   -1    0    0  501    0  0.00000000000E+00 -0.00000000000E+00 -0.35390047539E+03  0.35390047539E+03  0.00000000000E+00 0. -1.
         23    2    1    2    0    0  0.26141603339E+02 -0.36984252577E+01 -0.31543401143E+03  0.32956870819E+03  0.91759773755E+02 0.  0.
         11    1    3    3    0    0  0.53978291208E+02  0.19482014536E+02 -0.16032768822E+03  0.17028849762E+03  0.00000000000E+00 0. -1.
        -11    1    3    3    0    0 -0.27836687869E+02 -0.23180439794E+02 -0.15510632321E+03  0.15928021057E+03  0.00000000000E+00 0.  1.
         22    1    1    2    0    0 -0.26141603339E+02  0.36984252577E+01 -0.25849104363E+02  0.36949126794E+02  0.00000000000E+00 0.  1.
<mgrwt>
<rscale>  0 0.69239181E+02</rscale>
<asrwt>0</asrwt>
<pdfrwt beam="1">  1        2 0.54446224E-01 0.95482553E+02</pdfrwt>
<pdfrwt beam="2">  1       -2 0.19411323E-02 0.95482553E+02</pdfrwt>
<totfact> 0.64696482E+04</totfact>
</mgrwt>
</event>
<event>
 6    1  0.2995420E-002  0.9151980E+02  0.7546771E-02  0.1428340E+00
          2   -1    0    0  501    0  0.00000000000E+00  0.00000000000E+00  0.75050603866E+03  0.75050603866E+03  0.00000000000E+00 0. -1.
         -2   -1    0    0    0  501 -0.00000000000E+00 -0.00000000000E+00 -0.36949547812E+01  0.36949547812E+01  0.00000000000E+00 0.  1.
         23    2    1    2    0    0  0.64150964828E+01 -0.83429745029E+01  0.71129023103E+03  0.71715386570E+03  0.90912681458E+02 0.  0.
         11    1    3    3    0    0 -0.85609975110E+01 -0.10590663002E+02  0.69414366180E+03  0.69427723284E+03  0.00000000000E+00 0. -1.
        -11    1    3    3    0    0  0.14976093994E+02  0.22476884986E+01  0.17146569228E+02  0.22876632864E+02  0.00000000000E+00 0.  1.
         22    1    1    2    0    0 -0.64150964828E+01  0.83429745029E+01  0.35520852851E+02  0.37047127739E+02  0.00000000000E+00 0. -1.
<mgrwt>
<rscale>  0 0.53294640E+02</rscale>
<asrwt>0</asrwt>
<pdfrwt beam="1">  1        2 0.11546235E+00 0.91519803E+02</pdfrwt>
<pdfrwt beam="2">  1       -2 0.56845518E-03 0.91519803E+02</pdfrwt>
<totfact> 0.16083945E+05</totfact>
</mgrwt>
</event>
<event>
 6    1  0.2995420E-002  0.9899726E+02  0.7546771E-02  0.1336756E+00
          4   -1    0    0  501    0  0.00000000000E+00  0.00000000000E+00  0.60180662020E+02  0.60180662020E+02  0.00000000000E+00 0. -1.
         -4   -1    0    0    0  501 -0.00000000000E+00 -0.00000000000E+00 -0.77695688555E+02  0.77695688555E+02  0.00000000000E+00 0.  1.
         23    2    1    2    0    0  0.17023953480E+02 -0.32724679830E+02 -0.19642471776E+02  0.10092711939E+03  0.91868041605E+02 0.  0.
         13    1    3    3    0    0  0.15031995451E+02 -0.21660736638E+02 -0.56523773330E+02  0.62370548742E+02  0.00000000000E+00 0.  1.
        -13    1    3    3    0    0  0.19919580292E+01 -0.11063943192E+02  0.36881301553E+02  0.38556570646E+02  0.00000000000E+00 0. -1.
         22    1    1    2    0    0 -0.17023953480E+02  0.32724679830E+02  0.21274452418E+01  0.36949231187E+02  0.00000000000E+00 0. -1.
<mgrwt>
<rscale>  0 0.77346105E+02</rscale>
<asrwt>0</asrwt>
<pdfrwt beam="1">  1        4 0.92585635E-02 0.98997256E+02</pdfrwt>
<pdfrwt beam="2">  1       -4 0.11953183E-01 0.98997256E+02</pdfrwt>
<totfact> 0.72335558E+03</totfact>
</mgrwt>
</event>
<event>
 6    1  0.2995420E-002  0.9195169E+02  0.7546771E-02  0.1401612E+00
          2   -1    0    0  501    0  0.00000000000E+00  0.00000000000E+00  0.25502445610E+03  0.25502445610E+03  0.00000000000E+00 0. -1.
         -2   -1    0    0    0  501 -0.00000000000E+00 -0.00000000000E+00 -0.20431612322E+02  0.20431612322E+02  0.00000000000E+00 0.  1.
         23    2    1    2    0    0 -0.95789317723E+01  0.12440094579E+02  0.24141764758E+03  0.25833620178E+03  0.90601328332E+02 0.  0.
         11    1    3    3    0    0 -0.20244752383E+02  0.49285243192E+02  0.15073419306E+03  0.15987395708E+03  0.00000000000E+00 0. -1.
        -11    1    3    3    0    0  0.10665820611E+02 -0.36845148613E+02  0.90683454523E+02  0.98462244692E+02  0.00000000000E+00 0.  1.
         22    1    1    2    0    0  0.95789317723E+01 -0.12440094579E+02 -0.68248038057E+01  0.17119866647E+02  0.00000000000E+00 0.  1.
<mgrwt>
<rscale>  0 0.59108441E+02</rscale>
<asrwt>0</asrwt>
<pdfrwt beam="1">  1        2 0.39234530E-01 0.91951686E+02</pdfrwt>
<pdfrwt beam="2">  1       -2 0.31433251E-02 0.91951686E+02</pdfrwt>
<totfact> 0.45181352E+04</totfact>
</mgrwt>
</event>
<event>
 6    1  0.2995420E-002  0.9278338E+02  0.7546771E-02  0.1423166E+00
          2   -1    0    0  501    0  0.00000000000E+00  0.00000000000E+00  0.25085952550E+03  0.25085952550E+03  0.00000000000E+00 0. -1.
         -2   -1    0    0    0  501 -0.00000000000E+00 -0.00000000000E+00 -0.11096245108E+02  0.11096245108E+02  0.00000000000E+00 0.  1.
         23    2    1    2    0    0  0.10910502394E+02 -0.64417444692E+00  0.19605372032E+03  0.21690047497E+03  0.92137401569E+02 0.  0.
         11    1    3    3    0    0 -0.40133156018E+01  0.35858768642E+02  0.32177865601E+02  0.48346385855E+02  0.00000000000E+00 0.  1.
        -11    1    3    3    0    0  0.14923817996E+02 -0.36502943088E+02  0.16387585472E+03  0.16855408912E+03  0.00000000000E+00 0. -1.
         22    1    1    2    0    0 -0.10910502394E+02  0.64417444692E+00  0.43709560069E+02  0.45055295634E+02  0.00000000000E+00 0. -1.
<mgrwt>
<rscale>  0 0.54356655E+02</rscale>
<asrwt>0</asrwt>
<pdfrwt beam="1">  1        2 0.38593769E-01 0.92783376E+02</pdfrwt>
<pdfrwt beam="2">  1       -2 0.17071148E-02 0.92783376E+02</pdfrwt>
<totfact> 0.11108896E+05</totfact>
</mgrwt>
</event>
<event>
 6    1  0.2995420E-002  0.9708476E+02  0.7546771E-02  0.1401577E+00
         -2   -1    0    0    0  501 -0.00000000000E+00  0.00000000000E+00  0.99100262637E+01  0.99100262637E+01  0.00000000000E+00 0.  1.
          2   -1    0    0  501    0  0.00000000000E+00 -0.00000000000E+00 -0.32826840189E+03  0.32826840189E+03  0.00000000000E+00 0. -1.
         23    2    1    2    0    0  0.81938372985E+01 -0.10535792075E+02 -0.30107755080E+03  0.31634339229E+03  0.96162926162E+02 0.  0.
         11    1    3    3    0    0  0.43858059404E+01  0.24133709263E+02 -0.26510911495E+03  0.26624145817E+03  0.00000000000E+00 0. -1.
        -11    1    3    3    0    0  0.38080313581E+01 -0.34669501338E+02 -0.35968435847E+02  0.50101934126E+02  0.00000000000E+00 0.  1.
         22    1    1    2    0    0 -0.81938372985E+01  0.10535792075E+02 -0.17280824828E+02  0.21835035861E+02  0.00000000000E+00 0.  1.
<mgrwt>
<rscale>  0 0.59116545E+02</rscale>
<asrwt>0</asrwt>
<pdfrwt beam="1">  1        2 0.50502829E-01 0.97084758E+02</pdfrwt>
<pdfrwt beam="2">  1       -2 0.15246195E-02 0.97084758E+02</pdfrwt>
<totfact> 0.99190723E+04</totfact>
</mgrwt>
</event>
<event>
 6    1  0.2995420E-002  0.8898682E+02  0.7546771E-02  0.1428236E+00
          2   -1    0    0  501    0  0.00000000000E+00  0.00000000000E+00  0.49633927391E+02  0.49633927391E+02  0.00000000000E+00 0. -1.
         -2   -1    0    0    0  501 -0.00000000000E+00 -0.00000000000E+00 -0.61977273362E+02  0.61977273362E+02  0.00000000000E+00 0.  1.
         23    2    1    2    0    0 -0.92291448857E+01 -0.68053704888E+01  0.68534653541E+01  0.89250347732E+02  0.88244911468E+02 0.  0.
         13    1    3    3    0    0 -0.33510351041E+02  0.22794122820E+02 -0.17210743375E+02  0.44030958989E+02  0.00000000000E+00 0.  1.
        -13    1    3    3    0    0  0.24281206155E+02 -0.29599493309E+02  0.24064208729E+02  0.45219388742E+02  0.00000000000E+00 0. -1.
         22    1    1    2    0    0  0.92291448857E+01  0.68053704888E+01 -0.19196811325E+02  0.22360853022E+02  0.00000000000E+00 0.  1.
<mgrwt>
<rscale>  0 0.53315801E+02</rscale>
<asrwt>0</asrwt>
<pdfrwt beam="1">  1        2 0.76359889E-02 0.88986823E+02</pdfrwt>
<pdfrwt beam="2">  1       -2 0.95349651E-02 0.88986823E+02</pdfrwt>
<totfact> 0.55239177E+04</totfact>
</mgrwt>
</event>
<event>
 6    1  0.2995420E-002  0.8362435E+02  0.7546771E-02  0.1441001E+00
          1   -1    0    0  501    0  0.00000000000E+00  0.00000000000E+00  0.30632207320E+03  0.30632207320E+03  0.00000000000E+00 0. -1.
         -1   -1    0    0    0  501 -0.00000000000E+00 -0.00000000000E+00 -0.81103300952E+01  0.81103300952E+01  0.00000000000E+00 0.  1.
         23    2    1    2    0    0 -0.65631405993E+01 -0.93218932654E+01  0.28483344542E+03  0.29685539111E+03  0.82843582067E+02 0.  0.
         13    1    3    3    0    0 -0.14967343262E+02 -0.44735059927E+02  0.16609776311E+03  0.17266648158E+03  0.00000000000E+00 0. -1.
        -13    1    3    3    0    0  0.84042026632E+01  0.35413166662E+02  0.11873568231E+03  0.12418890953E+03  0.00000000000E+00 0.  1.
         22    1    1    2    0    0  0.65631405993E+01  0.93218932654E+01  0.13378297683E+02  0.17577012188E+02  0.00000000000E+00 0.  1.
<mgrwt>
<rscale>  0 0.50813721E+02</rscale>
<asrwt>0</asrwt>
<pdfrwt beam="1">  1        1 0.47126464E-01 0.83624348E+02</pdfrwt>
<pdfrwt beam="2">  1       -1 0.12477433E-02 0.83624348E+02</pdfrwt>
<totfact> 0.98624795E+04</totfact>
</mgrwt>
</event>
<event>
 6    1  0.2995420E-002  0.9203761E+02  0.7546771E-02  0.1390857E+00
         -2   -1    0    0    0  501 -0.00000000000E+00  0.00000000000E+00  0.40291353803E+01  0.40291353803E+01  0.00000000000E+00 0.  1.
          2   -1    0    0  501    0  0.00000000000E+00 -0.00000000000E+00 -0.18555046052E+04  0.18555046052E+04  0.00000000000E+00 0. -1.
         23    2    1    2    0    0 -0.10524818207E+02 -0.15313091293E+02 -0.18242588695E+04  0.18265791370E+04  0.90142433103E+02 0.  0.
         13    1    3    3    0    0 -0.39163238967E+02 -0.14712551665E+02 -0.15935153487E+04  0.15940644231E+04  0.00000000000E+00 0. -1.
        -13    1    3    3    0    0  0.28638420760E+02 -0.60053962763E+00 -0.23074352080E+03  0.23251471390E+03  0.00000000000E+00 0.  1.
         22    1    1    2    0    0  0.10524818207E+02  0.15313091293E+02 -0.27216600292E+02  0.32954603543E+02  0.00000000000E+00 0.  1.
<mgrwt>
<rscale>  0 0.61693963E+02</rscale>
<asrwt>0</asrwt>
<pdfrwt beam="1">  1        2 0.28546279E+00 0.92037605E+02</pdfrwt>
<pdfrwt beam="2">  1       -2 0.61986580E-03 0.92037605E+02</pdfrwt>
<totfact> 0.35215598E+04</totfact>
</mgrwt>
</event>
<event>
 6    1  0.2995420E-002  0.1170901E+03  0.7546771E-02  0.1273422E+00
         -2   -1    0    0    0  501 -0.00000000000E+00  0.00000000000E+00  0.20381693418E+02  0.20381693418E+02  0.00000000000E+00 0.  1.
          2   -1    0    0  501    0  0.00000000000E+00 -0.00000000000E+00 -0.57296058921E+03  0.57296058921E+03  0.00000000000E+00 0. -1.
         23    2    1    2    0    0  0.70503602556E+02  0.87612451269E+01 -0.47019660945E+03  0.48455644489E+03  0.93072978661E+02 0.  0.
         11    1    3    3    0    0  0.13122200996E+02  0.14962682475E+02 -0.13090095098E+02  0.23820676219E+02  0.00000000000E+00 0.  1.
        -11    1    3    3    0    0  0.57381401559E+02 -0.62014373485E+01 -0.45710651435E+03  0.46073576867E+03  0.00000000000E+00 0. -1.
         22    1    1    2    0    0 -0.70503602556E+02 -0.87612451269E+01 -0.82382286343E+02  0.10878583774E+03  0.00000000000E+00 0.  1.
<mgrwt>
<rscale>  0 0.10334154E+03</rscale>
<asrwt>0</asrwt>
<pdfrwt beam="1">  1        2 0.88147770E-01 0.11709012E+03</pdfrwt>
<pdfrwt beam="2">  1       -2 0.31356456E-02 0.11709012E+03</pdfrwt>
<totfact> 0.19652269E+04</totfact>
</mgrwt>
</event>
<event>
 6    1  0.2995420E-002  0.9214834E+02  0.7546771E-02  0.1386544E+00
         -2   -1    0    0    0  501 -0.00000000000E+00  0.00000000000E+00  0.45923181318E+01  0.45923181318E+01  0.00000000000E+00 0.  1.
          2   -1    0    0  501    0  0.00000000000E+00 -0.00000000000E+00 -0.13590763807E+04  0.13590763807E+04  0.00000000000E+00 0. -1.
         23    2    1    2    0    0  0.13844039912E+02 -0.14219915585E+02 -0.13245613913E+04  0.13277628540E+04  0.89985851968E+02 0.  0.
         11    1    3    3    0    0  0.59638072830E+01  0.10292850320E+02 -0.12206816335E+04  0.12207395955E+04  0.00000000000E+00 0. -1.
        -11    1    3    3    0    0  0.78802326293E+01 -0.24512765905E+02 -0.10387975786E+03  0.10702325846E+03  0.00000000000E+00 0.  1.
         22    1    1    2    0    0 -0.13844039912E+02  0.14219915585E+02 -0.29922671197E+02  0.35905844815E+02  0.00000000000E+00 0.  1.
<mgrwt>
<rscale>  0 0.62774586E+02</rscale>
<asrwt>0</asrwt>
<pdfrwt beam="1">  1        2 0.20908870E+00 0.92148342E+02</pdfrwt>
<pdfrwt beam="2">  1       -2 0.70651040E-03 0.92148342E+02</pdfrwt>
<totfact> 0.52361490E+04</totfact>
</mgrwt>
</event>
<event>
 6    1  0.2995420E-002  0.9243025E+02  0.7546771E-02  0.1381060E+00
         -2   -1    0    0    0  501 -0.00000000000E+00  0.00000000000E+00  0.81357685056E+01  0.81357685056E+01  0.00000000000E+00 0.  1.
          2   -1    0    0  501    0  0.00000000000E+00 -0.00000000000E+00 -0.49251951903E+03  0.49251951903E+03  0.00000000000E+00 0. -1.
         23    2    1    2    0    0 -0.87427450965E+01 -0.19635475203E+02 -0.45474342160E+03  0.46404194875E+03  0.89896402782E+02 0.  0.
         11    1    3    3    0    0 -0.21943095867E+02 -0.94764081804E+01 -0.44304049606E+03  0.44368477877E+03  0.00000000000E+00 0. -1.
        -11    1    3    3    0    0  0.13200350771E+02 -0.10159067022E+02 -0.11702925544E+02  0.20357169979E+02  0.00000000000E+00 0.  1.
         22    1    1    2    0    0  0.87427450965E+01  0.19635475203E+02 -0.29640328923E+02  0.36613338784E+02  0.00000000000E+00 0.  1.
<mgrwt>
<rscale>  0 0.64185860E+02</rscale>
<asrwt>0</asrwt>
<pdfrwt beam="1">  1        2 0.75772229E-01 0.92430248E+02</pdfrwt>
<pdfrwt beam="2">  1       -2 0.12516568E-02 0.92430248E+02</pdfrwt>
<totfact> 0.84948137E+04</totfact>
</mgrwt>
</event>
<event>
 6    1  0.2995420E-002  0.9315451E+02  0.7546771E-02  0.1408101E+00
          4   -1    0    0  501    0  0.00000000000E+00  0.00000000000E+00  0.54932909248E+03  0.54932909248E+03  0.00000000000E+00 0. -1.
         -4   -1    0    0    0  501 -0.00000000000E+00 -0.00000000000E+00 -0.51945390154E+01  0.51945390154E+01  0.00000000000E+00 0.  1.
         23    2    1    2    0    0 -0.11050618567E+02  0.79883742107E+01  0.47993705912E+03  0.48889399967E+03  0.92151136208E+02 0.  0.
         11    1    3    3    0    0 -0.27128305522E+01 -0.42003976933E+02  0.23989426447E+03  0.24355892850E+03  0.00000000000E+00 0. -1.
        -11    1    3    3    0    0 -0.83377880149E+01  0.49992351144E+02  0.24004279465E+03  0.24533507117E+03  0.00000000000E+00 0.  1.
         22    1    1    2    0    0  0.11050618567E+02 -0.79883742107E+01  0.64197494338E+02  0.65629631818E+02  0.00000000000E+00 0. -1.
<mgrwt>
<rscale>  0 0.57619790E+02</rscale>
<asrwt>0</asrwt>
<pdfrwt beam="1">  1        4 0.84512122E-01 0.93154507E+02</pdfrwt>
<pdfrwt beam="2">  1       -4 0.79916028E-03 0.93154507E+02</pdfrwt>
<totfact> 0.76476419E+03</totfact>
</mgrwt>
</event>
<event>
 6    1  0.2995420E-002  0.1053292E+03  0.7546771E-02  0.1306822E+00
         -2   -1    0    0    0  501 -0.00000000000E+00  0.00000000000E+00  0.14021342573E+03  0.14021342573E+03  0.00000000000E+00 0.  1.
          2   -1    0    0  501    0  0.00000000000E+00 -0.00000000000E+00 -0.44601928138E+02  0.44601928138E+02  0.00000000000E+00 0. -1.
         23    2    1    2    0    0  0.39998222918E+02 -0.33560620294E+02  0.56099304795E+02  0.11933721667E+03  0.91477134923E+02 0.  0.
         13    1    3    3    0    0  0.40600604154E+02 -0.88957557684E+01  0.76671993970E+02  0.87213176686E+02  0.00000000000E+00 0.  1.
        -13    1    3    3    0    0 -0.60238123600E+00 -0.24664864525E+02 -0.20572689175E+02  0.32124039987E+02  0.00000000000E+00 0. -1.
         22    1    1    2    0    0 -0.39998222918E+02  0.33560620294E+02  0.39512192801E+02  0.65478137199E+02  0.00000000000E+00 0.  1.
<mgrwt>
<rscale>  0 0.88380357E+02</rscale>
<asrwt>0</asrwt>
<pdfrwt beam="1">  1        2 0.68618352E-02 0.10532919E+03</pdfrwt>
<pdfrwt beam="2">  1       -2 0.21571296E-01 0.10532919E+03</pdfrwt>
<totfact> 0.17247681E+04</totfact>
</mgrwt>
</event>
<event>
 6    1  0.2995420E-002  0.8284809E+02  0.7546771E-02  0.1419543E+00
          2   -1    0    0  501    0  0.00000000000E+00  0.00000000000E+00  0.43070983770E+02  0.43070983770E+02  0.00000000000E+00 0. -1.
         -2   -1    0    0    0  501 -0.00000000000E+00 -0.00000000000E+00 -0.66623280112E+02  0.66623280112E+02  0.00000000000E+00 0.  1.
         23    2    1    2    0    0 -0.70113759706E+01 -0.14637345775E+02 -0.22044154758E+01  0.82877416531E+02  0.81242817769E+02 0.  0.
         13    1    3    3    0    0  0.31921203859E+02 -0.34351945760E+01  0.18840350688E+02  0.37225295589E+02  0.00000000000E+00 0. -1.
        -13    1    3    3    0    0 -0.38932579830E+02 -0.11202151199E+02 -0.21044766164E+02  0.45652120943E+02  0.00000000000E+00 0.  1.
         22    1    1    2    0    0  0.70113759706E+01  0.14637345775E+02 -0.21347880866E+02  0.26816847350E+02  0.00000000000E+00 0.  1.
<mgrwt>
<rscale>  0 0.55117713E+02</rscale>
<asrwt>0</asrwt>
<pdfrwt beam="1">  1        2 0.66263052E-02 0.82848094E+02</pdfrwt>
<pdfrwt beam="2">  1       -2 0.10249735E-01 0.82848094E+02</pdfrwt>
<totfact> 0.58343691E+04</totfact>
</mgrwt>
</event>
<event>
 6    1  0.2995420E-002  0.9148625E+02  0.7546771E-02  0.1383530E+00
          2   -1    0    0  501    0  0.00000000000E+00  0.00000000000E+00  0.26172489732E+03  0.26172489732E+03  0.00000000000E+00 0. -1.
         -2   -1    0    0    0  501 -0.00000000000E+00 -0.00000000000E+00 -0.15795523497E+02  0.15795523497E+02  0.00000000000E+00 0.  1.
         23    2    1    2    0    0 -0.12356999460E+02 -0.17341650751E+02  0.23768914615E+03  0.25468777668E+03  0.88973620269E+02 0.  0.
         11    1    3    3    0    0  0.38025282662E+02 -0.12226522410E+01  0.11333859756E+03  0.11955356413E+03  0.00000000000E+00 0.  1.
        -11    1    3    3    0    0 -0.50382282122E+02 -0.16118998510E+02  0.12435054860E+03  0.13513421255E+03  0.00000000000E+00 0. -1.
         22    1    1    2    0    0  0.12356999460E+02  0.17341650751E+02  0.82402276732E+01  0.22832644142E+02  0.00000000000E+00 0.  1.
<mgrwt>
<rscale>  0 0.63544861E+02</rscale>
<asrwt>0</asrwt>
<pdfrwt beam="1">  1        2 0.40265366E-01 0.91486247E+02</pdfrwt>
<pdfrwt beam="2">  1       -2 0.24300807E-02 0.91486247E+02</pdfrwt>
<totfact> 0.63822058E+04</totfact>
</mgrwt>
</event>
<event>
 6    1  0.2995420E-002  0.8243926E+02  0.7546771E-02  0.1433399E+00
          1   -1    0    0  501    0  0.00000000000E+00  0.00000000000E+00  0.72967938985E+02  0.72967938985E+02  0.00000000000E+00 0. -1.
         -1   -1    0    0    0  501 -0.00000000000E+00 -0.00000000000E+00 -0.32473798642E+02  0.32473798642E+02  0.00000000000E+00 0.  1.
         23    2    1    2    0    0  0.11084187886E+02 -0.74174961113E+01  0.41047723307E+02  0.92093145051E+02  0.81353262425E+02 0.  0.
         13    1    3    3    0    0  0.45377335398E+02  0.45418098213E+01  0.17707255246E+02  0.48921135439E+02  0.00000000000E+00 0.  1.
        -13    1    3    3    0    0 -0.34293147512E+02 -0.11959305933E+02  0.23340468061E+02  0.43172009613E+02  0.00000000000E+00 0. -1.
         22    1    1    2    0    0 -0.11084187886E+02  0.74174961113E+01 -0.55358296461E+00  0.13348592576E+02  0.00000000000E+00 0. -1.
<mgrwt>
<rscale>  0 0.52283661E+02</rscale>
<asrwt>0</asrwt>
<pdfrwt beam="1">  1        1 0.11225837E-01 0.82439261E+02</pdfrwt>
<pdfrwt beam="2">  1       -1 0.49959690E-02 0.82439261E+02</pdfrwt>
<totfact> 0.80704130E+04</totfact>
</mgrwt>
</event>
<event>
 6    1  0.2995420E-002  0.9293012E+02  0.7546771E-02  0.1391696E+00
         -2   -1    0    0    0  501 -0.00000000000E+00  0.00000000000E+00  0.19380225730E+01  0.19380225730E+01  0.00000000000E+00 0.  1.
          2   -1    0    0  501    0  0.00000000000E+00 -0.00000000000E+00 -0.25312465529E+04  0.25312465529E+04  0.00000000000E+00 0. -1.
         23    2    1    2    0    0 -0.17269087633E+02  0.43555879861E+01 -0.24554933041E+04  0.24572511825E+04  0.91207539404E+02 0.  0.
         11    1    3    3    0    0 -0.34203988889E+02 -0.94077240882E+01 -0.22957644930E+04  0.22960385505E+04  0.00000000000E+00 0. -1.
        -11    1    3    3    0    0  0.16934901256E+02  0.13763312074E+02 -0.15972881103E+03  0.16121263199E+03  0.00000000000E+00 0.  1.
         22    1    1    2    0    0  0.17269087633E+02 -0.43555879861E+01 -0.73815226249E+02  0.75933392921E+02  0.00000000000E+00 0.  1.
<mgrwt>
<rscale>  0 0.61486922E+02</rscale>
<asrwt>0</asrwt>
<pdfrwt beam="1">  1        2 0.38942166E+00 0.92930123E+02</pdfrwt>
<pdfrwt beam="2">  1       -2 0.29815800E-03 0.92930123E+02</pdfrwt>
<totfact> 0.44330159E+04</totfact>
</mgrwt>
</event>
<event>
 6    1  0.2995420E-002  0.1053919E+03  0.7546771E-02  0.1303759E+00
         -1   -1    0    0    0  501 -0.00000000000E+00  0.00000000000E+00  0.16007311059E+03  0.16007311059E+03  0.00000000000E+00 0.  1.
          1   -1    0    0  501    0  0.00000000000E+00 -0.00000000000E+00 -0.46288730268E+02  0.46288730268E+02  0.00000000000E+00 0. -1.
         23    2    1    2    0    0 -0.25542576272E+02  0.48846265438E+02  0.36704225333E+02  0.11160039752E+03  0.89827989626E+02 0.  0.
         13    1    3    3    0    0  0.94494233774E+01 -0.93597407546E+01  0.41438942615E+02  0.43521055986E+02  0.00000000000E+00 0.  1.
        -13    1    3    3    0    0 -0.34991999649E+02  0.58206006193E+02 -0.47347172817E+01  0.68079341537E+02  0.00000000000E+00 0. -1.
         22    1    1    2    0    0  0.25542576272E+02 -0.48846265438E+02  0.77080154991E+02  0.94761443337E+02  0.00000000000E+00 0.  1.
<mgrwt>
<rscale>  0 0.89626336E+02</rscale>
<asrwt>0</asrwt>
<pdfrwt beam="1">  1        1 0.71213432E-02 0.10539188E+03</pdfrwt>
<pdfrwt beam="2">  1       -1 0.24626632E-01 0.10539188E+03</pdfrwt>
<totfact> 0.13268527E+04</totfact>
</mgrwt>
</event>
<event>
 6    1  0.2995420E-002  0.9938906E+02  0.7546771E-02  0.1398372E+00
         -2   -1    0    0    0  501 -0.00000000000E+00  0.00000000000E+00  0.12658541024E+02  0.12658541024E+02  0.00000000000E+00 0.  1.
          2   -1    0    0  501    0  0.00000000000E+00 -0.00000000000E+00 -0.25587298411E+03  0.25587298411E+03  0.00000000000E+00 0. -1.
         23    2    1    2    0    0 -0.12853481537E+02  0.24649064311E+01 -0.22614818443E+03  0.24702466725E+03  0.98523586823E+02 0.  0.
         13    1    3    3    0    0 -0.51475582024E+02 -0.95332835411E+01 -0.16964727598E+03  0.17754102987E+03  0.00000000000E+00 0. -1.
        -13    1    3    3    0    0  0.38622100487E+02  0.11998189972E+02 -0.56500908448E+02  0.69483637384E+02  0.00000000000E+00 0.  1.
         22    1    1    2    0    0  0.12853481537E+02 -0.24649064311E+01 -0.17066258659E+02  0.21506857881E+02  0.00000000000E+00 0.  1.
<mgrwt>
<rscale>  0 0.59871442E+02</rscale>
<asrwt>0</asrwt>
<pdfrwt beam="1">  1        2 0.39365071E-01 0.99389058E+02</pdfrwt>
<pdfrwt beam="2">  1       -2 0.19474680E-02 0.99389058E+02</pdfrwt>
<totfact> 0.90979851E+04</totfact>
</mgrwt>
</event>
<event>
 6    1  0.2995420E-002  0.9162700E+02  0.7546771E-02  0.1413066E+00
         -2   -1    0    0    0  501 -0.00000000000E+00  0.00000000000E+00  0.53398315904E+01  0.53398315904E+01  0.00000000000E+00 0.  1.
          2   -1    0    0  501    0  0.00000000000E+00 -0.00000000000E+00 -0.53696915724E+03  0.53696915724E+03  0.00000000000E+00 0. -1.
         23    2    1    2    0    0  0.12543668559E+02 -0.43036421626E+01 -0.49363630675E+03  0.50206803405E+03  0.90662244142E+02 0.  0.
         11    1    3    3    0    0  0.28793373867E+02  0.23613244693E+02 -0.93683034227E+02  0.10081247247E+03  0.00000000000E+00 0.  1.
        -11    1    3    3    0    0 -0.16249705308E+02 -0.27916886855E+02 -0.39995327253E+03  0.40125556158E+03  0.00000000000E+00 0. -1.
         22    1    1    2    0    0 -0.12543668559E+02  0.43036421626E+01 -0.37993018894E+02  0.40240954778E+02  0.00000000000E+00 0. -1.
<mgrwt>
<rscale>  0 0.56515168E+02</rscale>
<asrwt>0</asrwt>
<pdfrwt beam="1">  1        2 0.82610678E-01 0.91627002E+02</pdfrwt>
<pdfrwt beam="2">  1       -2 0.82151217E-03 0.91627002E+02</pdfrwt>
<totfact> 0.14023365E+05</totfact>
</mgrwt>
</event>
<event>
 6    1  0.2995420E-002  0.9970573E+02  0.7546771E-02  0.1335207E+00
          2   -1    0    0  501    0  0.00000000000E+00  0.00000000000E+00  0.65189360966E+03  0.65189360966E+03  0.00000000000E+00 0. -1.
         -2   -1    0    0    0  501 -0.00000000000E+00 -0.00000000000E+00 -0.78704776773E+01  0.78704776773E+01  0.00000000000E+00 0.  1.
         23    2    1    2    0    0 -0.32657459625E+02  0.17594562031E+02  0.54447534899E+03  0.55352925604E+03  0.92548113707E+02 0.  0.
         11    1    3    3    0    0  0.26984034453E+02 -0.11355862681E+02  0.24856823242E+03  0.25028635580E+03  0.00000000000E+00 0.  1.
        -11    1    3    3    0    0 -0.59641494078E+02  0.28950424712E+02  0.29590711657E+03  0.30324290024E+03  0.00000000000E+00 0. -1.
         22    1    1    2    0    0  0.32657459625E+02 -0.17594562031E+02  0.99547782984E+02  0.10623483129E+03  0.00000000000E+00 0.  1.
<mgrwt>
<rscale>  0 0.77870052E+02</rscale>
<asrwt>0</asrwt>
<pdfrwt beam="1">  1        2 0.10029128E+00 0.99705725E+02</pdfrwt>
<pdfrwt beam="2">  1       -2 0.12108432E-02 0.99705725E+02</pdfrwt>
<totfact> 0.65899004E+04</totfact>
</mgrwt>
</event>
<event>
 6    1  0.2995420E-002  0.9568321E+02  0.7546771E-02  0.1360848E+00
         -2   -1    0    0    0  501 -0.00000000000E+00  0.00000000000E+00  0.23040258539E+03  0.23040258539E+03  0.00000000000E+00 0.  1.
          2   -1    0    0  501    0  0.00000000000E+00 -0.00000000000E+00 -0.21328809384E+02  0.21328809384E+02  0.00000000000E+00 0. -1.
         23    2    1    2    0    0  0.21219135428E+02  0.16797686717E+02  0.96290623223E+02  0.13574668225E+03  0.91776160489E+02 0.  0.
         11    1    3    3    0    0  0.15030151402E+02 -0.37441748207E+02  0.49397618062E+02  0.63780205630E+02  0.00000000000E+00 0.  1.
        -11    1    3    3    0    0  0.61889840253E+01  0.54239434924E+02  0.46893005161E+02  0.71966476621E+02  0.00000000000E+00 0. -1.
         22    1    1    2    0    0 -0.21219135428E+02 -0.16797686717E+02  0.11278315278E+03  0.11598471252E+03  0.00000000000E+00 0.  1.
<mgrwt>
<rscale>  0 0.69778463E+02</rscale>
<asrwt>0</asrwt>
<pdfrwt beam="1">  1        2 0.32813555E-02 0.95683215E+02</pdfrwt>
<pdfrwt beam="2">  1       -2 0.35446550E-01 0.95683215E+02</pdfrwt>
<totfact> 0.18486587E+04</totfact>
</mgrwt>
</event>
<event>
 6    1  0.2995420E-002  0.9512927E+02  0.7546771E-02  0.1394686E+00
          2   -1    0    0  501    0  0.00000000000E+00  0.00000000000E+00  0.18017685234E+04  0.18017685234E+04  0.00000000000E+00 0. -1.
         -2   -1    0    0    0  501 -0.00000000000E+00 -0.00000000000E+00 -0.36872968058E+01  0.36872968058E+01  0.00000000000E+00 0.  1.
         23    2    1    2    0    0 -0.15827170200E+02 -0.11183302108E+00  0.17745432977E+04  0.17770913015E+04  0.93803340588E+02 0.  0.
         13    1    3    3    0    0 -0.30510798233E+02  0.26139103792E+02  0.15525265631E+04  0.15530463260E+04  0.00000000000E+00 0. -1.
        -13    1    3    3    0    0  0.14683628033E+02 -0.26250936813E+02  0.22201673459E+03  0.22404497552E+03  0.00000000000E+00 0.  1.
         22    1    1    2    0    0  0.15827170200E+02  0.11183302108E+00  0.23537928849E+02  0.28364518640E+02  0.00000000000E+00 0.  1.
<mgrwt>
<rscale>  0 0.60755998E+02</rscale>
<asrwt>0</asrwt>
<pdfrwt beam="1">  1        2 0.27719446E+00 0.95129273E+02</pdfrwt>
<pdfrwt beam="2">  1       -2 0.56727787E-03 0.95129273E+02</pdfrwt>
<totfact> 0.42559272E+04</totfact>
</mgrwt>
</event>
<event>
 6    1  0.2995420E-002  0.9507879E+02  0.7546771E-02  0.1364219E+00
          1   -1    0    0  501    0  0.00000000000E+00  0.00000000000E+00  0.65389248227E+03  0.65389248227E+03  0.00000000000E+00 0. -1.
         -1   -1    0    0    0  501 -0.00000000000E+00 -0.00000000000E+00 -0.20487465994E+02  0.20487465994E+02  0.00000000000E+00 0.  1.
         23    2    1    2    0    0  0.21785421509E+02 -0.14317639717E+02  0.64037521436E+03  0.64739508104E+03  0.91435093916E+02 0.  0.
         13    1    3    3    0    0 -0.10774331510E+02 -0.45192491242E+02  0.41531156789E+03  0.41790207694E+03  0.00000000000E+00 0.  1.
        -13    1    3    3    0    0  0.32559753019E+02  0.30874851525E+02  0.22506364647E+03  0.22949300411E+03  0.00000000000E+00 0. -1.
         22    1    1    2    0    0 -0.21785421509E+02  0.14317639717E+02 -0.69701980846E+01  0.26984867217E+02  0.00000000000E+00 0.  1.
<mgrwt>
<rscale>  0 0.68800936E+02</rscale>
<asrwt>0</asrwt>
<pdfrwt beam="1">  1        1 0.10059883E+00 0.95078787E+02</pdfrwt>
<pdfrwt beam="2">  1       -1 0.31519183E-02 0.95078787E+02</pdfrwt>
<totfact> 0.10170968E+04</totfact>
</mgrwt>
</event>
<event>
 6    1  0.2995420E-002  0.9089726E+02  0.7546771E-02  0.1416795E+00
         -4   -1    0    0    0  501 -0.00000000000E+00  0.00000000000E+00  0.91086842353E+02  0.91086842353E+02  0.00000000000E+00 0.  1.
          4   -1    0    0  501    0  0.00000000000E+00 -0.00000000000E+00 -0.40982020468E+02  0.40982020468E+02  0.00000000000E+00 0. -1.
         23    2    1    2    0    0  0.36584663266E+01 -0.12287857445E+02  0.11781234376E+02  0.91657562717E+02  0.89988529843E+02 0.  0.
         13    1    3    3    0    0  0.34505436547E+02 -0.36750815205E+02 -0.51146674465E+00  0.50413382824E+02  0.00000000000E+00 0. -1.
        -13    1    3    3    0    0 -0.30846970221E+02  0.24462957760E+02  0.12292701120E+02  0.41244179892E+02  0.00000000000E+00 0.  1.
         22    1    1    2    0    0 -0.36584663266E+01  0.12287857445E+02  0.38323587510E+02  0.40411300104E+02  0.00000000000E+00 0.  1.
<mgrwt>
<rscale>  0 0.55704826E+02</rscale>
<asrwt>0</asrwt>
<pdfrwt beam="1">  1        4 0.63049262E-02 0.90897257E+02</pdfrwt>
<pdfrwt beam="2">  1       -4 0.14013360E-01 0.90897257E+02</pdfrwt>
<totfact> 0.10095383E+04</totfact>
</mgrwt>
</event>
<event>
 6    1  0.2995420E-002  0.1058030E+03  0.7546771E-02  0.1305010E+00
         -1   -1    0    0    0  501 -0.00000000000E+00  0.00000000000E+00  0.62036863088E+02  0.62036863088E+02  0.00000000000E+00 0.  1.
          1   -1    0    0  501    0  0.00000000000E+00 -0.00000000000E+00 -0.16608492596E+03  0.16608492596E+03  0.00000000000E+00 0. -1.
         23    2    1    2    0    0  0.23944256390E+02 -0.47560768698E+02 -0.13104149960E+03  0.16842254484E+03  0.91427156031E+02 0.  0.
         11    1    3    3    0    0  0.22849402268E+02 -0.64760789434E+02 -0.13433983876E+03  0.15087493930E+03  0.00000000000E+00 0. -1.
        -11    1    3    3    0    0  0.10948541220E+01  0.17200020736E+02  0.32983391587E+01  0.17547605537E+02  0.00000000000E+00 0.  1.
         22    1    1    2    0    0 -0.23944256390E+02  0.47560768698E+02  0.26993436725E+02  0.59699244212E+02  0.00000000000E+00 0.  1.
<mgrwt>
<rscale>  0 0.89114723E+02</rscale>
<asrwt>0</asrwt>
<pdfrwt beam="1">  1        1 0.25551527E-01 0.10580302E+03</pdfrwt>
<pdfrwt beam="2">  1       -1 0.95441327E-02 0.10580302E+03</pdfrwt>
<totfact> 0.11204869E+04</totfact>
</mgrwt>
</event>
<event>
 6    1  0.2995420E-002  0.9476612E+02  0.7546771E-02  0.1379899E+00
         -2   -1    0    0    0  501 -0.00000000000E+00  0.00000000000E+00  0.10886293785E+02  0.10886293785E+02  0.00000000000E+00 0.  1.
          2   -1    0    0  501    0  0.00000000000E+00 -0.00000000000E+00 -0.80114664356E+03  0.80114664356E+03  0.00000000000E+00 0. -1.
         23    2    1    2    0    0 -0.57857501183E+01  0.19483630468E+02 -0.78545091933E+03  0.79114711963E+03  0.92560960772E+02 0.  0.
         13    1    3    3    0    0 -0.54692961025E+01  0.52658452622E+01 -0.77041028244E+03  0.77044769168E+03  0.00000000000E+00 0. -1.
        -13    1    3    3    0    0 -0.31645401577E+00  0.14217785206E+02 -0.15040636890E+02  0.20699427948E+02  0.00000000000E+00 0.  1.
         22    1    1    2    0    0  0.57857501183E+01 -0.19483630468E+02 -0.48094304493E+01  0.20885817722E+02  0.00000000000E+00 0.  1.
<mgrwt>
<rscale>  0 0.64490389E+02</rscale>
<asrwt>0</asrwt>
<pdfrwt beam="1">  1        2 0.12325336E+00 0.94766124E+02</pdfrwt>
<pdfrwt beam="2">  1       -2 0.16748140E-02 0.94766124E+02</pdfrwt>
<totfact> 0.32307023E+04</totfact>
</mgrwt>
</event>
<event>
 6    1  0.2995420E-002  0.9425262E+02  0.7546771E-02  0.1395131E+00
          2   -1    0    0  501    0  0.00000000000E+00  0.00000000000E+00  0.11080933335E+03  0.11080933335E+03  0.00000000000E+00 0.  1.
         -2   -1    0    0    0  501 -0.00000000000E+00 -0.00000000000E+00 -0.29512937590E+02  0.29512937590E+02  0.00000000000E+00 0. -1.
         23    2    1    2    0    0  0.14520214443E+02  0.70889081031E+01  0.80816959422E+02  0.12415690349E+03  0.92857237243E+02 0.  0.
         11    1    3    3    0    0 -0.26218975030E+02 -0.19992568966E+02  0.64759001636E+02  0.72669565557E+02  0.00000000000E+00 0. -1.
        -11    1    3    3    0    0  0.40739189473E+02  0.27081477069E+02  0.16057957786E+02  0.51487337933E+02  0.00000000000E+00 0.  1.
         22    1    1    2    0    0 -0.14520214443E+02 -0.70889081031E+01  0.47943633780E+00  0.16165367449E+02  0.00000000000E+00 0. -1.
<mgrwt>
<rscale>  0 0.60648307E+02</rscale>
<asrwt>0</asrwt>
<pdfrwt beam="1">  1        2 0.17047590E-01 0.94252617E+02</pdfrwt>
<pdfrwt beam="2">  1       -2 0.45404520E-02 0.94252617E+02</pdfrwt>
<totfact> 0.65491744E+04</totfact>
</mgrwt>
</event>
<event>
 6    1  0.2995420E-002  0.9303982E+02  0.7546771E-02  0.1397408E+00
         -2   -1    0    0    0  501 -0.00000000000E+00  0.00000000000E+00  0.58669542478E+01  0.58669542478E+01  0.00000000000E+00 0.  1.
          2   -1    0    0  501    0  0.00000000000E+00 -0.00000000000E+00 -0.56168992174E+03  0.56168992174E+03  0.00000000000E+00 0. -1.
         23    2    1    2    0    0  0.12365484010E+02  0.10466193266E+02 -0.51976873456E+03  0.52803025068E+03  0.91618566927E+02 0.  0.
         13    1    3    3    0    0  0.34170483396E+02  0.18692357874E+02 -0.48253524364E+03  0.48410462457E+03  0.00000000000E+00 0. -1.
        -13    1    3    3    0    0 -0.21804999386E+02 -0.82261646075E+01 -0.37233490922E+02  0.43925626104E+02  0.00000000000E+00 0.  1.
         22    1    1    2    0    0 -0.12365484010E+02 -0.10466193266E+02 -0.36054232935E+02  0.39526625315E+02  0.00000000000E+00 0.  1.
<mgrwt>
<rscale>  0 0.60101004E+02</rscale>
<asrwt>0</asrwt>
<pdfrwt beam="1">  1        2 0.86413890E-01 0.93039821E+02</pdfrwt>
<pdfrwt beam="2">  1       -2 0.90260777E-03 0.93039821E+02</pdfrwt>
<totfact> 0.11711339E+05</totfact>
</mgrwt>
</event>
<event>
 6    1  0.2995420E-002  0.9818809E+02  0.7546771E-02  0.1401709E+00
         -2   -1    0    0    0  501 -0.00000000000E+00  0.00000000000E+00  0.40550206858E+01  0.40550206858E+01  0.00000000000E+00 0.  1.
          2   -1    0    0  501    0  0.00000000000E+00 -0.00000000000E+00 -0.95449884614E+03  0.95449884614E+03  0.00000000000E+00 0. -1.
         23    2    1    2    0    0 -0.11252886196E+02 -0.62566762235E+01 -0.92335495303E+03  0.92856086007E+03  0.97340269787E+02 0.  0.
         11    1    3    3    0    0  0.86483555001E+01  0.21369070296E+01 -0.55373897454E+01  0.10489190136E+02  0.00000000000E+00 0.  1.
        -11    1    3    3    0    0 -0.19901241696E+02 -0.83935832531E+01 -0.91781756328E+03  0.91807166993E+03  0.00000000000E+00 0. -1.
         22    1    1    2    0    0  0.11252886196E+02  0.62566762235E+01 -0.27088872427E+02  0.29993006759E+02  0.00000000000E+00 0.  1.
<mgrwt>
<rscale>  0 0.59085850E+02</rscale>
<asrwt>0</asrwt>
<pdfrwt beam="1">  1        2 0.14684606E+00 0.98188093E+02</pdfrwt>
<pdfrwt beam="2">  1       -2 0.62384898E-03 0.98188093E+02</pdfrwt>
<totfact> 0.10541672E+05</totfact>
</mgrwt>
</event>
<event>
 6    1  0.2995420E-002  0.9290387E+02  0.7546771E-02  0.1408135E+00
         -4   -1    0    0    0  501 -0.00000000000E+00  0.00000000000E+00  0.25707036672E+02  0.25707036672E+02  0.00000000000E+00 0.  1.
          4   -1    0    0  501    0  0.00000000000E+00 -0.00000000000E+00 -0.11112781576E+03  0.11112781576E+03  0.00000000000E+00 0. -1.
         23    2    1    2    0    0  0.13002348651E+02  0.44382226272E+01 -0.77436445485E+02  0.12094433722E+03  0.91882374402E+02 0.  0.
         11    1    3    3    0    0 -0.29321962061E+02 -0.23281248505E+02 -0.52650652103E+02  0.64605612433E+02  0.00000000000E+00 0. -1.
        -11    1    3    3    0    0  0.42324310712E+02  0.27719471132E+02 -0.24785793382E+02  0.56338724787E+02  0.00000000000E+00 0.  1.
         22    1    1    2    0    0 -0.13002348651E+02 -0.44382226272E+01 -0.79843335986E+01  0.15890515207E+02  0.00000000000E+00 0.  1.
<mgrwt>
<rscale>  0 0.57612111E+02</rscale>
<asrwt>0</asrwt>
<pdfrwt beam="1">  1        4 0.17096587E-01 0.92903873E+02</pdfrwt>
<pdfrwt beam="2">  1       -4 0.39549287E-02 0.92903873E+02</pdfrwt>
<totfact> 0.15131655E+04</totfact>
</mgrwt>
</event>
<event>
 6    1  0.2995420E-002  0.9115274E+02  0.7546771E-02  0.1431181E+00
          2   -1    0    0  501    0  0.00000000000E+00  0.00000000000E+00  0.25759821644E+04  0.25759821644E+04  0.00000000000E+00 0. -1.
         -2   -1    0    0    0  501 -0.00000000000E+00 -0.00000000000E+00 -0.13600305042E+01  0.13600305042E+01  0.00000000000E+00 0.  1.
         23    2    1    2    0    0  0.57989228263E+01  0.83944149073E+01  0.25268104889E+04  0.25284540868E+04  0.90579959252E+02 0.  0.
         13    1    3    3    0    0 -0.15483557961E+01 -0.21804302410E+02  0.22130704754E+04  0.22131784280E+04  0.00000000000E+00 0. -1.
        -13    1    3    3    0    0  0.73472786224E+01  0.30198717317E+02  0.31374001341E+03  0.31527565883E+03  0.00000000000E+00 0.  1.
         22    1    1    2    0    0 -0.57989228263E+01 -0.83944149073E+01  0.47811645071E+02  0.48888108084E+02  0.00000000000E+00 0. -1.
<mgrwt>
<rscale>  0 0.52723638E+02</rscale>
<asrwt>0</asrwt>
<pdfrwt beam="1">  1        2 0.39630104E+00 0.91152744E+02</pdfrwt>
<pdfrwt beam="2">  1       -2 0.20923752E-03 0.91152744E+02</pdfrwt>
<totfact> 0.68576550E+04</totfact>
</mgrwt>
</event>
<event>
 6    1  0.2995420E-002  0.9900597E+02  0.7546771E-02  0.1349030E+00
         -2   -1    0    0    0  501 -0.00000000000E+00  0.00000000000E+00  0.39949384566E+02  0.39949384566E+02  0.00000000000E+00 0.  1.
          2   -1    0    0  501    0  0.00000000000E+00 -0.00000000000E+00 -0.11388872395E+03  0.11388872395E+03  0.00000000000E+00 0. -1.
         23    2    1    2    0    0 -0.35511690912E+00  0.29839417605E+02 -0.74638709216E+02  0.12398838374E+03  0.94401617775E+02 0.  0.
         11    1    3    3    0    0 -0.12370269661E+02  0.41401208829E+02  0.41927637874E+01  0.43412704733E+02  0.00000000000E+00 0.  1.
        -11    1    3    3    0    0  0.12015152752E+02 -0.11561791224E+02 -0.78831473003E+02  0.80575679009E+02  0.00000000000E+00 0. -1.
         22    1    1    2    0    0  0.35511690912E+00 -0.29839417605E+02  0.69936982892E+00  0.29849724776E+02  0.00000000000E+00 0.  1.
<mgrwt>
<rscale>  0 0.73358648E+02</rscale>
<asrwt>0</asrwt>
<pdfrwt beam="1">  1        2 0.17521342E-01 0.99005971E+02</pdfrwt>
<pdfrwt beam="2">  1       -2 0.61460592E-02 0.99005971E+02</pdfrwt>
<totfact> 0.40665732E+04</totfact>
</mgrwt>
</event>
<event>
 6    1  0.2995420E-002  0.9515268E+02  0.7546771E-02  0.1407303E+00
         -2   -1    0    0    0  501 -0.00000000000E+00  0.00000000000E+00  0.22998604603E+02  0.22998604603E+02  0.00000000000E+00 0.  1.
          2   -1    0    0  501    0  0.00000000000E+00 -0.00000000000E+00 -0.18351854316E+03  0.18351854316E+03  0.00000000000E+00 0. -1.
         23    2    1    2    0    0 -0.11451979461E+02  0.60576407846E+01 -0.16686726737E+03  0.19209038692E+03  0.94266584640E+02 0.  0.
         11    1    3    3    0    0  0.19400245273E+02  0.41868731193E+02 -0.10074562649E+03  0.11081083622E+03  0.00000000000E+00 0. -1.
        -11    1    3    3    0    0 -0.30852224735E+02 -0.35811090408E+02 -0.66121640886E+02  0.81279550692E+02  0.00000000000E+00 0.  1.
         22    1    1    2    0    0  0.11451979461E+02 -0.60576407846E+01  0.63473288157E+01  0.14426760848E+02  0.00000000000E+00 0.  1.
<mgrwt>
<rscale>  0 0.57800103E+02</rscale>
<asrwt>0</asrwt>
<pdfrwt beam="1">  1        2 0.28233622E-01 0.95152676E+02</pdfrwt>
<pdfrwt beam="2">  1       -2 0.35382468E-02 0.95152676E+02</pdfrwt>
<totfact> 0.54153385E+04</totfact>
</mgrwt>
</event>
<event>
 6    1  0.2995420E-002  0.9613213E+02  0.7546771E-02  0.1418198E+00
         -4   -1    0    0    0  501 -0.00000000000E+00  0.00000000000E+00  0.95526524355E+02  0.95526524355E+02  0.00000000000E+00 0.  1.
          4   -1    0    0  501    0  0.00000000000E+00 -0.00000000000E+00 -0.47523505243E+02  0.47523505243E+02  0.00000000000E+00 0. -1.
         23    2    1    2    0    0  0.35162069705E+01 -0.10006270480E+02  0.23285768529E+01  0.96160330984E+02  0.95545265840E+02 0.  0.
         11    1    3    3    0    0 -0.86265972987E+01 -0.22330630098E+02 -0.42128678380E+02  0.48455141766E+02  0.00000000000E+00 0. -1.
        -11    1    3    3    0    0  0.12142804269E+02  0.12324359618E+02  0.44457255233E+02  0.47705189218E+02  0.00000000000E+00 0.  1.
         22    1    1    2    0    0 -0.35162069705E+01  0.10006270480E+02  0.45674442259E+02  0.46889698614E+02  0.00000000000E+00 0. -1.
<mgrwt>
<rscale>  0 0.55403891E+02</rscale>
<asrwt>0</asrwt>
<pdfrwt beam="1">  1        4 0.73113085E-02 0.96132133E+02</pdfrwt>
<pdfrwt beam="2">  1       -4 0.14696388E-01 0.96132133E+02</pdfrwt>
<totfact> 0.74303714E+03</totfact>
</mgrwt>
</event>
<event>
 6    1  0.2995420E-002  0.9206686E+02  0.7546771E-02  0.1406972E+00
          2   -1    0    0  501    0  0.00000000000E+00  0.00000000000E+00  0.13854788208E+04  0.13854788208E+04  0.00000000000E+00 0.  1.
         -2   -1    0    0    0  501 -0.00000000000E+00 -0.00000000000E+00 -0.35953742358E+01  0.35953742358E+01  0.00000000000E+00 0. -1.
         23    2    1    2    0    0 -0.38935112943E+01 -0.13839237265E+02  0.13585591236E+04  0.13616751446E+04  0.90937469922E+02 0.  0.
         13    1    3    3    0    0  0.22144363748E+01  0.37846716949E+02  0.43418451339E+03  0.43583651680E+03  0.00000000000E+00 0. -1.
        -13    1    3    3    0    0 -0.61079476690E+01 -0.51685954213E+02  0.92437461017E+03  0.92583862784E+03  0.00000000000E+00 0.  1.
         22    1    1    2    0    0  0.38935112943E+01  0.13839237265E+02  0.23324322995E+02  0.27399050375E+02  0.00000000000E+00 0. -1.
<mgrwt>
<rscale>  0 0.57874979E+02</rscale>
<asrwt>0</asrwt>
<pdfrwt beam="1">  1        2 0.21315016E+00 0.92066863E+02</pdfrwt>
<pdfrwt beam="2">  1       -2 0.55313561E-03 0.92066863E+02</pdfrwt>
<totfact> 0.71554230E+04</totfact>
</mgrwt>
</event>
<event>
 6    1  0.2995420E-002  0.1068513E+03  0.7546771E-02  0.1302434E+00
         -1   -1    0    0    0  501 -0.00000000000E+00  0.00000000000E+00  0.40791350002E+02  0.40791350002E+02  0.00000000000E+00 0.  1.
          1   -1    0    0  501    0  0.00000000000E+00 -0.00000000000E+00 -0.18654221654E+03  0.18654221654E+03  0.00000000000E+00 0. -1.
         23    2    1    2    0    0  0.52661241267E+02 -0.12801742867E+02 -0.13485285556E+03  0.17205375472E+03  0.92087517645E+02 0.  0.
         13    1    3    3    0    0  0.72660494994E+02 -0.29868931172E+02 -0.85345429892E+02  0.11599803009E+03  0.00000000000E+00 0.  1.
        -13    1    3    3    0    0 -0.19999253728E+02  0.17067188305E+02 -0.49507425671E+02  0.56055724622E+02  0.00000000000E+00 0. -1.
         22    1    1    2    0    0 -0.52661241267E+02  0.12801742867E+02 -0.10898010974E+02  0.55279811825E+02  0.00000000000E+00 0.  1.
<mgrwt>
<rscale>  0 0.90172592E+02</rscale>
<asrwt>0</asrwt>
<pdfrwt beam="1">  1        1 0.28698802E-01 0.10685131E+03</pdfrwt>
<pdfrwt beam="2">  1       -1 0.62755924E-02 0.10685131E+03</pdfrwt>
<totfact> 0.18188223E+04</totfact>
</mgrwt>
</event>
<event>
 6    1  0.2995420E-002  0.9304315E+02  0.7546771E-02  0.1405949E+00
          2   -1    0    0  501    0  0.00000000000E+00  0.00000000000E+00  0.28114804789E+04  0.28114804789E+04  0.00000000000E+00 0. -1.
         -2   -1    0    0    0  501 -0.00000000000E+00 -0.00000000000E+00 -0.17722318958E+01  0.17722318958E+01  0.00000000000E+00 0.  1.
         23    2    1    2    0    0 -0.90741632280E+01  0.10862737672E+02  0.27600192086E+04  0.27615870545E+04  0.91960252028E+02 0.  0.
         13    1    3    3    0    0 -0.37462536273E+01 -0.34752325001E+02  0.56071939905E+03  0.56180779897E+03  0.00000000000E+00 0.  1.
        -13    1    3    3    0    0 -0.53279096007E+01  0.45615062673E+02  0.21992998096E+04  0.21997792555E+04  0.00000000000E+00 0. -1.
         22    1    1    2    0    0  0.90741632280E+01 -0.10862737672E+02  0.49689038368E+02  0.51665656310E+02  0.00000000000E+00 0.  1.
<mgrwt>
<rscale>  0 0.58107759E+02</rscale>
<asrwt>0</asrwt>
<pdfrwt beam="1">  1        2 0.43253189E+00 0.93043148E+02</pdfrwt>
<pdfrwt beam="2">  1       -2 0.27265331E-03 0.93043148E+02</pdfrwt>
<totfact> 0.35473110E+04</totfact>
</mgrwt>
</event>
<event>
 6    1  0.2995420E-002  0.9726514E+02  0.7546771E-02  0.1357936E+00
         -4   -1    0    0    0  501 -0.00000000000E+00  0.00000000000E+00  0.33355351916E+01  0.33355351916E+01  0.00000000000E+00 0. -1.
          4   -1    0    0  501    0  0.00000000000E+00 -0.00000000000E+00 -0.13023632470E+04  0.13023632470E+04  0.00000000000E+00 0.  1.
         23    2    1    2    0    0  0.10667719397E+02 -0.24866043970E+02 -0.11594529859E+04  0.11635255621E+04  0.93425836481E+02 0.  0.
         11    1    3    3    0    0  0.42044795207E+02  0.10256951854E+02 -0.77347143520E+03  0.77468124473E+03  0.00000000000E+00 0.  1.
        -11    1    3    3    0    0 -0.31377075810E+02 -0.35122995824E+02 -0.38598155066E+03  0.38884431740E+03  0.00000000000E+00 0. -1.
         22    1    1    2    0    0 -0.10667719397E+02  0.24866043970E+02 -0.13957472589E+03  0.14217322001E+03  0.00000000000E+00 0.  1.
<mgrwt>
<rscale>  0 0.70638379E+02</rscale>
<asrwt>0</asrwt>
<pdfrwt beam="1">  1        4 0.20036377E+00 0.97265139E+02</pdfrwt>
<pdfrwt beam="2">  1       -4 0.51315877E-03 0.97265139E+02</pdfrwt>
<totfact> 0.17884318E+03</totfact>
</mgrwt>
</event>
<event>
 6    1  0.2995420E-002  0.9208218E+02  0.7546771E-02  0.1418033E+00
          2   -1    0    0  501    0  0.00000000000E+00  0.00000000000E+00  0.73739152472E+02  0.73739152472E+02  0.00000000000E+00 0. -1.
         -2   -1    0    0    0  501 -0.00000000000E+00 -0.00000000000E+00 -0.36877299757E+02  0.36877299757E+02  0.00000000000E+00 0.  1.
         23    2    1    2    0    0  0.11695950284E+02  0.30960484171E+01  0.34201208137E+02  0.98228563045E+02  0.91283882427E+02 0.  0.
         11    1    3    3    0    0 -0.12464204653E+02 -0.35082552461E+02 -0.60489434896E+01  0.37719114547E+02  0.00000000000E+00 0.  1.
        -11    1    3    3    0    0  0.24160154937E+02  0.38178600879E+02  0.40250151627E+02  0.60509448499E+02  0.00000000000E+00 0. -1.
         22    1    1    2    0    0 -0.11695950284E+02 -0.30960484171E+01  0.26606445789E+01  0.12387889184E+02  0.00000000000E+00 0.  1.
<mgrwt>
<rscale>  0 0.55439231E+02</rscale>
<asrwt>0</asrwt>
<pdfrwt beam="1">  1        2 0.11344485E-01 0.92082180E+02</pdfrwt>
<pdfrwt beam="2">  1       -2 0.56734307E-02 0.92082180E+02</pdfrwt>
<totfact> 0.75396878E+04</totfact>
</mgrwt>
</event>
<event>
 6    1  0.2995420E-002  0.9083124E+02  0.7546771E-02  0.1430254E+00
         -2   -1    0    0    0  501 -0.00000000000E+00  0.00000000000E+00  0.16113374699E+02  0.16113374699E+02  0.00000000000E+00 0.  1.
          2   -1    0    0  501    0  0.00000000000E+00 -0.00000000000E+00 -0.16472165966E+03  0.16472165966E+03  0.00000000000E+00 0. -1.
         23    2    1    2    0    0  0.10307666663E+02 -0.17620212129E+01 -0.14166263284E+03  0.16828135784E+03  0.90227274934E+02 0.  0.
         11    1    3    3    0    0  0.21430832460E+02 -0.22695159655E+02 -0.75831220069E+01  0.32122493538E+02  0.00000000000E+00 0.  1.
        -11    1    3    3    0    0 -0.11123165797E+02  0.20933138442E+02 -0.13407951084E+03  0.13615886430E+03  0.00000000000E+00 0. -1.
         22    1    1    2    0    0 -0.10307666663E+02  0.17620212129E+01 -0.69456521207E+01  0.12553676520E+02  0.00000000000E+00 0.  1.
<mgrwt>
<rscale>  0 0.52909069E+02</rscale>
<asrwt>0</asrwt>
<pdfrwt beam="1">  1        2 0.25341793E-01 0.90831238E+02</pdfrwt>
<pdfrwt beam="2">  1       -2 0.24789808E-02 0.90831238E+02</pdfrwt>
<totfact> 0.10145591E+05</totfact>
</mgrwt>
</event>
<event>
 6    1  0.2995420E-002  0.9725832E+02  0.7546771E-02  0.1347733E+00
         -2   -1    0    0    0  501 -0.00000000000E+00  0.00000000000E+00  0.85174395974E+02  0.85174395974E+02  0.00000000000E+00 0.  1.
          2   -1    0    0  501    0  0.00000000000E+00 -0.00000000000E+00 -0.60374522025E+02  0.60374522025E+02  0.00000000000E+00 0. -1.
         23    2    1    2    0    0  0.89089892204E-01 -0.32185654398E+02 -0.10446928061E+02  0.97817782060E+02  0.91778297517E+02 0.  0.
         13    1    3    3    0    0 -0.35836861472E+02 -0.80585099650E+01 -0.32679865249E+02  0.49164965328E+02  0.00000000000E+00 0. -1.
        -13    1    3    3    0    0  0.35925951365E+02 -0.24127144433E+02  0.22232937188E+02  0.48652816732E+02  0.00000000000E+00 0.  1.
         22    1    1    2    0    0 -0.89089892204E-01  0.32185654398E+02  0.35246802011E+02  0.47731135939E+02  0.00000000000E+00 0. -1.
<mgrwt>
<rscale>  0 0.73766820E+02</rscale>
<asrwt>0</asrwt>
<pdfrwt beam="1">  1        2 0.92883880E-02 0.97258317E+02</pdfrwt>
<pdfrwt beam="2">  1       -2 0.13103753E-01 0.97258317E+02</pdfrwt>
<totfact> 0.26625556E+04</totfact>
</mgrwt>
</event>
<event>
 6    1  0.2995420E-002  0.8970838E+02  0.7546771E-02  0.1363746E+00
         -1   -1    0    0    0  501 -0.00000000000E+00  0.00000000000E+00  0.54113733862E+02  0.54113733862E+02  0.00000000000E+00 0.  1.
          1   -1    0    0  501    0  0.00000000000E+00 -0.00000000000E+00 -0.13421025090E+03  0.13421025090E+03  0.00000000000E+00 0. -1.
         23    2    1    2    0    0 -0.18047790818E+02  0.25551976344E+02 -0.11209665983E+03  0.14357317039E+03  0.84077154226E+02 0.  0.
         13    1    3    3    0    0 -0.20381955230E+02 -0.28591830961E+02 -0.37552182032E+02  0.51410925610E+02  0.00000000000E+00 0. -1.
        -13    1    3    3    0    0  0.23341644120E+01  0.54143807305E+02 -0.74544477798E+02  0.92162244782E+02  0.00000000000E+00 0.  1.
         22    1    1    2    0    0  0.18047790818E+02 -0.25551976344E+02  0.32000142789E+02  0.44750814373E+02  0.00000000000E+00 0.  1.
<mgrwt>
<rscale>  0 0.68936921E+02</rscale>
<asrwt>0</asrwt>
<pdfrwt beam="1">  1        1 0.20647731E-01 0.89708384E+02</pdfrwt>
<pdfrwt beam="2">  1       -1 0.83251898E-02 0.89708384E+02</pdfrwt>
<totfact> 0.17662439E+04</totfact>
</mgrwt>
</event>
<event>
 6    1  0.2995420E-002  0.8921364E+02  0.7546771E-02  0.1372797E+00
         -2   -1    0    0    0  501 -0.00000000000E+00  0.00000000000E+00  0.43276228411E+01  0.43276228411E+01  0.00000000000E+00 0.  1.
          2   -1    0    0  501    0  0.00000000000E+00 -0.00000000000E+00 -0.12810430838E+04  0.12810430838E+04  0.00000000000E+00 0. -1.
         23    2    1    2    0    0 -0.16968770165E+01 -0.27316668680E+02 -0.12096522296E+04  0.12129375872E+04  0.84911685318E+02 0.  0.
         13    1    3    3    0    0  0.14451633015E+02  0.55796152593E+01 -0.42922336505E+02  0.45632321597E+02  0.00000000000E+00 0.  1.
        -13    1    3    3    0    0 -0.16148510031E+02 -0.32896283939E+02 -0.11667298931E+04  0.11673052657E+04  0.00000000000E+00 0. -1.
         22    1    1    2    0    0  0.16968770165E+01  0.27316668680E+02 -0.67063231420E+02  0.72433119413E+02  0.00000000000E+00 0.  1.
<mgrwt>
<rscale>  0 0.66395625E+02</rscale>
<asrwt>0</asrwt>
<pdfrwt beam="1">  1        2 0.19708385E+00 0.89213643E+02</pdfrwt>
<pdfrwt beam="2">  1       -2 0.66578713E-03 0.89213643E+02</pdfrwt>
<totfact> 0.62359613E+04</totfact>
</mgrwt>
</event>
<event>
 6    1  0.2995420E-002  0.1015269E+03  0.7546771E-02  0.1409192E+00
          2   -1    0    0  501    0  0.00000000000E+00  0.00000000000E+00  0.32718720467E+02  0.32718720467E+02  0.00000000000E+00 0. -1.
         -2   -1    0    0    0  501 -0.00000000000E+00 -0.00000000000E+00 -0.96113156281E+02  0.96113156281E+02  0.00000000000E+00 0.  1.
         23    2    1    2    0    0  0.10315957446E+02  0.89387303663E+00 -0.54781916011E+02  0.11536363691E+03  0.10099748716E+03 0.  0.
         11    1    3    3    0    0  0.41702192153E+02  0.24142749313E+02 -0.58886912732E+02  0.76089510880E+02  0.00000000000E+00 0.  1.
        -11    1    3    3    0    0 -0.31386234707E+02 -0.23248876277E+02  0.41049967212E+01  0.39274126029E+02  0.00000000000E+00 0. -1.
         22    1    1    2    0    0 -0.10315957446E+02 -0.89387303663E+00 -0.86125198037E+01  0.13468239840E+02  0.00000000000E+00 0.  1.
<mgrwt>
<rscale>  0 0.57374549E+02</rscale>
<asrwt>0</asrwt>
<pdfrwt beam="1">  1        2 0.50336494E-02 0.10152689E+03</pdfrwt>
<pdfrwt beam="2">  1       -2 0.14786639E-01 0.10152689E+03</pdfrwt>
<totfact> 0.47720657E+04</totfact>
</mgrwt>
</event>
<event>
 6    1  0.2995420E-002  0.9285612E+02  0.7546771E-02  0.1394773E+00
         -2   -1    0    0    0  501 -0.00000000000E+00  0.00000000000E+00  0.10850024214E+03  0.10850024214E+03  0.00000000000E+00 0.  1.
          2   -1    0    0  501    0  0.00000000000E+00 -0.00000000000E+00 -0.32582328225E+02  0.32582328225E+02  0.00000000000E+00 0. -1.
         23    2    1    2    0    0 -0.72994746790E+01 -0.15347768890E+02  0.39527526548E+02  0.10091919609E+03  0.91287580993E+02 0.  0.
         11    1    3    3    0    0  0.35710450185E+02 -0.28553953123E+02  0.91412041018E+01  0.46627525174E+02  0.00000000000E+00 0.  1.
        -11    1    3    3    0    0 -0.43009924865E+02  0.13206184233E+02  0.30386322446E+02  0.54291670914E+02  0.00000000000E+00 0. -1.
         22    1    1    2    0    0  0.72994746790E+01  0.15347768890E+02  0.36390387365E+02  0.40163374274E+02  0.00000000000E+00 0. -1.
<mgrwt>
<rscale>  0 0.60735047E+02</rscale>
<asrwt>0</asrwt>
<pdfrwt beam="1">  1        2 0.50126659E-02 0.92856119E+02</pdfrwt>
<pdfrwt beam="2">  1       -2 0.16692345E-01 0.92856119E+02</pdfrwt>
<totfact> 0.38902938E+04</totfact>
</mgrwt>
</event>
<event>
 6    1  0.2995420E-002  0.9739148E+02  0.7546771E-02  0.1342046E+00
          2   -1    0    0  501    0  0.00000000000E+00  0.00000000000E+00  0.60924095130E+03  0.60924095130E+03  0.00000000000E+00 0. -1.
         -2   -1    0    0    0  501 -0.00000000000E+00 -0.00000000000E+00 -0.74907132157E+01  0.74907132157E+01  0.00000000000E+00 0.  1.
         23    2    1    2    0    0  0.24539613515E+02  0.25440111092E+02  0.48771413001E+03  0.49734311469E+03  0.90750808471E+02 0.  0.
         11    1    3    3    0    0  0.58795666814E+01 -0.13738906509E+02  0.39161543871E+03  0.39190047039E+03  0.00000000000E+00 0. -1.
        -11    1    3    3    0    0  0.18660046833E+02  0.39179017601E+02  0.96098691296E+02  0.10544264430E+03  0.00000000000E+00 0.  1.
         22    1    1    2    0    0 -0.24539613515E+02 -0.25440111092E+02  0.11403610807E+03  0.11938854982E+03  0.00000000000E+00 0.  1.
<mgrwt>
<rscale>  0 0.75592389E+02</rscale>
<asrwt>0</asrwt>
<pdfrwt beam="1">  1        2 0.93729338E-01 0.97391484E+02</pdfrwt>
<pdfrwt beam="2">  1       -2 0.11524179E-02 0.97391484E+02</pdfrwt>
<totfact> 0.76128465E+04</totfact>
</mgrwt>
</event>
<event>
 6    1  0.2995420E-002  0.9648327E+02  0.7546771E-02  0.1371160E+00
          4   -1    0    0  501    0  0.00000000000E+00  0.00000000000E+00  0.10620765007E+02  0.10620765007E+02  0.00000000000E+00 0. -1.
         -4   -1    0    0    0  501 -0.00000000000E+00 -0.00000000000E+00 -0.33633445950E+03  0.33633445950E+03  0.00000000000E+00 0.  1.
         23    2    1    2    0    0  0.15884237594E+02 -0.15552138251E+02 -0.24741808927E+03  0.26556493144E+03  0.93887400140E+02 0.  0.
         11    1    3    3    0    0 -0.84809698438E+01 -0.20149933727E+02 -0.57194200508E+01  0.22597753083E+02  0.00000000000E+00 0. -1.
        -11    1    3    3    0    0  0.24365207438E+02  0.45977954760E+01 -0.24169866922E+03  0.24296717836E+03  0.00000000000E+00 0.  1.
         22    1    1    2    0    0 -0.15884237594E+02  0.15552138251E+02 -0.78295605223E+02  0.81390293066E+02  0.00000000000E+00 0. -1.
<mgrwt>
<rscale>  0 0.66845849E+02</rscale>
<asrwt>0</asrwt>
<pdfrwt beam="1">  1        4 0.16339637E-02 0.96483273E+02</pdfrwt>
<pdfrwt beam="2">  1       -4 0.51743767E-01 0.96483273E+02</pdfrwt>
<totfact> 0.74725838E+03</totfact>
</mgrwt>
</event>
<event>
 6    1  0.2995420E-002  0.9406724E+02  0.7546771E-02  0.1369863E+00
          1   -1    0    0  501    0  0.00000000000E+00  0.00000000000E+00  0.51988755772E+03  0.51988755772E+03  0.00000000000E+00 0. -1.
         -1   -1    0    0    0  501 -0.00000000000E+00 -0.00000000000E+00 -0.80991437739E+01  0.80991437739E+01  0.00000000000E+00 0.  1.
         23    2    1    2    0    0 -0.68069515888E+01 -0.23543263423E+02  0.47179737618E+03  0.48108357853E+03  0.90818640788E+02 0.  0.
         13    1    3    3    0    0 -0.31147211582E+02  0.32626366730E+01  0.59855308556E+02  0.67553323750E+02  0.00000000000E+00 0.  1.
        -13    1    3    3    0    0  0.24340259993E+02 -0.26805900096E+02  0.41194206763E+03  0.41353025478E+03  0.00000000000E+00 0. -1.
         22    1    1    2    0    0  0.68069515888E+01  0.23543263423E+02  0.39991037765E+02  0.46903122967E+02  0.00000000000E+00 0.  1.
<mgrwt>
<rscale>  0 0.67205336E+02</rscale>
<asrwt>0</asrwt>
<pdfrwt beam="1">  1        1 0.79982675E-01 0.94067238E+02</pdfrwt>
<pdfrwt beam="2">  1       -1 0.12460225E-02 0.94067238E+02</pdfrwt>
<totfact> 0.51952948E+04</totfact>
</mgrwt>
</event>
<event>
 6    1  0.2995420E-002  0.9581944E+02  0.7546771E-02  0.1388007E+00
          2   -1    0    0  501    0  0.00000000000E+00  0.00000000000E+00  0.12836044412E+03  0.12836044412E+03  0.00000000000E+00 0. -1.
         -2   -1    0    0    0  501 -0.00000000000E+00 -0.00000000000E+00 -0.34255754525E+02  0.34255754525E+02  0.00000000000E+00 0.  1.
         23    2    1    2    0    0 -0.22275231647E+01  0.17094756512E+02  0.10505766597E+03  0.14219169740E+03  0.94255891436E+02 0.  0.
         11    1    3    3    0    0  0.88537297782E+01  0.32185959401E+02  0.11586215757E+03  0.12057513869E+03  0.00000000000E+00 0. -1.
        -11    1    3    3    0    0 -0.11081252943E+02 -0.15091202889E+02 -0.10804491603E+02  0.21616558705E+02  0.00000000000E+00 0.  1.
         22    1    1    2    0    0  0.22275231647E+01 -0.17094756512E+02 -0.10952976375E+02  0.20424501245E+02  0.00000000000E+00 0.  1.
<mgrwt>
<rscale>  0 0.62405084E+02</rscale>
<asrwt>0</asrwt>
<pdfrwt beam="1">  1        2 0.19747760E-01 0.95819443E+02</pdfrwt>
<pdfrwt beam="2">  1       -2 0.52701162E-02 0.95819443E+02</pdfrwt>
<totfact> 0.44546965E+04</totfact>
</mgrwt>
</event>
<event>
 6    1  0.2995420E-002  0.9126445E+02  0.7546771E-02  0.1428581E+00
         -2   -1    0    0    0  501 -0.00000000000E+00  0.00000000000E+00  0.29002897679E+01  0.29002897679E+01  0.00000000000E+00 0.  1.
          2   -1    0    0  501    0  0.00000000000E+00 -0.00000000000E+00 -0.12654376314E+04  0.12654376314E+04  0.00000000000E+00 0. -1.
         23    2    1    2    0    0  0.97610133339E+00  0.10528886362E+02 -0.12409349720E+04  0.12442864639E+04  0.90649817287E+02 0.  0.
         13    1    3    3    0    0  0.27861066818E+02 -0.52315110257E+01 -0.10794359044E+04  0.10798080753E+04  0.00000000000E+00 0. -1.
        -13    1    3    3    0    0 -0.26884965484E+02  0.15760397388E+02 -0.16149906751E+03  0.16447838855E+03  0.00000000000E+00 0.  1.
         22    1    1    2    0    0 -0.97610133339E+00 -0.10528886362E+02 -0.21602369728E+02  0.24051457330E+02  0.00000000000E+00 0.  1.
<mgrwt>
<rscale>  0 0.53245930E+02</rscale>
<asrwt>0</asrwt>
<pdfrwt beam="1">  1        2 0.19468298E+00 0.91264449E+02</pdfrwt>
<pdfrwt beam="2">  1       -2 0.44619782E-03 0.91264449E+02</pdfrwt>
<totfact> 0.11172236E+05</totfact>
</mgrwt>
</event>
<event>
 6    1  0.2995420E-002  0.1046195E+03  0.7546771E-02  0.1337742E+00
         -4   -1    0    0    0  501 -0.00000000000E+00  0.00000000000E+00  0.57356349926E+02  0.57356349926E+02  0.00000000000E+00 0.  1.
          4   -1    0    0  501    0  0.00000000000E+00 -0.00000000000E+00 -0.11517830186E+03  0.11517830186E+03  0.00000000000E+00 0. -1.
         23    2    1    2    0    0 -0.74707058051E+01 -0.29800958345E+02 -0.82413975255E+02  0.13318142860E+03  0.10000660500E+03 0.  0.
         13    1    3    3    0    0 -0.26825380871E+02 -0.86131259391E+01 -0.96986755541E+02  0.10099612739E+03  0.00000000000E+00 0. -1.
        -13    1    3    3    0    0  0.19354675066E+02 -0.21187832406E+02  0.14572780287E+02  0.32185301215E+02  0.00000000000E+00 0.  1.
         22    1    1    2    0    0  0.74707058051E+01  0.29800958345E+02  0.24592023323E+02  0.39353223180E+02  0.00000000000E+00 0. -1.
<mgrwt>
<rscale>  0 0.77015044E+02</rscale>
<asrwt>0</asrwt>
<pdfrwt beam="1">  1        4 0.17719739E-01 0.10461945E+03</pdfrwt>
<pdfrwt beam="2">  1       -4 0.88240538E-02 0.10461945E+03</pdfrwt>
<totfact> 0.40246313E+03</totfact>
</mgrwt>
</event>
<event>
 6    1  0.2995420E-002  0.9918253E+02  0.7546771E-02  0.1331494E+00
         -2   -1    0    0    0  501 -0.00000000000E+00  0.00000000000E+00  0.64468455648E+01  0.64468455648E+01  0.00000000000E+00 0.  1.
          2   -1    0    0  501    0  0.00000000000E+00 -0.00000000000E+00 -0.98781964366E+03  0.98781964366E+03  0.00000000000E+00 0. -1.
         23    2    1    2    0    0  0.13403626504E+02 -0.37916448275E+02 -0.87399648053E+03  0.87960617427E+03  0.90663441199E+02 0.  0.
         13    1    3    3    0    0  0.43701737433E+02 -0.33013156003E+02 -0.31189212188E+03  0.31666450072E+03  0.00000000000E+00 0.  1.
        -13    1    3    3    0    0 -0.30298110929E+02 -0.49032922720E+01 -0.56210435865E+03  0.56294167355E+03  0.00000000000E+00 0. -1.
         22    1    1    2    0    0 -0.13403626504E+02  0.37916448275E+02 -0.10737631756E+03  0.11466031496E+03  0.00000000000E+00 0.  1.
<mgrwt>
<rscale>  0 0.79145401E+02</rscale>
<asrwt>0</asrwt>
<pdfrwt beam="1">  1        2 0.15197219E+00 0.99182528E+02</pdfrwt>
<pdfrwt beam="2">  1       -2 0.99182279E-03 0.99182528E+02</pdfrwt>
<totfact> 0.52354799E+04</totfact>
</mgrwt>
</event>
<event>
 6    1  0.2995420E-002  0.9564003E+02  0.7546771E-02  0.1348783E+00
         -2   -1    0    0    0  501 -0.00000000000E+00  0.00000000000E+00  0.71834018521E+02  0.71834018521E+02  0.00000000000E+00 0.  1.
          2   -1    0    0  501    0  0.00000000000E+00 -0.00000000000E+00 -0.63435215294E+02  0.63435215294E+02  0.00000000000E+00 0. -1.
         23    2    1    2    0    0 -0.61763445171E+01 -0.32665825881E+02 -0.11806561441E+02  0.96366018351E+02  0.89676146147E+02 0.  0.
         13    1    3    3    0    0  0.31618897926E+02  0.59327361046E+01 -0.25016674110E+02  0.40752742819E+02  0.00000000000E+00 0. -1.
        -13    1    3    3    0    0 -0.37795242443E+02 -0.38598561985E+02  0.13210112670E+02  0.55613275532E+02  0.00000000000E+00 0.  1.
         22    1    1    2    0    0  0.61763445171E+01  0.32665825881E+02  0.20205364668E+02  0.38903215464E+02  0.00000000000E+00 0.  1.
<mgrwt>
<rscale>  0 0.73436174E+02</rscale>
<asrwt>0</asrwt>
<pdfrwt beam="1">  1        2 0.97592638E-02 0.95640026E+02</pdfrwt>
<pdfrwt beam="2">  1       -2 0.11051388E-01 0.95640026E+02</pdfrwt>
<totfact> 0.32760386E+04</totfact>
</mgrwt>
</event>
<event>
 6    1  0.2995420E-002  0.9120654E+02  0.7546771E-02  0.1424295E+00
          2   -1    0    0  501    0  0.00000000000E+00  0.00000000000E+00  0.34470680880E+04  0.34470680880E+04  0.00000000000E+00 0. -1.
         -2   -1    0    0    0  501 -0.00000000000E+00 -0.00000000000E+00 -0.13123504729E+01  0.13123504729E+01  0.00000000000E+00 0.  1.
         23    2    1    2    0    0 -0.64718314218E+01 -0.92742651777E+01  0.34008410698E+04  0.34020638758E+04  0.90502688926E+02 0.  0.
         11    1    3    3    0    0  0.31646382764E+02 -0.32753573459E+02  0.19521780119E+04  0.19527092155E+04  0.00000000000E+00 0. -1.
        -11    1    3    3    0    0 -0.38118214186E+02  0.23479308281E+02  0.14486630579E+04  0.14493546604E+04  0.00000000000E+00 0.  1.
         22    1    1    2    0    0  0.64718314218E+01  0.92742651777E+01  0.44914667733E+02  0.46316562633E+02  0.00000000000E+00 0.  1.
<mgrwt>
<rscale>  0 0.54122377E+02</rscale>
<asrwt>0</asrwt>
<pdfrwt beam="1">  1        2 0.53031092E+00 0.91206542E+02</pdfrwt>
<pdfrwt beam="2">  1       -2 0.20190283E-03 0.91206542E+02</pdfrwt>
<totfact> 0.22797583E+04</totfact>
</mgrwt>
</event>
<event>
 6    1  0.2995420E-002  0.9077737E+02  0.7546771E-02  0.1425640E+00
         -2   -1    0    0    0  501 -0.00000000000E+00  0.00000000000E+00  0.34472124772E+02  0.34472124772E+02  0.00000000000E+00 0.  1.
          2   -1    0    0  501    0  0.00000000000E+00 -0.00000000000E+00 -0.75474199149E+02  0.75474199149E+02  0.00000000000E+00 0. -1.
         23    2    1    2    0    0 -0.14394318737E+01 -0.11144600803E+02 -0.36405294694E+02  0.97805299474E+02  0.90079170912E+02 0.  0.
         11    1    3    3    0    0 -0.88974822850E+01 -0.11663978198E+02  0.28721305196E+02  0.32250999218E+02  0.00000000000E+00 0.  1.
        -11    1    3    3    0    0  0.74580504113E+01  0.51937739524E+00 -0.65126599890E+02  0.65554300256E+02  0.00000000000E+00 0. -1.
         22    1    1    2    0    0  0.14394318737E+01  0.11144600803E+02 -0.45967796824E+01  0.12141024447E+02  0.00000000000E+00 0. -1.
<mgrwt>
<rscale>  0 0.53845261E+02</rscale>
<asrwt>0</asrwt>
<pdfrwt beam="1">  1        2 0.11611415E-01 0.90777371E+02</pdfrwt>
<pdfrwt beam="2">  1       -2 0.53034039E-02 0.90777371E+02</pdfrwt>
<totfact> 0.80928544E+04</totfact>
</mgrwt>
</event>
<event>
 6    1  0.2995420E-002  0.9290126E+02  0.7546771E-02  0.1394570E+00
          2   -1    0    0  501    0  0.00000000000E+00  0.00000000000E+00  0.10993841559E+04  0.10993841559E+04  0.00000000000E+00 0. -1.
         -2   -1    0    0    0  501 -0.00000000000E+00 -0.00000000000E+00 -0.40982293729E+01  0.40982293729E+01  0.00000000000E+00 0.  1.
         23    2    1    2    0    0  0.13727128278E+02 -0.10071278023E+02  0.10623679010E+04  0.10664221492E+04  0.91327863059E+02 0.  0.
         13    1    3    3    0    0 -0.29345362910E+02  0.11030085212E+02  0.17691714197E+03  0.17967328189E+03  0.00000000000E+00 0. -1.
        -13    1    3    3    0    0  0.43072491188E+02 -0.21101363235E+02  0.88545075904E+03  0.88674886733E+03  0.00000000000E+00 0.  1.
         22    1    1    2    0    0 -0.13727128278E+02  0.10071278023E+02  0.32918025497E+02  0.37060236027E+02  0.00000000000E+00 0.  1.
<mgrwt>
<rscale>  0 0.60784186E+02</rscale>
<asrwt>0</asrwt>
<pdfrwt beam="1">  1        2 0.16913579E+00 0.92901255E+02</pdfrwt>
<pdfrwt beam="2">  1       -2 0.63049770E-03 0.92901255E+02</pdfrwt>
<totfact> 0.84967007E+04</totfact>
</mgrwt>
</event>
<event>
 6    1  0.2995420E-002  0.9236652E+02  0.7546771E-02  0.1404979E+00
         -2   -1    0    0    0  501 -0.00000000000E+00  0.00000000000E+00  0.27382014527E+01  0.27382014527E+01  0.00000000000E+00 0.  1.
          2   -1    0    0  501    0  0.00000000000E+00 -0.00000000000E+00 -0.10924117082E+04  0.10924117082E+04  0.00000000000E+00 0. -1.
         23    2    1    2    0    0 -0.77923407425E+01 -0.12452498214E+02 -0.10026270564E+04  0.10068726770E+04  0.91190943556E+02 0.  0.
         13    1    3    3    0    0  0.16318581292E+02 -0.30673755871E+02 -0.16114403236E+03  0.16484712482E+03  0.00000000000E+00 0.  1.
        -13    1    3    3    0    0 -0.24110922034E+02  0.18221257657E+02 -0.84148302404E+03  0.84202555219E+03  0.00000000000E+00 0. -1.
         22    1    1    2    0    0  0.77923407425E+01  0.12452498214E+02 -0.87046450351E+02  0.88277232653E+02  0.00000000000E+00 0. -1.
<mgrwt>
<rscale>  0 0.58329554E+02</rscale>
<asrwt>0</asrwt>
<pdfrwt beam="1">  1        2 0.16806353E+00 0.92366517E+02</pdfrwt>
<pdfrwt beam="2">  1       -2 0.42126129E-03 0.92366517E+02</pdfrwt>
<totfact> 0.15082742E+05</totfact>
</mgrwt>
</event>
<event>
 6    1  0.2995420E-002  0.9267533E+02  0.7546771E-02  0.1403270E+00
          2   -1    0    0  501    0  0.00000000000E+00  0.00000000000E+00  0.64616860660E+03  0.64616860660E+03  0.00000000000E+00 0. -1.
         -2   -1    0    0    0  501 -0.00000000000E+00 -0.00000000000E+00 -0.75588867684E+01  0.75588867684E+01  0.00000000000E+00 0.  1.
         23    2    1    2    0    0  0.14854937887E+02 -0.15894637060E+01  0.62938017397E+03  0.63616673908E+03  0.91463221823E+02 0.  0.
         13    1    3    3    0    0  0.47200536148E+02  0.13207489606E+02  0.22773805941E+03  0.23295268211E+03  0.00000000000E+00 0.  1.
        -13    1    3    3    0    0 -0.32345598261E+02 -0.14796953312E+02  0.40164211456E+03  0.40321405697E+03  0.00000000000E+00 0. -1.
         22    1    1    2    0    0 -0.14854937887E+02  0.15894637060E+01  0.92295458614E+01  0.17560754292E+02  0.00000000000E+00 0.  1.
<mgrwt>
<rscale>  0 0.58723076E+02</rscale>
<asrwt>0</asrwt>
<pdfrwt beam="1">  1        2 0.99410512E-01 0.92675329E+02</pdfrwt>
<pdfrwt beam="2">  1       -2 0.11629062E-02 0.92675329E+02</pdfrwt>
<totfact> 0.69855771E+04</totfact>
</mgrwt>
</event>
<event>
 6    1  0.2995420E-002  0.9290028E+02  0.7546771E-02  0.1403149E+00
          2   -1    0    0  501    0  0.00000000000E+00  0.00000000000E+00  0.25955447905E+02  0.25955447905E+02  0.00000000000E+00 0. -1.
         -2   -1    0    0    0  501 -0.00000000000E+00 -0.00000000000E+00 -0.11813958705E+03  0.11813958705E+03  0.00000000000E+00 0.  1.
         23    2    1    2    0    0  0.80777812743E+01  0.12472564120E+02 -0.89491891753E+02  0.12899326015E+03  0.91704127876E+02 0.  0.
         11    1    3    3    0    0  0.15110329832E+02 -0.27462016754E+02 -0.81961835486E+02  0.87750936793E+02  0.00000000000E+00 0.  1.
        -11    1    3    3    0    0 -0.70325485580E+01  0.39934580873E+02 -0.75300562666E+01  0.41242323360E+02  0.00000000000E+00 0. -1.
         22    1    1    2    0    0 -0.80777812743E+01 -0.12472564120E+02 -0.26922473878E+01  0.15101774797E+02  0.00000000000E+00 0.  1.
<mgrwt>
<rscale>  0 0.58751160E+02</rscale>
<asrwt>0</asrwt>
<pdfrwt beam="1">  1        2 0.39931459E-02 0.92900282E+02</pdfrwt>
<pdfrwt beam="2">  1       -2 0.18175321E-01 0.92900282E+02</pdfrwt>
<totfact> 0.45447607E+04</totfact>
</mgrwt>
</event>
<event>
 6    1  0.2995420E-002  0.1050988E+03  0.7546771E-02  0.1379495E+00
          1   -1    0    0  501    0  0.00000000000E+00  0.00000000000E+00  0.91361927570E+01  0.91361927570E+01  0.00000000000E+00 0.  1.
         -1   -1    0    0    0  501 -0.00000000000E+00 -0.00000000000E+00 -0.40641589656E+03  0.40641589656E+03  0.00000000000E+00 0. -1.
         23    2    1    2    0    0 -0.95001766004E+01 -0.11606195503E+02 -0.36713840912E+03  0.38188526923E+03  0.10402302762E+03 0.  0.
         13    1    3    3    0    0 -0.17983030788E+01  0.45949694838E+02 -0.18935332364E+03  0.19485710026E+03  0.00000000000E+00 0. -1.
        -13    1    3    3    0    0 -0.77018735217E+01 -0.57555890340E+02 -0.17778508548E+03  0.18702816897E+03  0.00000000000E+00 0.  1.
         22    1    1    2    0    0  0.95001766004E+01  0.11606195503E+02 -0.30141294688E+02  0.33666820089E+02  0.00000000000E+00 0.  1.
<mgrwt>
<rscale>  0 0.64596745E+02</rscale>
<asrwt>0</asrwt>
<pdfrwt beam="1">  1        1 0.14055682E-02 0.10509875E+03</pdfrwt>
<pdfrwt beam="2">  1       -1 0.62525517E-01 0.10509875E+03</pdfrwt>
<totfact> 0.24088181E+04</totfact>
</mgrwt>
</event>
<event>
 6    1  0.2995420E-002  0.9214929E+02  0.7546771E-02  0.1413661E+00
         -4   -1    0    0    0  501 -0.00000000000E+00  0.00000000000E+00  0.50543706679E+01  0.50543706679E+01  0.00000000000E+00 0.  1.
          4   -1    0    0  501    0  0.00000000000E+00 -0.00000000000E+00 -0.55016413436E+03  0.55016413436E+03  0.00000000000E+00 0. -1.
         23    2    1    2    0    0  0.86544264174E+01  0.95894323449E+01 -0.49245824403E+03  0.50100560221E+03  0.91239437868E+02 0.  0.
         11    1    3    3    0    0  0.12560951730E+01  0.23807516873E+02 -0.48029193393E+03  0.48088326799E+03  0.00000000000E+00 0. -1.
        -11    1    3    3    0    0  0.73983312444E+01 -0.14218084529E+02 -0.12166310093E+02  0.20122334212E+02  0.00000000000E+00 0.  1.
         22    1    1    2    0    0 -0.86544264174E+01 -0.95894323449E+01 -0.52651519662E+02  0.54212902819E+02  0.00000000000E+00 0.  1.
<mgrwt>
<rscale>  0 0.56384771E+02</rscale>
<asrwt>0</asrwt>
<pdfrwt beam="1">  1        4 0.84640611E-01 0.92149288E+02</pdfrwt>
<pdfrwt beam="2">  1       -4 0.77759572E-03 0.92149288E+02</pdfrwt>
<totfact> 0.79131757E+03</totfact>
</mgrwt>
</event>
<event>
 6    1  0.2995420E-002  0.9420649E+02  0.7546771E-02  0.1414718E+00
         -2   -1    0    0    0  501 -0.00000000000E+00  0.00000000000E+00  0.47812796871E+01  0.47812796871E+01  0.00000000000E+00 0.  1.
          2   -1    0    0  501    0  0.00000000000E+00 -0.00000000000E+00 -0.74185995906E+03  0.74185995906E+03  0.00000000000E+00 0. -1.
         23    2    1    2    0    0 -0.74105872514E+01  0.93018022912E+01 -0.71803796191E+03  0.72419153383E+03  0.93452782737E+02 0.  0.
         11    1    3    3    0    0 -0.12863725909E+02 -0.19349788127E+02 -0.64676020826E+03  0.64717745382E+03  0.00000000000E+00 0. -1.
        -11    1    3    3    0    0  0.54531386575E+01  0.28651590418E+02 -0.71277753651E+02  0.77014080013E+02  0.00000000000E+00 0.  1.
         22    1    1    2    0    0  0.74105872514E+01 -0.93018022912E+01 -0.19040717466E+02  0.22449704917E+02  0.00000000000E+00 0. -1.
<mgrwt>
<rscale>  0 0.56154204E+02</rscale>
<asrwt>0</asrwt>
<pdfrwt beam="1">  1        2 0.11413230E+00 0.94206491E+02</pdfrwt>
<pdfrwt beam="2">  1       -2 0.73558151E-03 0.94206491E+02</pdfrwt>
<totfact> 0.11395083E+05</totfact>
</mgrwt>
</event>
<event>
 6    1  0.2995420E-002  0.1080977E+03  0.7546771E-02  0.1316721E+00
          2   -1    0    0  501    0  0.00000000000E+00  0.00000000000E+00  0.94435095061E+03  0.94435095061E+03  0.00000000000E+00 0.  1.
         -2   -1    0    0    0  501 -0.00000000000E+00 -0.00000000000E+00 -0.93311660521E+01  0.93311660521E+01  0.00000000000E+00 0. -1.
         23    2    1    2    0    0  0.35896385192E+02  0.18493114579E+02  0.87305385073E+03  0.87972048666E+03  0.10027244202E+03 0.  0.
         11    1    3    3    0    0  0.33821716439E+02 -0.18672653915E+02  0.12718318752E+03  0.13292155467E+03  0.00000000000E+00 0. -1.
        -11    1    3    3    0    0  0.20746687528E+01  0.37165768494E+02  0.74587066321E+03  0.74679893200E+03  0.00000000000E+00 0.  1.
         22    1    1    2    0    0 -0.35896385192E+02 -0.18493114579E+02  0.61965933831E+02  0.73961630000E+02  0.00000000000E+00 0. -1.
<mgrwt>
<rscale>  0 0.84509183E+02</rscale>
<asrwt>0</asrwt>
<pdfrwt beam="1">  1        2 0.14528469E+00 0.10809768E+03</pdfrwt>
<pdfrwt beam="2">  1       -2 0.14355648E-02 0.10809768E+03</pdfrwt>
<totfact> 0.33112542E+04</totfact>
</mgrwt>
</event>
<event>
 6    1  0.2995420E-002  0.9515977E+02  0.7546771E-02  0.1346230E+00
          1   -1    0    0  501    0  0.00000000000E+00  0.00000000000E+00  0.54326399373E+02  0.54326399373E+02  0.00000000000E+00 0. -1.
         -1   -1    0    0    0  501 -0.00000000000E+00 -0.00000000000E+00 -0.78317589029E+02  0.78317589029E+02  0.00000000000E+00 0.  1.
         23    2    1    2    0    0 -0.32782650372E+02  0.12981402370E+02 -0.18909507112E+02  0.97020366038E+02  0.88386441234E+02 0.  0.
         11    1    3    3    0    0 -0.23376609875E+02 -0.30473761078E+02  0.14866934234E+02  0.41184241368E+02  0.00000000000E+00 0. -1.
        -11    1    3    3    0    0 -0.94060404967E+01  0.43455163449E+02 -0.33776441346E+02  0.55836124670E+02  0.00000000000E+00 0.  1.
         22    1    1    2    0    0  0.32782650372E+02 -0.12981402370E+02 -0.50816825437E+01  0.35623622365E+02  0.00000000000E+00 0.  1.
<mgrwt>
<rscale>  0 0.74243510E+02</rscale>
<asrwt>0</asrwt>
<pdfrwt beam="1">  1        1 0.83579076E-02 0.95159771E+02</pdfrwt>
<pdfrwt beam="2">  1       -1 0.12048860E-01 0.95159771E+02</pdfrwt>
<totfact> 0.32649201E+04</totfact>
</mgrwt>
</event>
<event>
 6    1  0.2995420E-002  0.9246088E+02  0.7546771E-02  0.1423197E+00
          1   -1    0    0  501    0  0.00000000000E+00  0.00000000000E+00  0.38077865887E+03  0.38077865887E+03  0.00000000000E+00 0. -1.
         -1   -1    0    0    0  501 -0.00000000000E+00 -0.00000000000E+00 -0.72713100067E+01  0.72713100067E+01  0.00000000000E+00 0.  1.
         23    2    1    2    0    0  0.73456184574E+01  0.82403326228E+01  0.35110597171E+03  0.36307632496E+03  0.91799527131E+02 0.  0.
         11    1    3    3    0    0  0.37268998322E+02 -0.71757325584E+01  0.29656942137E+03  0.29898811191E+03  0.00000000000E+00 0. -1.
        -11    1    3    3    0    0 -0.29923379864E+02  0.15416065181E+02  0.54536550342E+02  0.64088213046E+02  0.00000000000E+00 0.  1.
         22    1    1    2    0    0 -0.73456184574E+01 -0.82403326228E+01  0.22401377150E+02  0.24973643916E+02  0.00000000000E+00 0. -1.
<mgrwt>
<rscale>  0 0.54350269E+02</rscale>
<asrwt>0</asrwt>
<pdfrwt beam="1">  1        1 0.58581317E-01 0.92460880E+02</pdfrwt>
<pdfrwt beam="2">  1       -1 0.11186634E-02 0.92460880E+02</pdfrwt>
<totfact> 0.89459537E+04</totfact>
</mgrwt>
</event>
<event>
 6    1  0.2995420E-002  0.9373685E+02  0.7546771E-02  0.1413812E+00
          3   -1    0    0  501    0  0.00000000000E+00  0.00000000000E+00  0.15774292511E+02  0.15774292511E+02  0.00000000000E+00 0. -1.
         -3   -1    0    0    0  501 -0.00000000000E+00 -0.00000000000E+00 -0.19785966990E+03  0.19785966990E+03  0.00000000000E+00 0.  1.
         23    2    1    2    0    0 -0.11171098327E+02 -0.50107309020E+01 -0.13087874856E+03  0.16098398902E+03  0.92933831483E+02 0.  0.
         13    1    3    3    0    0 -0.19668606269E+02  0.36654800697E+02 -0.29351016217E+02  0.50910810637E+02  0.00000000000E+00 0. -1.
        -13    1    3    3    0    0  0.84975079419E+01 -0.41665531599E+02 -0.10152773234E+03  0.11007317838E+03  0.00000000000E+00 0.  1.
         22    1    1    2    0    0  0.11171098327E+02  0.50107309020E+01 -0.51206628832E+02  0.52649973394E+02  0.00000000000E+00 0.  1.
<mgrwt>
<rscale>  0 0.56351866E+02</rscale>
<asrwt>0</asrwt>
<pdfrwt beam="1">  1        3 0.24268143E-02 0.93736855E+02</pdfrwt>
<pdfrwt beam="2">  1       -3 0.30439948E-01 0.93736855E+02</pdfrwt>
<totfact> 0.15299493E+04</totfact>
</mgrwt>
</event>
<event>
 6    1  0.2995420E-002  0.9211885E+02  0.7546771E-02  0.1400715E+00
         -4   -1    0    0    0  501 -0.00000000000E+00  0.00000000000E+00  0.55240552682E+02  0.55240552682E+02  0.00000000000E+00 0.  1.
          4   -1    0    0  501    0  0.00000000000E+00 -0.00000000000E+00 -0.72643686054E+02  0.72643686054E+02  0.00000000000E+00 0. -1.
         23    2    1    2    0    0 -0.40986314898E+01  0.15298702447E+02 -0.39885730939E+02  0.10038303385E+03  0.90747081916E+02 0.  0.
         13    1    3    3    0    0 -0.11903098686E+02  0.84656740707E+01 -0.68451306216E+02  0.69992376145E+02  0.00000000000E+00 0. -1.
        -13    1    3    3    0    0  0.78044671958E+01  0.68330283763E+01  0.28565575277E+02  0.30390657708E+02  0.00000000000E+00 0.  1.
         22    1    1    2    0    0  0.40986314898E+01 -0.15298702447E+02  0.22482597567E+02  0.27501204883E+02  0.00000000000E+00 0.  1.
<mgrwt>
<rscale>  0 0.59318196E+02</rscale>
<asrwt>0</asrwt>
<pdfrwt beam="1">  1        4 0.11175952E-01 0.92118847E+02</pdfrwt>
<pdfrwt beam="2">  1       -4 0.84985466E-02 0.92118847E+02</pdfrwt>
<totfact> 0.91496871E+03</totfact>
</mgrwt>
</event>
<event>
 6    1  0.2995420E-002  0.1252459E+03  0.7546771E-02  0.1358246E+00
          1   -1    0    0  501    0  0.00000000000E+00  0.00000000000E+00  0.22809176365E+03  0.22809176365E+03  0.00000000000E+00 0. -1.
         -1   -1    0    0    0  501 -0.00000000000E+00 -0.00000000000E+00 -0.22952270414E+02  0.22952270414E+02  0.00000000000E+00 0.  1.
         23    2    1    2    0    0 -0.11163512326E+02 -0.58569811418E+01  0.20259478365E+03  0.23818309388E+03  0.12460983754E+03 0.  0.
         11    1    3    3    0    0 -0.25311910911E+02  0.44955846157E+02  0.34643771170E+02  0.62144282268E+02  0.00000000000E+00 0.  1.
        -11    1    3    3    0    0  0.14148398586E+02 -0.50812827299E+02  0.16795101248E+03  0.17603881161E+03  0.00000000000E+00 0. -1.
         22    1    1    2    0    0  0.11163512326E+02  0.58569811418E+01  0.25447095853E+01  0.12860940184E+02  0.00000000000E+00 0.  1.
<mgrwt>
<rscale>  0 0.70546069E+02</rscale>
<asrwt>0</asrwt>
<pdfrwt beam="1">  1        1 0.35091039E-01 0.12524592E+03</pdfrwt>
<pdfrwt beam="2">  1       -1 0.35311187E-02 0.12524592E+03</pdfrwt>
<totfact> 0.33608281E+04</totfact>
</mgrwt>
</event>
<event>
 6    1  0.2995420E-002  0.9479343E+02  0.7546771E-02  0.1351605E+00
          2   -1    0    0  501    0  0.00000000000E+00  0.00000000000E+00  0.21928153956E+03  0.21928153956E+03  0.00000000000E+00 0. -1.
         -2   -1    0    0    0  501 -0.00000000000E+00 -0.00000000000E+00 -0.19738850083E+02  0.19738850083E+02  0.00000000000E+00 0.  1.
         23    2    1    2    0    0 -0.12720343480E+02 -0.29949575047E+02  0.17198981628E+03  0.19638302334E+03  0.89033761960E+02 0.  0.
         11    1    3    3    0    0 -0.23978313187E+02  0.14943735201E+02  0.13575574900E+02  0.31345987924E+02  0.00000000000E+00 0.  1.
        -11    1    3    3    0    0  0.11257969707E+02 -0.44893310248E+02  0.15841424138E+03  0.16503703542E+03  0.00000000000E+00 0. -1.
         22    1    1    2    0    0  0.12720343480E+02  0.29949575047E+02  0.27552873194E+02  0.42637366300E+02  0.00000000000E+00 0.  1.
<mgrwt>
<rscale>  0 0.72557886E+02</rscale>
<asrwt>0</asrwt>
<pdfrwt beam="1">  1        2 0.33735620E-01 0.94793433E+02</pdfrwt>
<pdfrwt beam="2">  1       -2 0.30367463E-02 0.94793433E+02</pdfrwt>
<totfact> 0.55942408E+04</totfact>
</mgrwt>
</event>
<event>
 6    1  0.2995420E-002  0.9323733E+02  0.7546771E-02  0.1418391E+00
         -2   -1    0    0    0  501 -0.00000000000E+00  0.00000000000E+00  0.11500347227E+02  0.11500347227E+02  0.00000000000E+00 0.  1.
          2   -1    0    0  501    0  0.00000000000E+00 -0.00000000000E+00 -0.44993075754E+03  0.44993075754E+03  0.00000000000E+00 0. -1.
         23    2    1    2    0    0 -0.20633216794E+01  0.11405362685E+02 -0.43996818643E+03  0.44973904123E+03  0.92514109936E+02 0.  0.
         11    1    3    3    0    0 -0.11903620613E+02  0.47697320839E+02 -0.16365960419E+03  0.17088357628E+03  0.00000000000E+00 0.  1.
        -11    1    3    3    0    0  0.98402989336E+01 -0.36291958154E+02 -0.27630858224E+03  0.27885546495E+03  0.00000000000E+00 0. -1.
         22    1    1    2    0    0  0.20633216794E+01 -0.11405362685E+02  0.15377761223E+01  0.11692063536E+02  0.00000000000E+00 0.  1.
<mgrwt>
<rscale>  0 0.55362779E+02</rscale>
<asrwt>0</asrwt>
<pdfrwt beam="1">  1        2 0.69220119E-01 0.93237332E+02</pdfrwt>
<pdfrwt beam="2">  1       -2 0.17692841E-02 0.93237332E+02</pdfrwt>
<totfact> 0.57180337E+04</totfact>
</mgrwt>
</event>
<event>
 6    1  0.2995420E-002  0.9397273E+02  0.7546771E-02  0.1423950E+00
         -2   -1    0    0    0  501 -0.00000000000E+00  0.00000000000E+00  0.25922526028E+02  0.25922526028E+02  0.00000000000E+00 0.  1.
          2   -1    0    0  501    0  0.00000000000E+00 -0.00000000000E+00 -0.10927370530E+03  0.10927370530E+03  0.00000000000E+00 0. -1.
         23    2    1    2    0    0  0.82280811661E+01 -0.63515069200E+01 -0.81990960664E+02  0.12471323774E+03  0.93396097767E+02 0.  0.
         11    1    3    3    0    0 -0.17707739811E+01 -0.42688838599E+02 -0.75096371209E+02  0.86399870082E+02  0.00000000000E+00 0. -1.
        -11    1    3    3    0    0  0.99988551472E+01  0.36337331679E+02 -0.68945894548E+01  0.38313367661E+02  0.00000000000E+00 0.  1.
         22    1    1    2    0    0 -0.82280811661E+01  0.63515069200E+01 -0.13602186080E+01  0.10482993584E+02  0.00000000000E+00 0.  1.
<mgrwt>
<rscale>  0 0.54193967E+02</rscale>
<asrwt>0</asrwt>
<pdfrwt beam="1">  1        2 0.16811339E-01 0.93972730E+02</pdfrwt>
<pdfrwt beam="2">  1       -2 0.39880810E-02 0.93972730E+02</pdfrwt>
<totfact> 0.80547335E+04</totfact>
</mgrwt>
</event>
<event>
 6    1  0.2995420E-002  0.9210962E+02  0.7546771E-02  0.1418272E+00
         -1   -1    0    0    0  501 -0.00000000000E+00  0.00000000000E+00  0.36970955917E+01  0.36970955917E+01  0.00000000000E+00 0.  1.
          1   -1    0    0  501    0  0.00000000000E+00 -0.00000000000E+00 -0.11490118175E+04  0.11490118175E+04  0.00000000000E+00 0. -1.
         23    2    1    2    0    0  0.11795828591E+02  0.24301379962E+01 -0.11271929758E+04  0.11309501258E+04  0.91318865260E+02 0.  0.
         11    1    3    3    0    0 -0.35930486503E+01  0.39382114218E+02 -0.27624532310E+03  0.27906153345E+03  0.00000000000E+00 0.  1.
        -11    1    3    3    0    0  0.15388877242E+02 -0.36951976222E+02 -0.85094765275E+03  0.85188859237E+03  0.00000000000E+00 0. -1.
         22    1    1    2    0    0 -0.11795828591E+02 -0.24301379962E+01 -0.18121746013E+02  0.21758787222E+02  0.00000000000E+00 0.  1.
<mgrwt>
<rscale>  0 0.55388218E+02</rscale>
<asrwt>0</asrwt>
<pdfrwt beam="1">  1        1 0.17677099E+00 0.92109621E+02</pdfrwt>
<pdfrwt beam="2">  1       -1 0.56878411E-03 0.92109621E+02</pdfrwt>
<totfact> 0.47906611E+04</totfact>
</mgrwt>
</event>
<event>
 6    1  0.2995420E-002  0.8514242E+02  0.7546771E-02  0.1441074E+00
         -2   -1    0    0    0  501 -0.00000000000E+00  0.00000000000E+00  0.28891611379E+01  0.28891611379E+01  0.00000000000E+00 0.  1.
          2   -1    0    0  501    0  0.00000000000E+00 -0.00000000000E+00 -0.10539506113E+04  0.10539506113E+04  0.00000000000E+00 0. -1.
         23    2    1    2    0    0 -0.23210573350E+01 -0.10537170477E+02 -0.10263492456E+04  0.10298747520E+04  0.84455975309E+02 0.  0.
         11    1    3    3    0    0 -0.14125576589E+01 -0.15469139327E+02 -0.10243630289E+04  0.10244807976E+04  0.00000000000E+00 0. -1.
        -11    1    3    3    0    0 -0.90849967615E+00  0.49319688500E+01 -0.19862166669E+01  0.53939544906E+01  0.00000000000E+00 0.  1.
         22    1    1    2    0    0  0.23210573350E+01  0.10537170477E+02 -0.24712204648E+02  0.26965020441E+02  0.00000000000E+00 0.  1.
<mgrwt>
<rscale>  0 0.50799868E+02</rscale>
<asrwt>0</asrwt>
<pdfrwt beam="1">  1        2 0.16214606E+00 0.85142416E+02</pdfrwt>
<pdfrwt beam="2">  1       -2 0.44448684E-03 0.85142416E+02</pdfrwt>
<totfact> 0.14547180E+05</totfact>
</mgrwt>
</event>
<event>
 6    1  0.2995420E-002  0.9219063E+02  0.7546771E-02  0.1404031E+00
         -2   -1    0    0    0  501 -0.00000000000E+00  0.00000000000E+00  0.76922503049E+01  0.76922503049E+01  0.00000000000E+00 0.  1.
          2   -1    0    0  501    0  0.00000000000E+00 -0.00000000000E+00 -0.47066766091E+03  0.47066766091E+03  0.00000000000E+00 0. -1.
         23    2    1    2    0    0 -0.11635129160E+02 -0.94602542551E+01 -0.44716347148E+03  0.45656793884E+03  0.90962849068E+02 0.  0.
         13    1    3    3    0    0 -0.13987917908E+01  0.40376919446E+02 -0.23024755007E+03  0.23376523813E+03  0.00000000000E+00 0.  1.
        -13    1    3    3    0    0 -0.10236337369E+02 -0.49837173701E+02 -0.21691592140E+03  0.22280270071E+03  0.00000000000E+00 0. -1.
         22    1    1    2    0    0  0.11635129160E+02  0.94602542551E+01 -0.15811939134E+02  0.21791972382E+02  0.00000000000E+00 0.  1.
<mgrwt>
<rscale>  0 0.58547340E+02</rscale>
<asrwt>0</asrwt>
<pdfrwt beam="1">  1        2 0.72410379E-01 0.92190632E+02</pdfrwt>
<pdfrwt beam="2">  1       -2 0.11834236E-02 0.92190632E+02</pdfrwt>
<totfact> 0.96557737E+04</totfact>
</mgrwt>
</event>
<event>
 6    1  0.2995420E-002  0.9288872E+02  0.7546771E-02  0.1389801E+00
          2   -1    0    0  501    0  0.00000000000E+00  0.00000000000E+00  0.70020565881E+02  0.70020565881E+02  0.00000000000E+00 0. -1.
         -2   -1    0    0    0  501 -0.00000000000E+00 -0.00000000000E+00 -0.44230408914E+02  0.44230408914E+02  0.00000000000E+00 0.  1.
         23    2    1    2    0    0  0.17611007834E+02 -0.52766629508E+01  0.20558606279E+02  0.95136585153E+02  0.91051209622E+02 0.  0.
         11    1    3    3    0    0 -0.10713678829E+02 -0.35003308175E+02  0.35930135096E+02  0.51293168212E+02  0.00000000000E+00 0. -1.
        -11    1    3    3    0    0  0.28324686663E+02  0.29726645224E+02 -0.15371528817E+02  0.43843416940E+02  0.00000000000E+00 0.  1.
         22    1    1    2    0    0 -0.17611007834E+02  0.52766629508E+01  0.52315506888E+01  0.19114389643E+02  0.00000000000E+00 0.  1.
<mgrwt>
<rscale>  0 0.61956279E+02</rscale>
<asrwt>0</asrwt>
<pdfrwt beam="1">  1        2 0.10772395E-01 0.92888716E+02</pdfrwt>
<pdfrwt beam="2">  1       -2 0.68046783E-02 0.92888716E+02</pdfrwt>
<totfact> 0.61104828E+04</totfact>
</mgrwt>
</event>
<event>
 6    1  0.2995420E-002  0.8967315E+02  0.7546771E-02  0.1419173E+00
          2   -1    0    0  501    0  0.00000000000E+00  0.00000000000E+00  0.37743172868E+03  0.37743172868E+03  0.00000000000E+00 0. -1.
         -2   -1    0    0    0  501 -0.00000000000E+00 -0.00000000000E+00 -0.97513975870E+01  0.97513975870E+01  0.00000000000E+00 0.  1.
         23    2    1    2    0    0  0.10735465997E+02  0.71023303515E+01  0.36229854717E+03  0.37323117570E+03  0.88744464066E+02 0.  0.
         11    1    3    3    0    0 -0.15391175167E+02 -0.35875950356E+02  0.17456570866E+03  0.17887749642E+03  0.00000000000E+00 0.  1.
        -11    1    3    3    0    0  0.26126641163E+02  0.42978280707E+02  0.18773283851E+03  0.19435367927E+03  0.00000000000E+00 0. -1.
         22    1    1    2    0    0 -0.10735465997E+02 -0.71023303515E+01  0.53817839233E+01  0.13951950573E+02  0.00000000000E+00 0.  1.
<mgrwt>
<rscale>  0 0.55196296E+02</rscale>
<asrwt>0</asrwt>
<pdfrwt beam="1">  1        2 0.58066408E-01 0.89673147E+02</pdfrwt>
<pdfrwt beam="2">  1       -2 0.15002153E-02 0.89673147E+02</pdfrwt>
<totfact> 0.86684879E+04</totfact>
</mgrwt>
</event>
<event>
 6    1  0.2995420E-002  0.9129844E+02  0.7546771E-02  0.1431828E+00
          2   -1    0    0  501    0  0.00000000000E+00  0.00000000000E+00  0.12600438245E+03  0.12600438245E+03  0.00000000000E+00 0. -1.
         -2   -1    0    0    0  501 -0.00000000000E+00 -0.00000000000E+00 -0.25505417346E+02  0.25505417346E+02  0.00000000000E+00 0.  1.
         23    2    1    2    0    0 -0.93871998685E+01  0.36033570578E+01  0.10612118742E+03  0.13998968317E+03  0.90743050813E+02 0.  0.
         11    1    3    3    0    0 -0.33648199533E+02  0.56597254292E+01  0.11014722059E+03  0.11531107505E+03  0.00000000000E+00 0. -1.
        -11    1    3    3    0    0  0.24260999664E+02 -0.20563683714E+01 -0.40260331776E+01  0.24678608120E+02  0.00000000000E+00 0.  1.
         22    1    1    2    0    0  0.93871998685E+01 -0.36033570578E+01 -0.56222223122E+01  0.11520116631E+02  0.00000000000E+00 0.  1.
<mgrwt>
<rscale>  0 0.52594871E+02</rscale>
<asrwt>0</asrwt>
<pdfrwt beam="1">  1        2 0.19385289E-01 0.91298439E+02</pdfrwt>
<pdfrwt beam="2">  1       -2 0.39239104E-02 0.91298439E+02</pdfrwt>
<totfact> 0.69917284E+04</totfact>
</mgrwt>
</event>
<event>
 6    1  0.2995420E-002  0.1362475E+03  0.7546771E-02  0.1231729E+00
         -2   -1    0    0    0  501 -0.00000000000E+00  0.00000000000E+00  0.25542420851E+03  0.25542420851E+03  0.00000000000E+00 0.  1.
          2   -1    0    0  501    0  0.00000000000E+00 -0.00000000000E+00 -0.81942189883E+02  0.81942189883E+02  0.00000000000E+00 0. -1.
         23    2    1    2    0    0 -0.78460188588E+02  0.67317150033E+02  0.18883026768E+03  0.23285243459E+03  0.88745627603E+02 0.  0.
         11    1    3    3    0    0 -0.64680123314E+02  0.23288789969E+01  0.12480402356E+03  0.14058800207E+03  0.00000000000E+00 0.  1.
        -11    1    3    3    0    0 -0.13780065274E+02  0.64988271036E+02  0.64026244119E+02  0.92264432514E+02  0.00000000000E+00 0. -1.
         22    1    1    2    0    0  0.78460188588E+02 -0.67317150033E+02 -0.15348249053E+02  0.10451396381E+03  0.00000000000E+00 0. -1.
<mgrwt>
<rscale>  0 0.12716174E+03</rscale>
<asrwt>0</asrwt>
<pdfrwt beam="1">  1        2 0.12606491E-01 0.13624752E+03</pdfrwt>
<pdfrwt beam="2">  1       -2 0.39296032E-01 0.13624752E+03</pdfrwt>
<totfact> 0.28529595E+03</totfact>
</mgrwt>
</event>
<event>
 6    1  0.2995420E-002  0.8818352E+02  0.7546771E-02  0.1424976E+00
          1   -1    0    0  501    0  0.00000000000E+00  0.00000000000E+00  0.63780573640E+03  0.63780573640E+03  0.00000000000E+00 0. -1.
         -1   -1    0    0    0  501 -0.00000000000E+00 -0.00000000000E+00 -0.66601832080E+01  0.66601832080E+01  0.00000000000E+00 0.  1.
         23    2    1    2    0    0 -0.10635415183E+02  0.63427353707E+01  0.62393613495E+03  0.63013699573E+03  0.87309739128E+02 0.  0.
         13    1    3    3    0    0 -0.27720691081E+02 -0.12489902644E+02  0.56660170131E+03  0.56741688582E+03  0.00000000000E+00 0. -1.
        -13    1    3    3    0    0  0.17085275898E+02  0.18832638015E+02  0.57334433640E+02  0.62720109916E+02  0.00000000000E+00 0.  1.
         22    1    1    2    0    0  0.10635415183E+02 -0.63427353707E+01  0.72094182466E+01  0.14328923880E+02  0.00000000000E+00 0.  1.
<mgrwt>
<rscale>  0 0.53981920E+02</rscale>
<asrwt>0</asrwt>
<pdfrwt beam="1">  1        1 0.98123911E-01 0.88183518E+02</pdfrwt>
<pdfrwt beam="2">  1       -1 0.10246441E-02 0.88183518E+02</pdfrwt>
<totfact> 0.51799142E+04</totfact>
</mgrwt>
</event>
<event>
 6    1  0.2995420E-002  0.1004347E+03  0.7546771E-02  0.1326603E+00
         -2   -1    0    0    0  501 -0.00000000000E+00  0.00000000000E+00  0.10707818807E+03  0.10707818807E+03  0.00000000000E+00 0.  1.
          2   -1    0    0  501    0  0.00000000000E+00 -0.00000000000E+00 -0.49913069864E+02  0.49913069864E+02  0.00000000000E+00 0. -1.
         23    2    1    2    0    0 -0.50936108972E+01 -0.41908149100E+02  0.55483516475E+02  0.11474122104E+03  0.91131165762E+02 0.  0.
         13    1    3    3    0    0  0.18628185536E+02  0.74381118420E+01  0.56525978075E+02  0.59979338121E+02  0.00000000000E+00 0.  1.
        -13    1    3    3    0    0 -0.23721796433E+02 -0.49346260942E+02 -0.10424615997E+01  0.54761882922E+02  0.00000000000E+00 0. -1.
         22    1    1    2    0    0  0.50936108972E+01  0.41908149100E+02  0.16816017310E+01  0.42250036892E+02  0.00000000000E+00 0.  1.
<mgrwt>
<rscale>  0 0.80869269E+02</rscale>
<asrwt>0</asrwt>
<pdfrwt beam="1">  1        2 0.76789339E-02 0.10043469E+03</pdfrwt>
<pdfrwt beam="2">  1       -2 0.16473567E-01 0.10043469E+03</pdfrwt>
<totfact> 0.23353101E+04</totfact>
</mgrwt>
</event>
<event>
 6    1  0.2995420E-002  0.1182524E+03  0.7546771E-02  0.1268305E+00
          2   -1    0    0  501    0  0.00000000000E+00  0.00000000000E+00  0.34288021309E+02  0.34288021309E+02  0.00000000000E+00 0.  1.
         -2   -1    0    0    0  501 -0.00000000000E+00 -0.00000000000E+00 -0.34861498481E+03  0.34861498481E+03  0.00000000000E+00 0. -1.
         23    2    1    2    0    0 -0.46943049738E+02  0.59942095916E+02 -0.98044433346E+02  0.15361097043E+03  0.90481570189E+02 0.  0.
         13    1    3    3    0    0  0.19941902761E+02 -0.75954673689E+01 -0.29557185169E+02  0.36455422168E+02  0.00000000000E+00 0. -1.
        -13    1    3    3    0    0 -0.66884952498E+02  0.67537563285E+02 -0.68487248176E+02  0.11715554826E+03  0.00000000000E+00 0.  1.
         22    1    1    2    0    0  0.46943049738E+02 -0.59942095916E+02 -0.21628253016E+03  0.22929203569E+03  0.00000000000E+00 0. -1.
<mgrwt>
<rscale>  0 0.10592659E+03</rscale>
<asrwt>0</asrwt>
<pdfrwt beam="1">  1        2 0.52750802E-02 0.11825235E+03</pdfrwt>
<pdfrwt beam="2">  1       -2 0.53633075E-01 0.11825235E+03</pdfrwt>
<totfact> 0.45837736E+03</totfact>
</mgrwt>
</event>
<event>
 6    1  0.2995420E-002  0.1022894E+03  0.7546771E-02  0.1321464E+00
         -2   -1    0    0    0  501 -0.00000000000E+00  0.00000000000E+00  0.56208364780E+01  0.56208364780E+01  0.00000000000E+00 0.  1.
          2   -1    0    0  501    0  0.00000000000E+00 -0.00000000000E+00 -0.97449001384E+03  0.97449001384E+03  0.00000000000E+00 0. -1.
         23    2    1    2    0    0  0.10609134867E+02 -0.42473928264E+02 -0.74625310350E+03  0.75323091585E+03  0.92447443319E+02 0.  0.
         13    1    3    3    0    0  0.27145583312E+02 -0.55143671320E+02 -0.28709550345E+03  0.29360097970E+03  0.00000000000E+00 0. -1.
        -13    1    3    3    0    0 -0.16536448444E+02  0.12669743055E+02 -0.45915760005E+03  0.45962993615E+03  0.00000000000E+00 0.  1.
         22    1    1    2    0    0 -0.10609134867E+02  0.42473928264E+02 -0.22261607386E+03  0.22687993447E+03  0.00000000000E+00 0.  1.
<mgrwt>
<rscale>  0 0.82734954E+02</rscale>
<asrwt>0</asrwt>
<pdfrwt beam="1">  1        2 0.14992155E+00 0.10228938E+03</pdfrwt>
<pdfrwt beam="2">  1       -2 0.86474403E-03 0.10228938E+03</pdfrwt>
<totfact> 0.64981401E+04</totfact>
</mgrwt>
</event>
<event>
 6    1  0.2995420E-002  0.9544458E+02  0.7546771E-02  0.1356069E+00
          2   -1    0    0  501    0  0.00000000000E+00  0.00000000000E+00  0.12855273377E+03  0.12855273377E+03  0.00000000000E+00 0. -1.
         -2   -1    0    0    0  501 -0.00000000000E+00 -0.00000000000E+00 -0.31505278967E+02  0.31505278967E+02  0.00000000000E+00 0.  1.
         23    2    1    2    0    0 -0.20212354842E+02 -0.21559210620E+02  0.86105638015E+02  0.12854512322E+03  0.90754222800E+02 0.  0.
         11    1    3    3    0    0 -0.13020366537E+02 -0.19344122430E+02  0.10534056243E+03  0.10789049593E+03  0.00000000000E+00 0. -1.
        -11    1    3    3    0    0 -0.71919883053E+01 -0.22150881900E+01 -0.19234924418E+02  0.20654627299E+02  0.00000000000E+00 0.  1.
         22    1    1    2    0    0  0.20212354842E+02  0.21559210620E+02  0.10941816791E+02  0.31512889514E+02  0.00000000000E+00 0.  1.
<mgrwt>
<rscale>  0 0.71196935E+02</rscale>
<asrwt>0</asrwt>
<pdfrwt beam="1">  1        2 0.19777343E-01 0.95444580E+02</pdfrwt>
<pdfrwt beam="2">  1       -2 0.48469661E-02 0.95444580E+02</pdfrwt>
<totfact> 0.50347127E+04</totfact>
</mgrwt>
</event>
<event>
 6    1  0.2995420E-002  0.9290125E+02  0.7546771E-02  0.1397745E+00
          2   -1    0    0  501    0  0.00000000000E+00  0.00000000000E+00  0.46145233918E+03  0.46145233918E+03  0.00000000000E+00 0. -1.
         -2   -1    0    0    0  501 -0.00000000000E+00 -0.00000000000E+00 -0.69257097168E+01  0.69257097168E+01  0.00000000000E+00 0.  1.
         23    2    1    2    0    0 -0.77860180300E+01  0.14190195526E+02  0.42126665536E+03  0.43138873148E+03  0.91480374953E+02 0.  0.
         11    1    3    3    0    0 -0.12122713192E+02  0.50945896116E+02  0.18611308607E+03  0.19334043890E+03  0.00000000000E+00 0.  1.
        -11    1    3    3    0    0  0.43366951624E+01 -0.36755700590E+02  0.23515356929E+03  0.23804829258E+03  0.00000000000E+00 0. -1.
         22    1    1    2    0    0  0.77860180300E+01 -0.14190195526E+02  0.33259974103E+02  0.36989317420E+02  0.00000000000E+00 0.  1.
<mgrwt>
<rscale>  0 0.60020618E+02</rscale>
<asrwt>0</asrwt>
<pdfrwt beam="1">  1        2 0.70992644E-01 0.92901253E+02</pdfrwt>
<pdfrwt beam="2">  1       -2 0.10654942E-02 0.92901253E+02</pdfrwt>
<totfact> 0.11459285E+05</totfact>
</mgrwt>
</event>
<event>
 6    1  0.2995420E-002  0.9066603E+02  0.7546771E-02  0.1427981E+00
         -2   -1    0    0    0  501 -0.00000000000E+00  0.00000000000E+00  0.49311521490E+02  0.49311521490E+02  0.00000000000E+00 0.  1.
          2   -1    0    0  501    0  0.00000000000E+00 -0.00000000000E+00 -0.57532626039E+02  0.57532626039E+02  0.00000000000E+00 0. -1.
         23    2    1    2    0    0 -0.66316280530E+01  0.86298420786E+01 -0.17739886628E+02  0.92385244486E+02  0.90010428041E+02 0.  0.
         11    1    3    3    0    0  0.17200919930E+02 -0.30665596885E+01 -0.48618797510E+02  0.51662974228E+02  0.00000000000E+00 0. -1.
        -11    1    3    3    0    0 -0.23832547983E+02  0.11696401767E+02  0.30878910882E+02  0.40722270258E+02  0.00000000000E+00 0.  1.
         22    1    1    2    0    0  0.66316280530E+01 -0.86298420786E+01  0.95187820786E+01  0.14458903043E+02  0.00000000000E+00 0. -1.
<mgrwt>
<rscale>  0 0.53367465E+02</rscale>
<asrwt>0</asrwt>
<pdfrwt beam="1">  1        2 0.88511732E-02 0.90666035E+02</pdfrwt>
<pdfrwt beam="2">  1       -2 0.75863879E-02 0.90666035E+02</pdfrwt>
<totfact> 0.65548669E+04</totfact>
</mgrwt>
</event>
<event>
 6    1  0.2995420E-002  0.9109422E+02  0.7546771E-02  0.1414432E+00
         -2   -1    0    0    0  501 -0.00000000000E+00  0.00000000000E+00  0.83241425658E+01  0.83241425658E+01  0.00000000000E+00 0.  1.
          2   -1    0    0  501    0  0.00000000000E+00 -0.00000000000E+00 -0.58165391580E+03  0.58165391580E+03  0.00000000000E+00 0. -1.
         23    2    1    2    0    0  0.74029011690E+01  0.10943765879E+02 -0.56874316410E+03  0.57599213899E+03  0.90130952002E+02 0.  0.
         13    1    3    3    0    0 -0.64410645676E+01 -0.25585152637E+02 -0.45430043158E+03  0.45506589576E+03  0.00000000000E+00 0. -1.
        -13    1    3    3    0    0  0.13843965737E+02  0.36528918515E+02 -0.11444273252E+03  0.12092624323E+03  0.00000000000E+00 0.  1.
         22    1    1    2    0    0 -0.74029011690E+01 -0.10943765879E+02 -0.45866091260E+01  0.13985919369E+02  0.00000000000E+00 0. -1.
<mgrwt>
<rscale>  0 0.56216526E+02</rscale>
<asrwt>0</asrwt>
<pdfrwt beam="1">  1        2 0.89485198E-01 0.91094223E+02</pdfrwt>
<pdfrwt beam="2">  1       -2 0.12806376E-02 0.91094223E+02</pdfrwt>
<totfact> 0.68414031E+04</totfact>
</mgrwt>
</event>
<event>
 6    1  0.2995420E-002  0.9272217E+02  0.7546771E-02  0.1382242E+00
         -2   -1    0    0    0  501 -0.00000000000E+00  0.00000000000E+00  0.10304942307E+03  0.10304942307E+03  0.00000000000E+00 0.  1.
          2   -1    0    0  501    0  0.00000000000E+00 -0.00000000000E+00 -0.31788667403E+02  0.31788667403E+02  0.00000000000E+00 0. -1.
         23    2    1    2    0    0 -0.18049400471E+02 -0.10509367825E+02  0.64248367788E+02  0.11280626683E+03  0.90339212986E+02 0.  0.
         11    1    3    3    0    0 -0.27774014903E+02 -0.43141619081E+02  0.59270665881E+02  0.78393922180E+02  0.00000000000E+00 0.  1.
        -11    1    3    3    0    0  0.97246144315E+01  0.32632251256E+02  0.49777019062E+01  0.34412344648E+02  0.00000000000E+00 0. -1.
         22    1    1    2    0    0  0.18049400471E+02  0.10509367825E+02  0.70123878830E+01  0.22031823648E+02  0.00000000000E+00 0.  1.
<mgrwt>
<rscale>  0 0.63878079E+02</rscale>
<asrwt>0</asrwt>
<pdfrwt beam="1">  1        2 0.48905643E-02 0.92722171E+02</pdfrwt>
<pdfrwt beam="2">  1       -2 0.15853757E-01 0.92722171E+02</pdfrwt>
<totfact> 0.43681180E+04</totfact>
</mgrwt>
</event>
<event>
 6    1  0.2995420E-002  0.9773167E+02  0.7546771E-02  0.1347243E+00
          2   -1    0    0  501    0  0.00000000000E+00  0.00000000000E+00  0.48295135247E+02  0.48295135247E+02  0.00000000000E+00 0. -1.
         -2   -1    0    0    0  501 -0.00000000000E+00 -0.00000000000E+00 -0.93952752840E+02  0.93952752840E+02  0.00000000000E+00 0.  1.
         23    2    1    2    0    0  0.29460427776E+02  0.12461421672E+02 -0.16796293279E+02  0.99164482048E+02  0.92348661047E+02 0.  0.
         13    1    3    3    0    0  0.10321834663E+02  0.26417970090E+02 -0.50529536588E+02  0.57945521676E+02  0.00000000000E+00 0.  1.
        -13    1    3    3    0    0  0.19138593112E+02 -0.13956548418E+02  0.33733243309E+02  0.41218960372E+02  0.00000000000E+00 0. -1.
         22    1    1    2    0    0 -0.29460427776E+02 -0.12461421672E+02 -0.28861324313E+02  0.43083406039E+02  0.00000000000E+00 0. -1.
<mgrwt>
<rscale>  0 0.73921667E+02</rscale>
<asrwt>0</asrwt>
<pdfrwt beam="1">  1        2 0.74300209E-02 0.97731669E+02</pdfrwt>
<pdfrwt beam="2">  1       -2 0.14454270E-01 0.97731669E+02</pdfrwt>
<totfact> 0.30003650E+04</totfact>
</mgrwt>
</event>
<event>
 6    1  0.2995420E-002  0.8734266E+02  0.7546771E-02  0.1437963E+00
         -1   -1    0    0    0  501 -0.00000000000E+00  0.00000000000E+00  0.44129419159E+02  0.44129419159E+02  0.00000000000E+00 0.  1.
          1   -1    0    0  501    0  0.00000000000E+00 -0.00000000000E+00 -0.52603968042E+03  0.52603968042E+03  0.00000000000E+00 0. -1.
         23    2    1    2    0    0 -0.10423183120E+02  0.99816925518E+00 -0.52173265830E+03  0.52899310665E+03  0.86712750279E+02 0.  0.
         11    1    3    3    0    0 -0.28597835088E+02  0.34371934841E+02 -0.19514720134E+03  0.20020413649E+03  0.00000000000E+00 0.  1.
        -11    1    3    3    0    0  0.18174651967E+02 -0.33373765586E+02 -0.32658545696E+03  0.32878897016E+03  0.00000000000E+00 0. -1.
         22    1    1    2    0    0  0.10423183120E+02 -0.99816925518E+00  0.39822397035E+02  0.41175992931E+02  0.00000000000E+00 0.  1.
<mgrwt>
<rscale>  0 0.51394363E+02</rscale>
<asrwt>0</asrwt>
<pdfrwt beam="1">  1        1 0.80929187E-01 0.87342659E+02</pdfrwt>
<pdfrwt beam="2">  1       -1 0.67891410E-02 0.87342659E+02</pdfrwt>
<totfact> 0.44083223E+03</totfact>
</mgrwt>
</event>
<event>
 6    1  0.2995420E-002  0.9563978E+02  0.7546771E-02  0.1369476E+00
         -2   -1    0    0    0  501 -0.00000000000E+00  0.00000000000E+00  0.36991791679E+01  0.36991791679E+01  0.00000000000E+00 0.  1.
          2   -1    0    0  501    0  0.00000000000E+00 -0.00000000000E+00 -0.14924895654E+04  0.14924895654E+04  0.00000000000E+00 0. -1.
         23    2    1    2    0    0 -0.21240458691E+02  0.99799464858E+01 -0.14252107858E+04  0.14284161689E+04  0.92715755314E+02 0.  0.
         11    1    3    3    0    0  0.96712982418E+01 -0.26865276035E+02 -0.17775986363E+03  0.18003845752E+03  0.00000000000E+00 0.  1.
        -11    1    3    3    0    0 -0.30911756932E+02  0.36845222521E+02 -0.12474509221E+04  0.12483777114E+04  0.00000000000E+00 0. -1.
         22    1    1    2    0    0  0.21240458691E+02 -0.99799464858E+01 -0.63579600407E+02  0.67772575613E+02  0.00000000000E+00 0.  1.
<mgrwt>
<rscale>  0 0.67312989E+02</rscale>
<asrwt>0</asrwt>
<pdfrwt beam="1">  1        2 0.22961364E+00 0.95639781E+02</pdfrwt>
<pdfrwt beam="2">  1       -2 0.56910484E-03 0.95639781E+02</pdfrwt>
<totfact> 0.60781605E+04</totfact>
</mgrwt>
</event>
<event>
 6    1  0.2995420E-002  0.9055231E+02  0.7546771E-02  0.1425775E+00
          2   -1    0    0  501    0  0.00000000000E+00  0.00000000000E+00  0.54365782068E+03  0.54365782068E+03  0.00000000000E+00 0. -1.
         -2   -1    0    0    0  501 -0.00000000000E+00 -0.00000000000E+00 -0.48777101636E+01  0.48777101636E+01  0.00000000000E+00 0.  1.
         23    2    1    2    0    0  0.10841563579E+02  0.31787218941E+01  0.50039619834E+03  0.50852342658E+03  0.89844734361E+02 0.  0.
         11    1    3    3    0    0  0.20642848786E+01  0.29058972087E+01 -0.32362416298E+01  0.48144335632E+01  0.00000000000E+00 0.  1.
        -11    1    3    3    0    0  0.87772787008E+01  0.27282468544E+00  0.50363243997E+03  0.50370899302E+03  0.00000000000E+00 0. -1.
         22    1    1    2    0    0 -0.10841563579E+02 -0.31787218941E+01  0.38383912170E+02  0.40012104258E+02  0.00000000000E+00 0.  1.
<mgrwt>
<rscale>  0 0.53817633E+02</rscale>
<asrwt>0</asrwt>
<pdfrwt beam="1">  1        2 0.83639617E-01 0.90552306E+02</pdfrwt>
<pdfrwt beam="2">  1       -2 0.75041738E-03 0.90552306E+02</pdfrwt>
<totfact> 0.15689578E+05</totfact>
</mgrwt>
</event>
<event>
 6    1  0.2995420E-002  0.1021281E+03  0.7546771E-02  0.1340932E+00
         -2   -1    0    0    0  501 -0.00000000000E+00  0.00000000000E+00  0.32817358492E+01  0.32817358492E+01  0.00000000000E+00 0.  1.
          2   -1    0    0  501    0  0.00000000000E+00 -0.00000000000E+00 -0.15400048648E+04  0.15400048648E+04  0.00000000000E+00 0. -1.
         23    2    1    2    0    0  0.30802735856E+02  0.52631745198E+01 -0.13594111496E+04  0.13632420296E+04  0.97229872331E+02 0.  0.
         11    1    3    3    0    0  0.48054503780E+02 -0.27621335733E+02 -0.10734128171E+04  0.10748428952E+04  0.00000000000E+00 0. -1.
        -11    1    3    3    0    0 -0.17251767924E+02  0.32884510253E+02 -0.28599833251E+03  0.28839913438E+03  0.00000000000E+00 0.  1.
         22    1    1    2    0    0 -0.30802735856E+02 -0.52631745198E+01 -0.17731197933E+03  0.18004457103E+03  0.00000000000E+00 0. -1.
<mgrwt>
<rscale>  0 0.75957146E+02</rscale>
<asrwt>0</asrwt>
<pdfrwt beam="1">  1        2 0.23692442E+00 0.10212814E+03</pdfrwt>
<pdfrwt beam="2">  1       -2 0.50488118E-03 0.10212814E+03</pdfrwt>
<totfact> 0.68454227E+04</totfact>
</mgrwt>
</event>
<event>
 6    1  0.2995420E-002  0.2571811E+03  0.7546771E-02  0.1111688E+00
         -2   -1    0    0    0  501 -0.00000000000E+00  0.00000000000E+00  0.21949133376E+03  0.21949133376E+03  0.00000000000E+00 0.  1.
          2   -1    0    0  501    0  0.00000000000E+00 -0.00000000000E+00 -0.28159862692E+03  0.28159862692E+03  0.00000000000E+00 0. -1.
         23    2    1    2    0    0 -0.10264384480E+03  0.21610903235E+03 -0.17987262602E+02  0.25780936171E+03  0.94357048656E+02 0.  0.
         13    1    3    3    0    0 -0.91882735403E+02  0.20183696654E+03 -0.44154547847E+02  0.22611992885E+03  0.00000000000E+00 0. -1.
        -13    1    3    3    0    0 -0.10761109398E+02  0.14272065808E+02  0.26167285245E+02  0.31689432860E+02  0.00000000000E+00 0.  1.
         22    1    1    2    0    0  0.10264384480E+03 -0.21610903235E+03 -0.44120030566E+02  0.24328059897E+03  0.00000000000E+00 0.  1.
<mgrwt>
<rscale>  0 0.25257519E+03</rscale>
<asrwt>0</asrwt>
<pdfrwt beam="1">  1        2 0.43322865E-01 0.25718111E+03</pdfrwt>
<pdfrwt beam="2">  1       -2 0.33767898E-01 0.25718111E+03</pdfrwt>
<totfact> 0.96297208E+02</totfact>
</mgrwt>
</event>
<event>
 6    1  0.2995420E-002  0.9868800E+02  0.7546771E-02  0.1359452E+00
         -2   -1    0    0    0  501 -0.00000000000E+00  0.00000000000E+00  0.48340997279E+02  0.48340997279E+02  0.00000000000E+00 0.  1.
          2   -1    0    0  501    0  0.00000000000E+00 -0.00000000000E+00 -0.42934089244E+03  0.42934089244E+03  0.00000000000E+00 0. -1.
         23    2    1    2    0    0  0.25220811099E+02  0.12371888876E+01 -0.41987982800E+03  0.43132167913E+03  0.95402835292E+02 0.  0.
         13    1    3    3    0    0 -0.12544852893E+02 -0.21413917395E+02 -0.33295001355E+03  0.33387368976E+03  0.00000000000E+00 0. -1.
        -13    1    3    3    0    0  0.37765663991E+02  0.22651106283E+02 -0.86929814448E+02  0.97447989371E+02  0.00000000000E+00 0.  1.
         22    1    1    2    0    0 -0.25220811099E+02 -0.12371888876E+01  0.38879932833E+02  0.46360210590E+02  0.00000000000E+00 0.  1.
<mgrwt>
<rscale>  0 0.70188909E+02</rscale>
<asrwt>0</asrwt>
<pdfrwt beam="1">  1        2 0.66052444E-01 0.98687998E+02</pdfrwt>
<pdfrwt beam="2">  1       -2 0.74370766E-02 0.98687998E+02</pdfrwt>
<totfact> 0.73175764E+03</totfact>
</mgrwt>
</event>
<event>
 6    1  0.2995420E-002  0.9359771E+02  0.7546771E-02  0.1378599E+00
         -2   -1    0    0    0  501 -0.00000000000E+00  0.00000000000E+00  0.20625202752E+01  0.20625202752E+01  0.00000000000E+00 0.  1.
          2   -1    0    0  501    0  0.00000000000E+00 -0.00000000000E+00 -0.20077125405E+04  0.20077125405E+04  0.00000000000E+00 0. -1.
         23    2    1    2    0    0 -0.13326225525E+02 -0.16932504927E+02 -0.18770653722E+04  0.18793974948E+04  0.91083663870E+02 0.  0.
         13    1    3    3    0    0  0.20720625764E+02 -0.33101831032E+02 -0.14876088375E+04  0.14881213422E+04  0.00000000000E+00 0. -1.
        -13    1    3    3    0    0 -0.34046851289E+02  0.16169326105E+02 -0.38945653470E+03  0.39127615262E+03  0.00000000000E+00 0.  1.
         22    1    1    2    0    0  0.13326225525E+02  0.16932504927E+02 -0.12858464801E+03  0.13037756599E+03  0.00000000000E+00 0.  1.
<mgrwt>
<rscale>  0 0.64833360E+02</rscale>
<asrwt>0</asrwt>
<pdfrwt beam="1">  1        2 0.30887960E+00 0.93597713E+02</pdfrwt>
<pdfrwt beam="2">  1       -2 0.31731004E-03 0.93597713E+02</pdfrwt>
<totfact> 0.75519211E+04</totfact>
</mgrwt>
</event>
<event>
 6    1  0.2995420E-002  0.9210422E+02  0.7546771E-02  0.1409155E+00
         -2   -1    0    0    0  501 -0.00000000000E+00  0.00000000000E+00  0.71140334326E+03  0.71140334326E+03  0.00000000000E+00 0.  1.
          2   -1    0    0  501    0  0.00000000000E+00 -0.00000000000E+00 -0.40083834629E+01  0.40083834629E+01  0.00000000000E+00 0. -1.
         23    2    1    2    0    0 -0.13862176622E+02  0.63464085580E+00  0.64088960414E+03  0.64747407118E+03  0.91052871700E+02 0.  0.
         11    1    3    3    0    0  0.54974811461E+00 -0.10292292287E+02  0.52313386188E+01  0.11558564238E+02  0.00000000000E+00 0. -1.
        -11    1    3    3    0    0 -0.14411924736E+02  0.10926933143E+02  0.63565826552E+03  0.63591550694E+03  0.00000000000E+00 0.  1.
         22    1    1    2    0    0  0.13862176622E+02 -0.63464085580E+00  0.66505355654E+02  0.67937655541E+02  0.00000000000E+00 0.  1.
<mgrwt>
<rscale>  0 0.57382727E+02</rscale>
<asrwt>0</asrwt>
<pdfrwt beam="1">  1        2 0.61667494E-03 0.92104224E+02</pdfrwt>
<pdfrwt beam="2">  1       -2 0.10944657E+00 0.92104224E+02</pdfrwt>
<totfact> 0.17342197E+04</totfact>
</mgrwt>
</event>
<event>
 6    1  0.2995420E-002  0.9194774E+02  0.7546771E-02  0.1424707E+00
         -3   -1    0    0    0  501 -0.00000000000E+00  0.00000000000E+00  0.34479483743E+02  0.34479483743E+02  0.00000000000E+00 0.  1.
          3   -1    0    0  501    0  0.00000000000E+00 -0.00000000000E+00 -0.77187351166E+02  0.77187351166E+02  0.00000000000E+00 0. -1.
         23    2    1    2    0    0  0.39682811628E+01 -0.10225639774E+02 -0.35613098134E+02  0.98603653234E+02  0.91291164459E+02 0.  0.
         13    1    3    3    0    0  0.22388043859E+02 -0.70610473122E+00 -0.61491117603E+02  0.65443721134E+02  0.00000000000E+00 0. -1.
        -13    1    3    3    0    0 -0.18419762696E+02 -0.95195350430E+01  0.25878019470E+02  0.33159932100E+02  0.00000000000E+00 0.  1.
         22    1    1    2    0    0 -0.39682811628E+01  0.10225639774E+02 -0.70947692896E+01  0.13063181674E+02  0.00000000000E+00 0. -1.
<mgrwt>
<rscale>  0 0.54037340E+02</rscale>
<asrwt>0</asrwt>
<pdfrwt beam="1">  1        3 0.11874977E-01 0.91947744E+02</pdfrwt>
<pdfrwt beam="2">  1       -3 0.53045360E-02 0.91947744E+02</pdfrwt>
<totfact> 0.23404945E+04</totfact>
</mgrwt>
</event>
<event>
 6    1  0.2995420E-002  0.9335019E+02  0.7546771E-02  0.1408240E+00
         -2   -1    0    0    0  501 -0.00000000000E+00  0.00000000000E+00  0.60089937794E+01  0.60089937794E+01  0.00000000000E+00 0.  1.
          2   -1    0    0  501    0  0.00000000000E+00 -0.00000000000E+00 -0.47521345515E+03  0.47521345515E+03  0.00000000000E+00 0. -1.
         23    2    1    2    0    0  0.92797281267E+01 -0.98333339065E+01 -0.41120625791E+03  0.42166911640E+03  0.92365845298E+02 0.  0.
         11    1    3    3    0    0 -0.17324302650E+02 -0.14463153423E+02 -0.37886425020E+03  0.37953581432E+03  0.00000000000E+00 0. -1.
        -11    1    3    3    0    0  0.26604030777E+02  0.46298195164E+01 -0.32342007707E+02  0.42133302088E+02  0.00000000000E+00 0.  1.
         22    1    1    2    0    0 -0.92797281267E+01  0.98333339065E+01 -0.57998203462E+02  0.59553332524E+02  0.00000000000E+00 0. -1.
<mgrwt>
<rscale>  0 0.57588496E+02</rscale>
<asrwt>0</asrwt>
<pdfrwt beam="1">  1        2 0.73109779E-01 0.93350186E+02</pdfrwt>
<pdfrwt beam="2">  1       -2 0.92446037E-03 0.93350186E+02</pdfrwt>
<totfact> 0.13587024E+05</totfact>
</mgrwt>
</event>
<event>
 6    1  0.2995420E-002  0.9155935E+02  0.7546771E-02  0.1398415E+00
         -2   -1    0    0    0  501 -0.00000000000E+00  0.00000000000E+00  0.48834851298E+02  0.48834851298E+02  0.00000000000E+00 0.  1.
          2   -1    0    0  501    0  0.00000000000E+00 -0.00000000000E+00 -0.77283347498E+02  0.77283347498E+02  0.00000000000E+00 0. -1.
         23    2    1    2    0    0 -0.68261753949E+01  0.15273263257E+02 -0.45490317827E+02  0.10223739216E+03  0.90018032077E+02 0.  0.
         13    1    3    3    0    0  0.95315762285E+01  0.11562483720E+02 -0.70527015926E+02  0.72101331129E+02  0.00000000000E+00 0. -1.
        -13    1    3    3    0    0 -0.16357751623E+02  0.37107795376E+01  0.25036698098E+02  0.30136061034E+02  0.00000000000E+00 0.  1.
         22    1    1    2    0    0  0.68261753949E+01 -0.15273263257E+02  0.17041821628E+02  0.23880806633E+02  0.00000000000E+00 0. -1.
<mgrwt>
<rscale>  0 0.59861340E+02</rscale>
<asrwt>0</asrwt>
<pdfrwt beam="1">  1        2 0.11889746E-01 0.91559354E+02</pdfrwt>
<pdfrwt beam="2">  1       -2 0.75130541E-02 0.91559354E+02</pdfrwt>
<totfact> 0.46633050E+04</totfact>
</mgrwt>
</event>
<event>
 6    1  0.2995420E-002  0.9387652E+02  0.7546771E-02  0.1403849E+00
         -1   -1    0    0    0  501 -0.00000000000E+00  0.00000000000E+00  0.19013005173E+03  0.19013005173E+03  0.00000000000E+00 0.  1.
          1   -1    0    0  501    0  0.00000000000E+00 -0.00000000000E+00 -0.16288181553E+02  0.16288181553E+02  0.00000000000E+00 0. -1.
         23    2    1    2    0    0  0.55798157443E+01  0.13104534621E+02  0.13022382516E+03  0.16053362777E+03  0.92789750706E+02 0.  0.
         13    1    3    3    0    0  0.18468079106E+02  0.35112700354E+02  0.12904091611E+03  0.13500196184E+03  0.00000000000E+00 0.  1.
        -13    1    3    3    0    0 -0.12888263361E+02 -0.22008165733E+02  0.11829090520E+01  0.25531665931E+02  0.00000000000E+00 0. -1.
         22    1    1    2    0    0 -0.55798157443E+01 -0.13104534621E+02  0.43618045019E+02  0.45884605508E+02  0.00000000000E+00 0. -1.
<mgrwt>
<rscale>  0 0.58589277E+02</rscale>
<asrwt>0</asrwt>
<pdfrwt beam="1">  1        1 0.25058742E-02 0.93876520E+02</pdfrwt>
<pdfrwt beam="2">  1       -1 0.29250776E-01 0.93876520E+02</pdfrwt>
<totfact> 0.40814048E+04</totfact>
</mgrwt>
</event>
<event>
 6    1  0.2995420E-002  0.9577368E+02  0.7546771E-02  0.1350151E+00
          2   -1    0    0  501    0  0.00000000000E+00  0.00000000000E+00  0.10898287523E+04  0.10898287523E+04  0.00000000000E+00 0. -1.
         -2   -1    0    0    0  501 -0.00000000000E+00 -0.00000000000E+00 -0.47508091647E+01  0.47508091647E+01  0.00000000000E+00 0.  1.
         23    2    1    2    0    0 -0.32270338949E+02 -0.21380601103E+01  0.97919450432E+03  0.98386710195E+03  0.90147939144E+02 0.  0.
         13    1    3    3    0    0 -0.10948628845E+02 -0.33570241793E+02  0.79569121182E+03  0.79647431734E+03  0.00000000000E+00 0. -1.
        -13    1    3    3    0    0 -0.21321710104E+02  0.31432181683E+02  0.18350329249E+03  0.18739278461E+03  0.00000000000E+00 0.  1.
         22    1    1    2    0    0  0.32270338949E+02  0.21380601103E+01  0.10588343886E+03  0.11071245956E+03  0.00000000000E+00 0.  1.
<mgrwt>
<rscale>  0 0.73008475E+02</rscale>
<asrwt>0</asrwt>
<pdfrwt beam="1">  1        2 0.16766576E+00 0.95773676E+02</pdfrwt>
<pdfrwt beam="2">  1       -2 0.73089458E-03 0.95773676E+02</pdfrwt>
<totfact> 0.70116023E+04</totfact>
</mgrwt>
</event>
<event>
 6    1  0.2995420E-002  0.1185230E+03  0.7546771E-02  0.1267884E+00
         -2   -1    0    0    0  501 -0.00000000000E+00  0.00000000000E+00  0.40445643871E+02  0.40445643871E+02  0.00000000000E+00 0.  1.
          2   -1    0    0  501    0  0.00000000000E+00 -0.00000000000E+00 -0.33465129631E+03  0.33465129631E+03  0.00000000000E+00 0. -1.
         23    2    1    2    0    0 -0.67278647041E+02  0.35852870371E+02 -0.68566717461E+02  0.13692730811E+03  0.90751574653E+02 0.  0.
         13    1    3    3    0    0  0.13310597729E+02 -0.17413369369E+02 -0.12294484945E+02  0.25130694474E+02  0.00000000000E+00 0. -1.
        -13    1    3    3    0    0 -0.80589244770E+02  0.53266239740E+02 -0.56272232517E+02  0.11179661364E+03  0.00000000000E+00 0.  1.
         22    1    1    2    0    0  0.67278647041E+02 -0.35852870371E+02 -0.22563893498E+03  0.23816963207E+03  0.00000000000E+00 0. -1.
<mgrwt>
<rscale>  0 0.10614294E+03</rscale>
<asrwt>0</asrwt>
<pdfrwt beam="1">  1        2 0.51484815E-01 0.11852296E+03</pdfrwt>
<pdfrwt beam="2">  1       -2 0.62224068E-02 0.11852296E+03</pdfrwt>
<totfact> 0.12665120E+04</totfact>
</mgrwt>
</event>
<event>
 6    1  0.2995420E-002  0.9117870E+02  0.7546771E-02  0.1408888E+00
         -2   -1    0    0    0  501 -0.00000000000E+00  0.00000000000E+00  0.18543214282E+03  0.18543214282E+03  0.00000000000E+00 0. -1.
          2   -1    0    0  501    0  0.00000000000E+00 -0.00000000000E+00 -0.15493853045E+02  0.15493853045E+02  0.00000000000E+00 0.  1.
         23    2    1    2    0    0 -0.13472313468E+02 -0.49806974593E+01  0.15719401423E+03  0.18172372682E+03  0.90040236567E+02 0.  0.
         11    1    3    3    0    0 -0.49750357621E+02  0.75934726536E+01  0.10937469024E+03  0.12039759871E+03  0.00000000000E+00 0.  1.
        -11    1    3    3    0    0  0.36278044153E+02 -0.12574170113E+02  0.47819323997E+02  0.61326128111E+02  0.00000000000E+00 0. -1.
         22    1    1    2    0    0  0.13472313468E+02  0.49806974593E+01  0.12744275538E+02  0.19202269042E+02  0.00000000000E+00 0. -1.
<mgrwt>
<rscale>  0 0.57442750E+02</rscale>
<asrwt>0</asrwt>
<pdfrwt beam="1">  1        2 0.23836698E-02 0.91178697E+02</pdfrwt>
<pdfrwt beam="2">  1       -2 0.28528020E-01 0.91178697E+02</pdfrwt>
<totfact> 0.41588158E+04</totfact>
</mgrwt>
</event>
<event>
 6    1  0.2995420E-002  0.9845232E+02  0.7546771E-02  0.1338484E+00
         -2   -1    0    0    0  501 -0.00000000000E+00  0.00000000000E+00  0.13145459715E+02  0.13145459715E+02  0.00000000000E+00 0.  1.
          2   -1    0    0  501    0  0.00000000000E+00 -0.00000000000E+00 -0.34583965296E+03  0.34583965296E+03  0.00000000000E+00 0. -1.
         23    2    1    2    0    0  0.30781808237E+02 -0.19416118828E+02 -0.24148819529E+03  0.26078613380E+03  0.91478706434E+02 0.  0.
         11    1    3    3    0    0  0.38254084611E+02  0.15651873101E+02 -0.20682645037E+03  0.21091594698E+03  0.00000000000E+00 0. -1.
        -11    1    3    3    0    0 -0.74722763741E+01 -0.35067991929E+02 -0.34661744919E+02  0.49870186815E+02  0.00000000000E+00 0.  1.
         22    1    1    2    0    0 -0.30781808237E+02  0.19416118828E+02 -0.91205997958E+02  0.98198978875E+02  0.00000000000E+00 0.  1.
<mgrwt>
<rscale>  0 0.76767285E+02</rscale>
<asrwt>0</asrwt>
<pdfrwt beam="1">  1        2 0.53206092E-01 0.98452319E+02</pdfrwt>
<pdfrwt beam="2">  1       -2 0.20223788E-02 0.98452319E+02</pdfrwt>
<totfact> 0.62738366E+04</totfact>
</mgrwt>
</event>
<event>
 6    1  0.2995420E-002  0.9225394E+02  0.7546771E-02  0.1419038E+00
         -1   -1    0    0    0  501 -0.00000000000E+00  0.00000000000E+00  0.29413234250E+02  0.29413234250E+02  0.00000000000E+00 0.  1.
          1   -1    0    0  501    0  0.00000000000E+00 -0.00000000000E+00 -0.98058920524E+02  0.98058920524E+02  0.00000000000E+00 0. -1.
         23    2    1    2    0    0 -0.11690163515E+02 -0.19179358093E+01 -0.69634657091E+02  0.11558449462E+03  0.91490171748E+02 0.  0.
         11    1    3    3    0    0 -0.37808756294E+02 -0.18185411911E+02 -0.73440563085E+02  0.84579711309E+02  0.00000000000E+00 0. -1.
        -11    1    3    3    0    0  0.26118592779E+02  0.16267476102E+02  0.38059059936E+01  0.31004783306E+02  0.00000000000E+00 0.  1.
         22    1    1    2    0    0  0.11690163515E+02  0.19179358093E+01  0.98897081715E+00  0.11887660159E+02  0.00000000000E+00 0.  1.
<mgrwt>
<rscale>  0 0.55225005E+02</rscale>
<asrwt>0</asrwt>
<pdfrwt beam="1">  1        1 0.15085988E-01 0.92253943E+02</pdfrwt>
<pdfrwt beam="2">  1       -1 0.45251130E-02 0.92253943E+02</pdfrwt>
<totfact> 0.64828384E+04</totfact>
</mgrwt>
</event>
<event>
 6    1  0.2995420E-002  0.9145500E+02  0.7546771E-02  0.1419684E+00
         -2   -1    0    0    0  501 -0.00000000000E+00  0.00000000000E+00  0.50982053647E+03  0.50982053647E+03  0.00000000000E+00 0.  1.
          2   -1    0    0  501    0  0.00000000000E+00 -0.00000000000E+00 -0.52646860714E+01  0.52646860714E+01  0.00000000000E+00 0. -1.
         23    2    1    2    0    0  0.11886587647E+02  0.19112245679E+01  0.45341038859E+03  0.46254188796E+03  0.90659108156E+02 0.  0.
         11    1    3    3    0    0 -0.54350288740E+01  0.44499459072E+01 -0.15922700777E+01  0.72025607556E+01  0.00000000000E+00 0. -1.
        -11    1    3    3    0    0  0.17321616521E+02 -0.25387213393E+01  0.45500265867E+03  0.45533932720E+03  0.00000000000E+00 0.  1.
         22    1    1    2    0    0 -0.11886587647E+02 -0.19112245679E+01  0.51145461811E+02  0.52543334583E+02  0.00000000000E+00 0. -1.
<mgrwt>
<rscale>  0 0.55087814E+02</rscale>
<asrwt>0</asrwt>
<pdfrwt beam="1">  1        2 0.80995210E-03 0.91455003E+02</pdfrwt>
<pdfrwt beam="2">  1       -2 0.78433890E-01 0.91455003E+02</pdfrwt>
<totfact> 0.25170484E+04</totfact>
</mgrwt>
</event>
<event>
 6    1  0.2995420E-002  0.1164847E+03  0.7546771E-02  0.1274464E+00
          2   -1    0    0  501    0  0.00000000000E+00  0.00000000000E+00  0.26952523602E+04  0.26952523602E+04  0.00000000000E+00 0. -1.
         -2   -1    0    0    0  501 -0.00000000000E+00 -0.00000000000E+00 -0.30744640694E+02  0.30744640694E+02  0.00000000000E+00 0.  1.
         23    2    1    2    0    0  0.62605206604E+02  0.32910102794E+02  0.26515306779E+04  0.26540880976E+04  0.92553809411E+02 0.  0.
         11    1    3    3    0    0  0.73861054693E+02  0.12455712934E+02  0.24599444222E+04  0.24610845496E+04  0.00000000000E+00 0. -1.
        -11    1    3    3    0    0 -0.11255848089E+02  0.20454389860E+02  0.19158625567E+03  0.19300354801E+03  0.00000000000E+00 0.  1.
         22    1    1    2    0    0 -0.62605206604E+02 -0.32910102794E+02  0.12977041665E+02  0.71908903275E+02  0.00000000000E+00 0.  1.
<mgrwt>
<rscale>  0 0.10282531E+03</rscale>
<asrwt>0</asrwt>
<pdfrwt beam="1">  1        2 0.41465402E+00 0.11648474E+03</pdfrwt>
<pdfrwt beam="2">  1       -2 0.47299468E-02 0.11648474E+03</pdfrwt>
<totfact> 0.69568400E+02</totfact>
</mgrwt>
</event>
<event>
 6    1  0.2995420E-002  0.9280269E+02  0.7546771E-02  0.1409464E+00
          2   -1    0    0  501    0  0.00000000000E+00  0.00000000000E+00  0.24108265241E+03  0.24108265241E+03  0.00000000000E+00 0. -1.
         -2   -1    0    0    0  501 -0.00000000000E+00 -0.00000000000E+00 -0.11718699532E+02  0.11718699532E+02  0.00000000000E+00 0.  1.
         23    2    1    2    0    0  0.11669341482E+02  0.67888719776E+01  0.20069499002E+03  0.22111268291E+03  0.91815451930E+02 0.  0.
         11    1    3    3    0    0  0.25508782697E+01  0.37337279148E+02  0.31429709906E+02  0.48871321435E+02  0.00000000000E+00 0.  1.
        -11    1    3    3    0    0  0.91184632119E+01 -0.30548407170E+02  0.16926528011E+03  0.17224136148E+03  0.00000000000E+00 0. -1.
         22    1    1    2    0    0 -0.11669341482E+02 -0.67888719776E+01  0.28668962856E+02  0.31688669025E+02  0.00000000000E+00 0. -1.
<mgrwt>
<rscale>  0 0.57313580E+02</rscale>
<asrwt>0</asrwt>
<pdfrwt beam="1">  1        2 0.37089635E-01 0.92802691E+02</pdfrwt>
<pdfrwt beam="2">  1       -2 0.18028770E-02 0.92802691E+02</pdfrwt>
<totfact> 0.10713133E+05</totfact>
</mgrwt>
</event>
<event>
 6    1  0.2995420E-002  0.1209574E+03  0.7546771E-02  0.1294480E+00
          2   -1    0    0  501    0  0.00000000000E+00  0.00000000000E+00  0.63825982975E+03  0.63825982975E+03  0.00000000000E+00 0. -1.
         -2   -1    0    0    0  501 -0.00000000000E+00 -0.00000000000E+00 -0.12211220432E+02  0.12211220432E+02  0.00000000000E+00 0.  1.
         23    2    1    2    0    0 -0.30714957454E+02 -0.30485372854E+02  0.54836521490E+03  0.56154705826E+03  0.11295097683E+03 0.  0.
         11    1    3    3    0    0  0.20471771125E+02 -0.68657433599E+01  0.17766714116E+02  0.27962259840E+02  0.00000000000E+00 0.  1.
        -11    1    3    3    0    0 -0.51186728578E+02 -0.23619629494E+02  0.53059850078E+03  0.53358479842E+03  0.00000000000E+00 0. -1.
         22    1    1    2    0    0  0.30714957454E+02  0.30485372854E+02  0.77683394419E+02  0.88923991914E+02  0.00000000000E+00 0.  1.
<mgrwt>
<rscale>  0 0.93548054E+02</rscale>
<asrwt>0</asrwt>
<pdfrwt beam="1">  1        2 0.98193794E-01 0.12095739E+03</pdfrwt>
<pdfrwt beam="2">  1       -2 0.18786498E-02 0.12095739E+03</pdfrwt>
<totfact> 0.36755062E+04</totfact>
</mgrwt>
</event>
<event>
 6    1  0.2995420E-002  0.8734160E+02  0.7546771E-02  0.1409977E+00
          2   -1    0    0  501    0  0.00000000000E+00  0.00000000000E+00  0.97782469936E+03  0.97782469936E+03  0.00000000000E+00 0. -1.
         -2   -1    0    0    0  501 -0.00000000000E+00 -0.00000000000E+00 -0.50480534944E+01  0.50480534944E+01  0.00000000000E+00 0.  1.
         23    2    1    2    0    0  0.13380333388E+02  0.88914465911E+01  0.95470810312E+03  0.95869500728E+03  0.85851404649E+02 0.  0.
         11    1    3    3    0    0 -0.22361574505E+02  0.23059070381E+02  0.16771004839E+03  0.17075837043E+03  0.00000000000E+00 0.  1.
        -11    1    3    3    0    0  0.35741907893E+02 -0.14167623790E+02  0.78699805473E+03  0.78793663685E+03  0.00000000000E+00 0. -1.
         22    1    1    2    0    0 -0.13380333388E+02 -0.88914465911E+01  0.18068542748E+02  0.24177745575E+02  0.00000000000E+00 0.  1.
<mgrwt>
<rscale>  0 0.57198875E+02</rscale>
<asrwt>0</asrwt>
<pdfrwt beam="1">  1        2 0.15043442E+00 0.87341598E+02</pdfrwt>
<pdfrwt beam="2">  1       -2 0.77662439E-03 0.87341598E+02</pdfrwt>
<totfact> 0.73892425E+04</totfact>
</mgrwt>
</event>
<event>
 6    1  0.2995420E-002  0.9785649E+02  0.7546771E-02  0.1352515E+00
         -2   -1    0    0    0  501 -0.00000000000E+00  0.00000000000E+00  0.60579741407E+02  0.60579741407E+02  0.00000000000E+00 0.  1.
          2   -1    0    0  501    0  0.00000000000E+00 -0.00000000000E+00 -0.67938690739E+02  0.67938690739E+02  0.00000000000E+00 0. -1.
         23    2    1    2    0    0 -0.19293344370E+02  0.21816378037E+02  0.21548772296E+01  0.97880214452E+02  0.93422189001E+02 0.  0.
         13    1    3    3    0    0 -0.54315495533E+02 -0.35122233622E+01  0.43548042558E+01  0.54602867031E+02  0.00000000000E+00 0.  1.
        -13    1    3    3    0    0  0.35022151163E+02  0.25328601399E+02 -0.21999270262E+01  0.43277347421E+02  0.00000000000E+00 0. -1.
         22    1    1    2    0    0  0.19293344370E+02 -0.21816378037E+02 -0.95138265612E+01  0.30638217694E+02  0.00000000000E+00 0. -1.
<mgrwt>
<rscale>  0 0.72277598E+02</rscale>
<asrwt>0</asrwt>
<pdfrwt beam="1">  1        2 0.10452106E-01 0.97856491E+02</pdfrwt>
<pdfrwt beam="2">  1       -2 0.93199602E-02 0.97856491E+02</pdfrwt>
<totfact> 0.39438063E+04</totfact>
</mgrwt>
</event>
<event>
 6    1  0.2995420E-002  0.9622998E+02  0.7546771E-02  0.1360728E+00
          2   -1    0    0  501    0  0.00000000000E+00  0.00000000000E+00  0.29288906253E+03  0.29288906253E+03  0.00000000000E+00 0. -1.
         -2   -1    0    0    0  501 -0.00000000000E+00 -0.00000000000E+00 -0.32313003090E+02  0.32313003090E+02  0.00000000000E+00 0.  1.
         23    2    1    2    0    0  0.24301524066E+02 -0.10958557060E+02  0.27744194132E+03  0.29365666950E+03  0.92463802091E+02 0.  0.
         13    1    3    3    0    0 -0.84706367223E+01  0.15353615767E+02  0.22839037701E+03  0.22906254498E+03  0.00000000000E+00 0. -1.
        -13    1    3    3    0    0  0.32772160789E+02 -0.26312172827E+02  0.49051564312E+02  0.64594124524E+02  0.00000000000E+00 0.  1.
         22    1    1    2    0    0 -0.24301524066E+02  0.10958557060E+02 -0.16865881875E+02  0.31545396118E+02  0.00000000000E+00 0.  1.
<mgrwt>
<rscale>  0 0.69813606E+02</rscale>
<asrwt>0</asrwt>
<pdfrwt beam="1">  1        2 0.45059854E-01 0.96229978E+02</pdfrwt>
<pdfrwt beam="2">  1       -2 0.49712315E-02 0.96229978E+02</pdfrwt>
<totfact> 0.20013278E+04</totfact>
</mgrwt>
</event>
<event>
 6    1  0.2995420E-002  0.1035781E+03  0.7546771E-02  0.1312450E+00
         -2   -1    0    0    0  501 -0.00000000000E+00  0.00000000000E+00  0.36066864697E+02  0.36066864697E+02  0.00000000000E+00 0.  1.
          2   -1    0    0  501    0  0.00000000000E+00 -0.00000000000E+00 -0.80782434715E+03  0.80782434715E+03  0.00000000000E+00 0. -1.
         23    2    1    2    0    0  0.39856514561E+02  0.29475107334E+02 -0.78561952669E+03  0.79241811231E+03  0.90945589704E+02 0.  0.
         13    1    3    3    0    0  0.47636763656E+02 -0.11412655584E+02 -0.60873584682E+03  0.61070356243E+03  0.00000000000E+00 0. -1.
        -13    1    3    3    0    0 -0.77802490950E+01  0.40887762918E+02 -0.17688367987E+03  0.18171454988E+03  0.00000000000E+00 0.  1.
         22    1    1    2    0    0 -0.39856514561E+02 -0.29475107334E+02  0.13862044243E+02  0.51473099537E+02  0.00000000000E+00 0.  1.
<mgrwt>
<rscale>  0 0.86150692E+02</rscale>
<asrwt>0</asrwt>
<pdfrwt beam="1">  1        2 0.12428067E+00 0.10357811E+03</pdfrwt>
<pdfrwt beam="2">  1       -2 0.55487486E-02 0.10357811E+03</pdfrwt>
<totfact> 0.55970825E+03</totfact>
</mgrwt>
</event>
<event>
 6    1  0.2995420E-002  0.8071787E+02  0.7546771E-02  0.1399450E+00
          2   -1    0    0  501    0  0.00000000000E+00  0.00000000000E+00  0.54139726182E+03  0.54139726182E+03  0.00000000000E+00 0. -1.
         -2   -1    0    0    0  501 -0.00000000000E+00 -0.00000000000E+00 -0.50855182654E+01  0.50855182654E+01  0.00000000000E+00 0.  1.
         23    2    1    2    0    0 -0.22506034845E+02 -0.83879227260E+01  0.42719731433E+03  0.43475616053E+03  0.77061630508E+02 0.  0.
         13    1    3    3    0    0 -0.95711649326E+01 -0.11650249572E+02  0.41863136073E+03  0.41890279505E+03  0.00000000000E+00 0. -1.
        -13    1    3    3    0    0 -0.12934869913E+02  0.32623268464E+01  0.85659536064E+01  0.15853365488E+02  0.00000000000E+00 0.  1.
         22    1    1    2    0    0  0.22506034845E+02  0.83879227260E+01  0.10911442923E+03  0.11172661956E+03  0.00000000000E+00 0.  1.
<mgrwt>
<rscale>  0 0.59615999E+02</rscale>
<asrwt>0</asrwt>
<pdfrwt beam="1">  1        2 0.83291841E-01 0.80717865E+02</pdfrwt>
<pdfrwt beam="2">  1       -2 0.78238785E-03 0.80717865E+02</pdfrwt>
<totfact> 0.14595326E+05</totfact>
</mgrwt>
</event>
<event>
 6    1  0.2995420E-002  0.1059414E+03  0.7546771E-02  0.1303785E+00
          2   -1    0    0  501    0  0.00000000000E+00  0.00000000000E+00  0.29659509165E+02  0.29659509165E+02  0.00000000000E+00 0. -1.
         -2   -1    0    0    0  501 -0.00000000000E+00 -0.00000000000E+00 -0.21715005694E+03  0.21715005694E+03  0.00000000000E+00 0.  1.
         23    2    1    2    0    0  0.47100562224E+02  0.26903908023E+02 -0.13127642025E+03  0.16869227377E+03  0.91001656501E+02 0.  0.
         13    1    3    3    0    0  0.51823623196E+02  0.40717599873E+02 -0.41824789771E+02  0.78057183526E+02  0.00000000000E+00 0. -1.
        -13    1    3    3    0    0 -0.47230609716E+01 -0.13813691850E+02 -0.89451630479E+02  0.90635090240E+02  0.00000000000E+00 0.  1.
         22    1    1    2    0    0 -0.47100562224E+02 -0.26903908023E+02 -0.56214127521E+02  0.78117292335E+02  0.00000000000E+00 0. -1.
<mgrwt>
<rscale>  0 0.89615866E+02</rscale>
<asrwt>0</asrwt>
<pdfrwt beam="1">  1        2 0.45630013E-02 0.10594142E+03</pdfrwt>
<pdfrwt beam="2">  1       -2 0.33407702E-01 0.10594142E+03</pdfrwt>
<totfact> 0.13513039E+04</totfact>
</mgrwt>
</event>
<event>
 6    1  0.2995420E-002  0.9387398E+02  0.7546771E-02  0.1388572E+00
         -1   -1    0    0    0  501 -0.00000000000E+00  0.00000000000E+00  0.37284424259E+01  0.37284424259E+01  0.00000000000E+00 0.  1.
          1   -1    0    0  501    0  0.00000000000E+00 -0.00000000000E+00 -0.92323632654E+03  0.92323632654E+03  0.00000000000E+00 0. -1.
         23    2    1    2    0    0  0.14996058399E+02 -0.10255564769E+02 -0.84820160015E+03  0.85338050088E+03  0.92099220505E+02 0.  0.
         13    1    3    3    0    0 -0.68004334730E+01  0.17756316025E+02 -0.72287299340E+03  0.72312301667E+03  0.00000000000E+00 0. -1.
        -13    1    3    3    0    0  0.21796491872E+02 -0.28011880794E+02 -0.12532860675E+03  0.13025748421E+03  0.00000000000E+00 0.  1.
         22    1    1    2    0    0 -0.14996058399E+02  0.10255564769E+02 -0.71306283963E+02  0.73584268080E+02  0.00000000000E+00 0. -1.
<mgrwt>
<rscale>  0 0.62263393E+02</rscale>
<asrwt>0</asrwt>
<pdfrwt beam="1">  1        1 0.14203623E+00 0.93873984E+02</pdfrwt>
<pdfrwt beam="2">  1       -1 0.57360704E-03 0.93873984E+02</pdfrwt>
<totfact> 0.68694469E+04</totfact>
</mgrwt>
</event>
<event>
 6    1  0.2995420E-002  0.8953037E+02  0.7546771E-02  0.1406307E+00
         -2   -1    0    0    0  501 -0.00000000000E+00  0.00000000000E+00  0.22364352997E+02  0.22364352997E+02  0.00000000000E+00 0.  1.
          2   -1    0    0  501    0  0.00000000000E+00 -0.00000000000E+00 -0.12561789424E+03  0.12561789424E+03  0.00000000000E+00 0. -1.
         23    2    1    2    0    0  0.11715369308E+02  0.10597334335E+02 -0.81297433681E+02  0.12093369770E+03  0.88125666762E+02 0.  0.
         11    1    3    3    0    0 -0.17073440467E+02  0.37616972720E+02 -0.15348551344E+02  0.44069456933E+02  0.00000000000E+00 0.  1.
        -11    1    3    3    0    0  0.28788809775E+02 -0.27019638384E+02 -0.65948882337E+02  0.76864240763E+02  0.00000000000E+00 0. -1.
         22    1    1    2    0    0 -0.11715369308E+02 -0.10597334335E+02 -0.21956107564E+02  0.27048549543E+02  0.00000000000E+00 0. -1.
<mgrwt>
<rscale>  0 0.58026076E+02</rscale>
<asrwt>0</asrwt>
<pdfrwt beam="1">  1        2 0.19325829E-01 0.89530366E+02</pdfrwt>
<pdfrwt beam="2">  1       -2 0.34406698E-02 0.89530366E+02</pdfrwt>
<totfact> 0.84803889E+04</totfact>
</mgrwt>
</event>
<event>
 6    1  0.2995420E-002  0.9065531E+02  0.7546771E-02  0.1400062E+00
          2   -1    0    0  501    0  0.00000000000E+00  0.00000000000E+00  0.72465317376E+02  0.72465317376E+02  0.00000000000E+00 0. -1.
         -2   -1    0    0    0  501 -0.00000000000E+00 -0.00000000000E+00 -0.62843677074E+02  0.62843677074E+02  0.00000000000E+00 0.  1.
         23    2    1    2    0    0  0.15307154317E+02  0.69003693576E+01  0.41173789308E+02  0.99567391557E+02  0.89086814203E+02 0.  0.
         11    1    3    3    0    0 -0.23067629946E+02  0.29853045320E+02  0.39788039478E+02  0.54830720875E+02  0.00000000000E+00 0. -1.
        -11    1    3    3    0    0  0.38374784262E+02 -0.22952675963E+02  0.13857498297E+01  0.44736670681E+02  0.00000000000E+00 0.  1.
         22    1    1    2    0    0 -0.15307154317E+02 -0.69003693576E+01 -0.31552149005E+02  0.35741602894E+02  0.00000000000E+00 0.  1.
<mgrwt>
<rscale>  0 0.59471849E+02</rscale>
<asrwt>0</asrwt>
<pdfrwt beam="1">  1        2 0.11148510E-01 0.90655306E+02</pdfrwt>
<pdfrwt beam="2">  1       -2 0.96682580E-02 0.90655306E+02</pdfrwt>
<totfact> 0.34140082E+04</totfact>
</mgrwt>
</event>
<event>
 6    1  0.2995420E-002  0.9219816E+02  0.7546771E-02  0.1410928E+00
          2   -1    0    0  501    0  0.00000000000E+00  0.00000000000E+00  0.15601785259E+04  0.15601785259E+04  0.00000000000E+00 0. -1.
         -2   -1    0    0    0  501 -0.00000000000E+00 -0.00000000000E+00 -0.22343157372E+01  0.22343157372E+01  0.00000000000E+00 0.  1.
         23    2    1    2    0    0 -0.14289815101E+01  0.13380773791E+02  0.15037178489E+04  0.15065416921E+04  0.91210820721E+02 0.  0.
         11    1    3    3    0    0 -0.10920997124E+02  0.14153230749E+02  0.14883826559E+04  0.14884900109E+04  0.00000000000E+00 0. -1.
        -11    1    3    3    0    0  0.94920156143E+01 -0.77245695840E+00  0.15335193017E+02  0.18051681225E+02  0.00000000000E+00 0.  1.
         22    1    1    2    0    0  0.14289815101E+01 -0.13380773791E+02  0.54226361177E+02  0.55871149459E+02  0.00000000000E+00 0.  1.
<mgrwt>
<rscale>  0 0.56987241E+02</rscale>
<asrwt>0</asrwt>
<pdfrwt beam="1">  1        2 0.24002659E+00 0.92198161E+02</pdfrwt>
<pdfrwt beam="2">  1       -2 0.34374213E-03 0.92198161E+02</pdfrwt>
<totfact> 0.11326995E+05</totfact>
</mgrwt>
</event>
<event>
 6    1  0.2995420E-002  0.9329846E+02  0.7546771E-02  0.1390181E+00
          2   -1    0    0  501    0  0.00000000000E+00  0.00000000000E+00  0.38332353573E+03  0.38332353573E+03  0.00000000000E+00 0. -1.
         -2   -1    0    0    0  501 -0.00000000000E+00 -0.00000000000E+00 -0.11759762520E+02  0.11759762520E+02  0.00000000000E+00 0.  1.
         23    2    1    2    0    0  0.17518717344E+02 -0.42749441280E+01  0.36358418314E+03  0.37536390520E+03  0.91539185554E+02 0.  0.
         11    1    3    3    0    0  0.53082011217E+01  0.52280748205E+01  0.35920662479E+03  0.35928388366E+03  0.00000000000E+00 0. -1.
        -11    1    3    3    0    0  0.12210516222E+02 -0.95030189485E+01  0.43775583501E+01  0.16080021538E+02  0.00000000000E+00 0.  1.
         22    1    1    2    0    0 -0.17518717344E+02  0.42749441280E+01  0.79795900717E+01  0.19719393053E+02  0.00000000000E+00 0.  1.
<mgrwt>
<rscale>  0 0.61861642E+02</rscale>
<asrwt>0</asrwt>
<pdfrwt beam="1">  1        2 0.58972842E-01 0.93298462E+02</pdfrwt>
<pdfrwt beam="2">  1       -2 0.18091945E-02 0.93298462E+02</pdfrwt>
<totfact> 0.65613237E+04</totfact>
</mgrwt>
</event>
<event>
 6    1  0.2995420E-002  0.1132543E+03  0.7546771E-02  0.1282135E+00
         -1   -1    0    0    0  501 -0.00000000000E+00  0.00000000000E+00  0.29240956638E+03  0.29240956638E+03  0.00000000000E+00 0.  1.
          1   -1    0    0  501    0  0.00000000000E+00 -0.00000000000E+00 -0.10280049804E+03  0.10280049804E+03  0.00000000000E+00 0. -1.
         23    2    1    2    0    0 -0.47607346924E+02 -0.46397052701E+02 -0.66010818234E+02  0.13108760723E+03  0.91691802610E+02 0.  0.
         11    1    3    3    0    0 -0.80566165076E+01 -0.32689839708E+02 -0.80126824376E+02  0.86912845278E+02  0.00000000000E+00 0. -1.
        -11    1    3    3    0    0 -0.39550730416E+02 -0.13707212993E+02  0.14116006142E+02  0.44174761956E+02  0.00000000000E+00 0.  1.
         22    1    1    2    0    0  0.47607346924E+02  0.46397052701E+02  0.25561988657E+03  0.26412245719E+03  0.00000000000E+00 0.  1.
<mgrwt>
<rscale>  0 0.99130722E+02</rscale>
<asrwt>0</asrwt>
<pdfrwt beam="1">  1        1 0.15815461E-01 0.11325428E+03</pdfrwt>
<pdfrwt beam="2">  1       -1 0.44986087E-01 0.11325428E+03</pdfrwt>
<totfact> 0.16830233E+03</totfact>
</mgrwt>
</event>
<event>
 6    1  0.2995420E-002  0.9398887E+02  0.7546771E-02  0.1369144E+00
         -2   -1    0    0    0  501 -0.00000000000E+00  0.00000000000E+00  0.14962158296E+02  0.14962158296E+02  0.00000000000E+00 0.  1.
          2   -1    0    0  501    0  0.00000000000E+00 -0.00000000000E+00 -0.27932788560E+03  0.27932788560E+03  0.00000000000E+00 0. -1.
         23    2    1    2    0    0  0.24379172602E+02  0.48815771063E+01 -0.24610436192E+03  0.26344119761E+03  0.90640685053E+02 0.  0.
         13    1    3    3    0    0 -0.15764208316E+01  0.40411898784E+02 -0.61071002101E+02  0.73248030442E+02  0.00000000000E+00 0.  1.
        -13    1    3    3    0    0  0.25955593434E+02 -0.35530321678E+02 -0.18503335982E+03  0.19019316716E+03  0.00000000000E+00 0. -1.
         22    1    1    2    0    0 -0.24379172602E+02 -0.48815771063E+01 -0.18261365381E+02  0.30848846289E+02  0.00000000000E+00 0.  1.
<mgrwt>
<rscale>  0 0.67405626E+02</rscale>
<asrwt>0</asrwt>
<pdfrwt beam="1">  1        2 0.42973519E-01 0.93988870E+02</pdfrwt>
<pdfrwt beam="2">  1       -2 0.23018706E-02 0.93988870E+02</pdfrwt>
<totfact> 0.64706108E+04</totfact>
</mgrwt>
</event>
<event>
 6    1  0.2995420E-002  0.8573456E+02  0.7546771E-02  0.1420182E+00
         -2   -1    0    0    0  501 -0.00000000000E+00  0.00000000000E+00  0.18697332033E+01  0.18697332033E+01  0.00000000000E+00 0.  1.
          2   -1    0    0  501    0  0.00000000000E+00 -0.00000000000E+00 -0.17504188631E+04  0.17504188631E+04  0.00000000000E+00 0. -1.
         23    2    1    2    0    0  0.50377844260E+01 -0.13598942661E+02 -0.16817248782E+04  0.16839088396E+04  0.84499133589E+02 0.  0.
         13    1    3    3    0    0  0.44996279632E+01 -0.40369536587E+02 -0.43400610863E+03  0.43590279704E+03  0.00000000000E+00 0. -1.
        -13    1    3    3    0    0  0.53815646276E+00  0.26770593926E+02 -0.12477187696E+04  0.12480060426E+04  0.00000000000E+00 0.  1.
         22    1    1    2    0    0 -0.50377844260E+01  0.13598942661E+02 -0.66824251697E+02  0.68379756714E+02  0.00000000000E+00 0.  1.
<mgrwt>
<rscale>  0 0.54982509E+02</rscale>
<asrwt>0</asrwt>
<pdfrwt beam="1">  1        2 0.26929453E+00 0.85734556E+02</pdfrwt>
<pdfrwt beam="2">  1       -2 0.28765199E-03 0.85734556E+02</pdfrwt>
<totfact> 0.11544156E+05</totfact>
</mgrwt>
</event>
<event>
 6    1  0.2995420E-002  0.9405279E+02  0.7546771E-02  0.1376420E+00
         -1   -1    0    0    0  501 -0.00000000000E+00  0.00000000000E+00  0.44657095286E+01  0.44657095286E+01  0.00000000000E+00 0.  1.
          1   -1    0    0  501    0  0.00000000000E+00 -0.00000000000E+00 -0.80941616507E+03  0.80941616507E+03  0.00000000000E+00 0. -1.
         23    2    1    2    0    0 -0.21928094026E+02  0.18690190445E+01 -0.72042214631E+03  0.72653561193E+03  0.91441740885E+02 0.  0.
         11    1    3    3    0    0 -0.43994726223E+02 -0.45481937485E+01 -0.66591273350E+03  0.66737994474E+03  0.00000000000E+00 0. -1.
        -11    1    3    3    0    0  0.22066632197E+02  0.64172127930E+01 -0.54509412809E+02  0.59155667196E+02  0.00000000000E+00 0.  1.
         22    1    1    2    0    0  0.21928094026E+02 -0.18690190445E+01 -0.84528309236E+02  0.87346262669E+02  0.00000000000E+00 0.  1.
<mgrwt>
<rscale>  0 0.65414184E+02</rscale>
<asrwt>0</asrwt>
<pdfrwt beam="1">  1        1 0.12452556E+00 0.94052786E+02</pdfrwt>
<pdfrwt beam="2">  1       -1 0.68703225E-03 0.94052786E+02</pdfrwt>
<totfact> 0.65306427E+04</totfact>
</mgrwt>
</event>
<event>
 6    1  0.2995420E-002  0.9513465E+02  0.7546771E-02  0.1363786E+00
          2   -1    0    0  501    0  0.00000000000E+00  0.00000000000E+00  0.63402465571E+03  0.63402465571E+03  0.00000000000E+00 0. -1.
         -2   -1    0    0    0  501 -0.00000000000E+00 -0.00000000000E+00 -0.10680302651E+02  0.10680302651E+02  0.00000000000E+00 0.  1.
         23    2    1    2    0    0  0.19228175429E+02  0.17814299166E+02  0.60565779344E+03  0.61308397836E+03  0.91452336126E+02 0.  0.
         11    1    3    3    0    0  0.31386758604E+02  0.11894580585E+01  0.66621994088E+02  0.73654826878E+02  0.00000000000E+00 0.  1.
        -11    1    3    3    0    0 -0.12158583174E+02  0.16624841107E+02  0.53903579935E+03  0.53942915149E+03  0.00000000000E+00 0. -1.
         22    1    1    2    0    0 -0.19228175429E+02 -0.17814299166E+02  0.17686559620E+02  0.31620980002E+02  0.00000000000E+00 0.  1.
<mgrwt>
<rscale>  0 0.68925405E+02</rscale>
<asrwt>0</asrwt>
<pdfrwt beam="1">  1        2 0.97542225E-01 0.95134651E+02</pdfrwt>
<pdfrwt beam="2">  1       -2 0.16431240E-02 0.95134651E+02</pdfrwt>
<totfact> 0.43749295E+04</totfact>
</mgrwt>
</event>
<event>
 6    1  0.2995420E-002  0.8518924E+02  0.7546771E-02  0.1375705E+00
         -2   -1    0    0    0  501 -0.00000000000E+00  0.00000000000E+00  0.14371543953E+03  0.14371543953E+03  0.00000000000E+00 0.  1.
          2   -1    0    0  501    0  0.00000000000E+00 -0.00000000000E+00 -0.41942153082E+02  0.41942153082E+02  0.00000000000E+00 0. -1.
         23    2    1    2    0    0  0.24534184596E+02  0.17206149599E+02  0.61070322102E+01  0.85407854470E+02  0.79744767634E+02 0.  0.
         11    1    3    3    0    0 -0.26483437605E+02  0.19972128949E+02 -0.37224810448E+01  0.33378365258E+02  0.00000000000E+00 0. -1.
        -11    1    3    3    0    0  0.51017622202E+02 -0.27659793499E+01  0.98295132550E+01  0.52029489213E+02  0.00000000000E+00 0.  1.
         22    1    1    2    0    0 -0.24534184596E+02 -0.17206149599E+02  0.95666254242E+02  0.10024973815E+03  0.00000000000E+00 0.  1.
<mgrwt>
<rscale>  0 0.65606480E+02</rscale>
<asrwt>0</asrwt>
<pdfrwt beam="1">  1        2 0.64526390E-02 0.85189235E+02</pdfrwt>
<pdfrwt beam="2">  1       -2 0.22110067E-01 0.85189235E+02</pdfrwt>
<totfact> 0.17448611E+04</totfact>
</mgrwt>
</event>
<event>
 6    1  0.2995420E-002  0.9426074E+02  0.7546771E-02  0.1382703E+00
          2   -1    0    0  501    0  0.00000000000E+00  0.00000000000E+00  0.19602856404E+03  0.19602856404E+03  0.00000000000E+00 0.  1.
         -2   -1    0    0    0  501 -0.00000000000E+00 -0.00000000000E+00 -0.18772704144E+02  0.18772704144E+02  0.00000000000E+00 0. -1.
         23    2    1    2    0    0 -0.15722612062E+02 -0.11921823657E+02  0.16879791165E+03  0.19333344813E+03  0.92172429599E+02 0.  0.
         11    1    3    3    0    0 -0.97893831209E+01  0.14562755875E+02  0.16499713013E+03  0.16592757104E+03  0.00000000000E+00 0.  1.
        -11    1    3    3    0    0 -0.59332289412E+01 -0.26484579531E+02  0.38007815181E+01  0.27405877084E+02  0.00000000000E+00 0. -1.
         22    1    1    2    0    0  0.15722612062E+02  0.11921823657E+02  0.84579482417E+01  0.21467820053E+02  0.00000000000E+00 0. -1.
<mgrwt>
<rscale>  0 0.63758476E+02</rscale>
<asrwt>0</asrwt>
<pdfrwt beam="1">  1        2 0.30158239E-01 0.94260740E+02</pdfrwt>
<pdfrwt beam="2">  1       -2 0.28881085E-02 0.94260740E+02</pdfrwt>
<totfact> 0.67762202E+04</totfact>
</mgrwt>
</event>
<event>
 6    1  0.2995420E-002  0.1082165E+03  0.7546771E-02  0.1297679E+00
         -1   -1    0    0    0  501 -0.00000000000E+00  0.00000000000E+00  0.39273803276E+02  0.39273803276E+02  0.00000000000E+00 0.  1.
          1   -1    0    0  501    0  0.00000000000E+00 -0.00000000000E+00 -0.20650722691E+03  0.20650722691E+03  0.00000000000E+00 0. -1.
         23    2    1    2    0    0  0.34384628587E+02 -0.45397235394E+02 -0.15243269352E+03  0.18693994525E+03  0.92019592536E+02 0.  0.
         11    1    3    3    0    0 -0.19198995565E-01 -0.32217909598E+02 -0.22411395305E+01  0.32295770217E+02  0.00000000000E+00 0.  1.
        -11    1    3    3    0    0  0.34403827583E+02 -0.13179325795E+02 -0.15019155399E+03  0.15464417503E+03  0.00000000000E+00 0. -1.
         22    1    1    2    0    0 -0.34384628587E+02  0.45397235394E+02 -0.14800730108E+02  0.58841084934E+02  0.00000000000E+00 0. -1.
<mgrwt>
<rscale>  0 0.92170535E+02</rscale>
<asrwt>0</asrwt>
<pdfrwt beam="1">  1        1 0.31770343E-01 0.10821653E+03</pdfrwt>
<pdfrwt beam="2">  1       -1 0.60421236E-02 0.10821653E+03</pdfrwt>
<totfact> 0.16991764E+04</totfact>
</mgrwt>
</event>
<event>
 6    1  0.2995420E-002  0.9168721E+02  0.7546771E-02  0.1422649E+00
          2   -1    0    0  501    0  0.00000000000E+00  0.00000000000E+00  0.77624171750E+03  0.77624171750E+03  0.00000000000E+00 0.  1.
         -2   -1    0    0    0  501 -0.00000000000E+00 -0.00000000000E+00 -0.66714243332E+01  0.66714243332E+01  0.00000000000E+00 0. -1.
         23    2    1    2    0    0  0.99783928548E+01  0.55463572725E+01  0.76522440695E+03  0.77069769546E+03  0.90973701723E+02 0.  0.
         11    1    3    3    0    0  0.20758372555E+02  0.45360554841E+02  0.46057137507E+03  0.46326502297E+03  0.00000000000E+00 0. -1.
        -11    1    3    3    0    0 -0.10779979701E+02 -0.39814197568E+02  0.30465303187E+03  0.30743267250E+03  0.00000000000E+00 0.  1.
         22    1    1    2    0    0 -0.99783928548E+01 -0.55463572725E+01  0.43458862217E+01  0.12215446370E+02  0.00000000000E+00 0. -1.
<mgrwt>
<rscale>  0 0.54464346E+02</rscale>
<asrwt>0</asrwt>
<pdfrwt beam="1">  1        2 0.11942173E+00 0.91687212E+02</pdfrwt>
<pdfrwt beam="2">  1       -2 0.10263736E-02 0.91687212E+02</pdfrwt>
<totfact> 0.67163578E+04</totfact>
</mgrwt>
</event>
<event>
 6    1  0.2995420E-002  0.9528520E+02  0.7546771E-02  0.1417607E+00
         -2   -1    0    0    0  501 -0.00000000000E+00  0.00000000000E+00  0.30249787075E+01  0.30249787075E+01  0.00000000000E+00 0.  1.
          2   -1    0    0  501    0  0.00000000000E+00 -0.00000000000E+00 -0.98770223111E+03  0.98770223111E+03  0.00000000000E+00 0. -1.
         23    2    1    2    0    0  0.90681596099E+00 -0.10953712076E+02 -0.93531658483E+03  0.94015763768E+03  0.94649161105E+02 0.  0.
         11    1    3    3    0    0 -0.14601934429E+02  0.29073602606E+02 -0.71257522075E+03  0.71331755627E+03  0.00000000000E+00 0. -1.
        -11    1    3    3    0    0  0.15508750390E+02 -0.40027314682E+02 -0.22274136408E+03  0.22684008141E+03  0.00000000000E+00 0.  1.
         22    1    1    2    0    0 -0.90681596099E+00  0.10953712076E+02 -0.49360667571E+02  0.50569572141E+02  0.00000000000E+00 0.  1.
<mgrwt>
<rscale>  0 0.55530325E+02</rscale>
<asrwt>0</asrwt>
<pdfrwt beam="1">  1        2 0.15195436E+00 0.95285203E+02</pdfrwt>
<pdfrwt beam="2">  1       -2 0.46538081E-03 0.95285203E+02</pdfrwt>
<totfact> 0.15141526E+05</totfact>
</mgrwt>
</event>
<event>
 6    1  0.2995420E-002  0.8935923E+02  0.7546771E-02  0.1418408E+00
         -2   -1    0    0    0  501 -0.00000000000E+00  0.00000000000E+00  0.65287749613E+01  0.65287749613E+01  0.00000000000E+00 0. -1.
          2   -1    0    0  501    0  0.00000000000E+00 -0.00000000000E+00 -0.41411883589E+03  0.41411883589E+03  0.00000000000E+00 0.  1.
         23    2    1    2    0    0  0.44810293087E+01  0.12376312971E+02 -0.37500185756E+03  0.38550157629E+03  0.88384497532E+02 0.  0.
         11    1    3    3    0    0 -0.53217875372E+01  0.26429083857E+02 -0.31040102356E+02  0.41113329351E+02  0.00000000000E+00 0. -1.
        -11    1    3    3    0    0  0.98028168459E+01 -0.14052770886E+02 -0.34396175521E+03  0.34438824694E+03  0.00000000000E+00 0.  1.
         22    1    1    2    0    0 -0.44810293087E+01 -0.12376312971E+02 -0.32588203369E+02  0.35146034559E+02  0.00000000000E+00 0. -1.
<mgrwt>
<rscale>  0 0.55359172E+02</rscale>
<asrwt>0</asrwt>
<pdfrwt beam="1">  1        2 0.63710600E-01 0.89359231E+02</pdfrwt>
<pdfrwt beam="2">  1       -2 0.10044268E-02 0.89359231E+02</pdfrwt>
<totfact> 0.13893297E+05</totfact>
</mgrwt>
</event>
<event>
 6    1  0.2995420E-002  0.9052422E+02  0.7546771E-02  0.1429491E+00
          4   -1    0    0  501    0  0.00000000000E+00  0.00000000000E+00  0.21712725667E+03  0.21712725667E+03  0.00000000000E+00 0. -1.
         -4   -1    0    0    0  501 -0.00000000000E+00 -0.00000000000E+00 -0.12405144619E+02  0.12405144619E+02  0.00000000000E+00 0.  1.
         23    2    1    2    0    0  0.60750564662E+01  0.87922686336E+01  0.19540241624E+03  0.21535259068E+03  0.89891177227E+02 0.  0.
         13    1    3    3    0    0 -0.60417831815E+01 -0.22310392428E+02  0.71948123578E+01  0.24207892910E+02  0.00000000000E+00 0.  1.
        -13    1    3    3    0    0  0.12116839648E+02  0.31102661062E+02  0.18820760388E+03  0.19114469777E+03  0.00000000000E+00 0. -1.
         22    1    1    2    0    0 -0.60750564662E+01 -0.87922686336E+01  0.93196958156E+01  0.14179810608E+02  0.00000000000E+00 0.  1.
<mgrwt>
<rscale>  0 0.53062382E+02</rscale>
<asrwt>0</asrwt>
<pdfrwt beam="1">  1        4 0.33404191E-01 0.90524218E+02</pdfrwt>
<pdfrwt beam="2">  1       -4 0.19084839E-02 0.90524218E+02</pdfrwt>
<totfact> 0.13679209E+04</totfact>
</mgrwt>
</event>
<event>
 6    1  0.2995420E-002  0.9009260E+02  0.7546771E-02  0.1412290E+00
          2   -1    0    0  501    0  0.00000000000E+00  0.00000000000E+00  0.35281356374E+03  0.35281356374E+03  0.00000000000E+00 0. -1.
         -2   -1    0    0    0  501 -0.00000000000E+00 -0.00000000000E+00 -0.88569243733E+01  0.88569243733E+01  0.00000000000E+00 0.  1.
         23    2    1    2    0    0  0.14061718445E+02  0.12809791005E+01  0.32895488821E+03  0.34106890150E+03  0.88979235007E+02 0.  0.
         13    1    3    3    0    0  0.41471011992E+02 -0.23610853410E+02  0.24030723823E+03  0.24499976730E+03  0.00000000000E+00 0. -1.
        -13    1    3    3    0    0 -0.27409293547E+02  0.24891832510E+02  0.88647649984E+02  0.96069134201E+02  0.00000000000E+00 0.  1.
         22    1    1    2    0    0 -0.14061718445E+02 -0.12809791005E+01  0.15001751157E+02  0.20601586610E+02  0.00000000000E+00 0. -1.
<mgrwt>
<rscale>  0 0.56685907E+02</rscale>
<asrwt>0</asrwt>
<pdfrwt beam="1">  1        2 0.54278999E-01 0.90092603E+02</pdfrwt>
<pdfrwt beam="2">  1       -2 0.13626040E-02 0.90092603E+02</pdfrwt>
<totfact> 0.10677742E+05</totfact>
</mgrwt>
</event>
<event>
 6    1  0.2995420E-002  0.9331889E+02  0.7546771E-02  0.1385091E+00
          2   -1    0    0  501    0  0.00000000000E+00  0.00000000000E+00  0.12050022989E+04  0.12050022989E+04  0.00000000000E+00 0. -1.
         -2   -1    0    0    0  501 -0.00000000000E+00 -0.00000000000E+00 -0.28801589230E+01  0.28801589230E+01  0.00000000000E+00 0.  1.
         23    2    1    2    0    0  0.10543484509E+02 -0.16478067620E+02  0.10965109887E+04  0.11004747902E+04  0.91245404655E+02 0.  0.
         11    1    3    3    0    0 -0.95970390065E+01  0.20018274861E+01  0.10030696337E+04  0.10031175407E+04  0.00000000000E+00 0. -1.
        -11    1    3    3    0    0  0.20140523516E+02 -0.18479895106E+02  0.93441354972E+02  0.97357249497E+02  0.00000000000E+00 0.  1.
         22    1    1    2    0    0 -0.10543484509E+02  0.16478067620E+02  0.10561115126E+03  0.10740766755E+03  0.00000000000E+00 0.  1.
<mgrwt>
<rscale>  0 0.63144179E+02</rscale>
<asrwt>0</asrwt>
<pdfrwt beam="1">  1        2 0.18538457E+00 0.93318892E+02</pdfrwt>
<pdfrwt beam="2">  1       -2 0.44310233E-03 0.93318892E+02</pdfrwt>
<totfact> 0.12193175E+05</totfact>
</mgrwt>
</event>
<event>
 6    1  0.2995420E-002  0.1004688E+03  0.7546771E-02  0.1327223E+00
          2   -1    0    0  501    0  0.00000000000E+00  0.00000000000E+00  0.16790541935E+04  0.16790541935E+04  0.00000000000E+00 0. -1.
         -2   -1    0    0    0  501 -0.00000000000E+00 -0.00000000000E+00 -0.41740604207E+01  0.41740604207E+01  0.00000000000E+00 0.  1.
         23    2    1    2    0    0  0.22261712349E+02 -0.35276828264E+02  0.15031751403E+04  0.15065289529E+04  0.91399917672E+02 0.  0.
         11    1    3    3    0    0  0.54328431759E+02 -0.15729426821E+02  0.62589272047E+03  0.62844306894E+03  0.00000000000E+00 0.  1.
        -11    1    3    3    0    0 -0.32066719410E+02 -0.19547401443E+02  0.87728241985E+03  0.87808588394E+03  0.00000000000E+00 0. -1.
         22    1    1    2    0    0 -0.22261712349E+02  0.35276828264E+02  0.17170499280E+03  0.17669930108E+03  0.00000000000E+00 0.  1.
<mgrwt>
<rscale>  0 0.80647949E+02</rscale>
<asrwt>0</asrwt>
<pdfrwt beam="1">  1        2 0.25831549E+00 0.10046882E+03</pdfrwt>
<pdfrwt beam="2">  1       -2 0.64216448E-03 0.10046882E+03</pdfrwt>
<totfact> 0.41401765E+04</totfact>
</mgrwt>
</event>
<event>
 6    1  0.2995420E-002  0.9295676E+02  0.7546771E-02  0.1419805E+00
          1   -1    0    0  501    0  0.00000000000E+00  0.00000000000E+00  0.87804585031E+03  0.87804585031E+03  0.00000000000E+00 0. -1.
         -1   -1    0    0    0  501 -0.00000000000E+00 -0.00000000000E+00 -0.35375758861E+01  0.35375758861E+01  0.00000000000E+00 0.  1.
         23    2    1    2    0    0  0.81959355785E+01 -0.79867431609E+01  0.84207901930E+03  0.84719421256E+03  0.92249648406E+02 0.  0.
         13    1    3    3    0    0 -0.35915674020E+02 -0.88890291024E+01  0.59913288238E+03  0.60027423836E+03  0.00000000000E+00 0. -1.
        -13    1    3    3    0    0  0.44111609598E+02  0.90228594146E+00  0.24294613691E+03  0.24691997420E+03  0.00000000000E+00 0.  1.
         22    1    1    2    0    0 -0.81959355785E+01  0.79867431609E+01  0.32429255129E+02  0.34389213636E+02  0.00000000000E+00 0.  1.
<mgrwt>
<rscale>  0 0.55062212E+02</rscale>
<asrwt>0</asrwt>
<pdfrwt beam="1">  1        1 0.13508380E+00 0.92956759E+02</pdfrwt>
<pdfrwt beam="2">  1       -1 0.54424314E-03 0.92956759E+02</pdfrwt>
<totfact> 0.79903588E+04</totfact>
</mgrwt>
</event>
<event>
 6    1  0.2995420E-002  0.8989380E+02  0.7546771E-02  0.1379848E+00
         -2   -1    0    0    0  501 -0.00000000000E+00  0.00000000000E+00  0.27187915140E+02  0.27187915140E+02  0.00000000000E+00 0.  1.
          2   -1    0    0  501    0  0.00000000000E+00 -0.00000000000E+00 -0.11892657553E+03  0.11892657553E+03  0.00000000000E+00 0. -1.
         23    2    1    2    0    0 -0.19658452215E+01 -0.23750134396E+02 -0.72632825115E+02  0.11556999243E+03  0.86677346723E+02 0.  0.
         13    1    3    3    0    0  0.38532435111E+02 -0.28565496893E+02 -0.48342276382E+02  0.68100747823E+02  0.00000000000E+00 0. -1.
        -13    1    3    3    0    0 -0.40498280332E+02  0.48153624974E+01 -0.24290548733E+02  0.47469244607E+02  0.00000000000E+00 0.  1.
         22    1    1    2    0    0  0.19658452215E+01  0.23750134396E+02 -0.19105835280E+02  0.30544498244E+02  0.00000000000E+00 0.  1.
<mgrwt>
<rscale>  0 0.64503680E+02</rscale>
<asrwt>0</asrwt>
<pdfrwt beam="1">  1        2 0.18296396E-01 0.89893803E+02</pdfrwt>
<pdfrwt beam="2">  1       -2 0.41827562E-02 0.89893803E+02</pdfrwt>
<totfact> 0.67768675E+04</totfact>
</mgrwt>
</event>
<event>
 6    1  0.2995420E-002  0.9148008E+02  0.7546771E-02  0.1413258E+00
         -2   -1    0    0    0  501 -0.00000000000E+00  0.00000000000E+00  0.10957014169E+02  0.10957014169E+02  0.00000000000E+00 0.  1.
          2   -1    0    0  501    0  0.00000000000E+00 -0.00000000000E+00 -0.25247200891E+03  0.25247200891E+03  0.00000000000E+00 0. -1.
         23    2    1    2    0    0  0.65041175959E+01  0.11584982034E+02 -0.21807995305E+03  0.23648989664E+03  0.90510164811E+02 0.  0.
         13    1    3    3    0    0 -0.16209905357E+02  0.46738034219E+02 -0.11118085395E+03  0.12168971673E+03  0.00000000000E+00 0. -1.
        -13    1    3    3    0    0  0.22714022953E+02 -0.35153052185E+02 -0.10689909911E+03  0.11480017991E+03  0.00000000000E+00 0.  1.
         22    1    1    2    0    0 -0.65041175959E+01 -0.11584982034E+02 -0.23435041685E+02  0.26939126437E+02  0.00000000000E+00 0.  1.
<mgrwt>
<rscale>  0 0.56473242E+02</rscale>
<asrwt>0</asrwt>
<pdfrwt beam="1">  1        2 0.38841844E-01 0.91480081E+02</pdfrwt>
<pdfrwt beam="2">  1       -2 0.16856946E-02 0.91480081E+02</pdfrwt>
<totfact> 0.11211333E+05</totfact>
</mgrwt>
</event>
<event>
 6    1  0.2995420E-002  0.9434750E+02  0.7546771E-02  0.1369901E+00
          2   -1    0    0  501    0  0.00000000000E+00  0.00000000000E+00  0.13955596077E+04  0.13955596077E+04  0.00000000000E+00 0. -1.
         -2   -1    0    0    0  501 -0.00000000000E+00 -0.00000000000E+00 -0.40752651580E+02  0.40752651580E+02  0.00000000000E+00 0.  1.
         23    2    1    2    0    0  0.64642151162E+01  0.23397780749E+02  0.13901983323E+04  0.13933961582E+04  0.91171314098E+02 0.  0.
         13    1    3    3    0    0 -0.15300620325E+02  0.52638767172E+02  0.99912430478E+03  0.10006269661E+04  0.00000000000E+00 0.  1.
        -13    1    3    3    0    0  0.21764835442E+02 -0.29240986423E+02  0.39107402749E+03  0.39276919218E+03  0.00000000000E+00 0. -1.
         22    1    1    2    0    0 -0.64642151162E+01 -0.23397780749E+02 -0.35391376164E+02  0.42916101032E+02  0.00000000000E+00 0.  1.
<mgrwt>
<rscale>  0 0.67194624E+02</rscale>
<asrwt>0</asrwt>
<pdfrwt beam="1">  1        2 0.21470144E+00 0.94347500E+02</pdfrwt>
<pdfrwt beam="2">  1       -2 0.62696398E-02 0.94347500E+02</pdfrwt>
<totfact> 0.21404022E+03</totfact>
</mgrwt>
</event>
<event>
 6    1  0.2995420E-002  0.9149470E+02  0.7546771E-02  0.1424798E+00
         -1   -1    0    0    0  501 -0.00000000000E+00  0.00000000000E+00  0.85114940487E+01  0.85114940487E+01  0.00000000000E+00 0.  1.
          1   -1    0    0  501    0  0.00000000000E+00 -0.00000000000E+00 -0.39162989458E+03  0.39162989458E+03  0.00000000000E+00 0. -1.
         23    2    1    2    0    0  0.71314324136E+01 -0.85280683428E+01 -0.37592754327E+03  0.38690153568E+03  0.90816822487E+02 0.  0.
         11    1    3    3    0    0  0.41185587778E+01  0.32039545968E+02 -0.29041697243E+03  0.29220799596E+03  0.00000000000E+00 0. -1.
        -11    1    3    3    0    0  0.30128736358E+01 -0.40567614310E+02 -0.85510570845E+02  0.94693539719E+02  0.00000000000E+00 0.  1.
         22    1    1    2    0    0 -0.71314324136E+01  0.85280683428E+01 -0.71908572654E+01  0.13239852950E+02  0.00000000000E+00 0.  1.
<mgrwt>
<rscale>  0 0.54018535E+02</rscale>
<asrwt>0</asrwt>
<pdfrwt beam="1">  1        1 0.60250734E-01 0.91494702E+02</pdfrwt>
<pdfrwt beam="2">  1       -1 0.13094610E-02 0.91494702E+02</pdfrwt>
<totfact> 0.69039938E+04</totfact>
</mgrwt>
</event>
<event>
 6    1  0.2995420E-002  0.9583291E+02  0.7546771E-02  0.1415848E+00
          2   -1    0    0  501    0  0.00000000000E+00  0.00000000000E+00  0.71607708625E+02  0.71607708625E+02  0.00000000000E+00 0. -1.
         -2   -1    0    0    0  501 -0.00000000000E+00 -0.00000000000E+00 -0.40114451449E+02  0.40114451449E+02  0.00000000000E+00 0.  1.
         23    2    1    2    0    0  0.59846773602E+01 -0.93504073447E+01  0.30531568897E+02  0.10057894129E+03  0.95187710605E+02 0.  0.
         13    1    3    3    0    0 -0.34071605587E+02  0.24611431174E+02  0.54557767854E+01  0.42383515098E+02  0.00000000000E+00 0. -1.
        -13    1    3    3    0    0  0.40056282948E+02 -0.33961838519E+02  0.25075792112E+02  0.58195426188E+02  0.00000000000E+00 0.  1.
         22    1    1    2    0    0 -0.59846773602E+01  0.93504073447E+01  0.96168827774E+00  0.11143218788E+02  0.00000000000E+00 0. -1.
<mgrwt>
<rscale>  0 0.55909142E+02</rscale>
<asrwt>0</asrwt>
<pdfrwt beam="1">  1        2 0.11016571E-01 0.95832910E+02</pdfrwt>
<pdfrwt beam="2">  1       -2 0.61714541E-02 0.95832910E+02</pdfrwt>
<totfact> 0.69234030E+04</totfact>
</mgrwt>
</event>
<event>
 6    1  0.2995420E-002  0.9084568E+02  0.7546771E-02  0.1404022E+00
          1   -1    0    0  501    0  0.00000000000E+00  0.00000000000E+00  0.69028672231E+01  0.69028672231E+01  0.00000000000E+00 0.  1.
         -1   -1    0    0    0  501 -0.00000000000E+00 -0.00000000000E+00 -0.41218734460E+03  0.41218734460E+03  0.00000000000E+00 0. -1.
         23    2    1    2    0    0  0.14164540255E+02  0.67107686192E+01 -0.33700358792E+03  0.34903345996E+03  0.89483346423E+02 0.  0.
         11    1    3    3    0    0 -0.42145216379E+01  0.61717176143E+01 -0.32882446501E+03  0.32890938126E+03  0.00000000000E+00 0. -1.
        -11    1    3    3    0    0  0.18379061893E+02  0.53905100489E+00 -0.81791229071E+01  0.20124078702E+02  0.00000000000E+00 0.  1.
         22    1    1    2    0    0 -0.14164540255E+02 -0.67107686192E+01 -0.68280889461E+02  0.70056751863E+02  0.00000000000E+00 0.  1.
<mgrwt>
<rscale>  0 0.58549330E+02</rscale>
<asrwt>0</asrwt>
<pdfrwt beam="1">  1        1 0.10619798E-02 0.90845682E+02</pdfrwt>
<pdfrwt beam="2">  1       -1 0.63413426E-01 0.90845682E+02</pdfrwt>
<totfact> 0.33938228E+04</totfact>
</mgrwt>
</event>
<event>
 6    1  0.2995420E-002  0.9488114E+02  0.7546771E-02  0.1406399E+00
          2   -1    0    0  501    0  0.00000000000E+00  0.00000000000E+00  0.23946030631E+03  0.23946030631E+03  0.00000000000E+00 0. -1.
         -2   -1    0    0    0  501 -0.00000000000E+00 -0.00000000000E+00 -0.12262566425E+02  0.12262566425E+02  0.00000000000E+00 0.  1.
         23    2    1    2    0    0  0.12737340600E+02  0.36624133516E+01  0.19343242903E+03  0.21544961352E+03  0.93950935322E+02 0.  0.
         13    1    3    3    0    0  0.21938012675E+02 -0.31287748810E+02  0.16527420976E+03  0.16963420657E+03  0.00000000000E+00 0. -1.
        -13    1    3    3    0    0 -0.92006720748E+01  0.34950162161E+02  0.28158219270E+02  0.45815406952E+02  0.00000000000E+00 0.  1.
         22    1    1    2    0    0 -0.12737340600E+02 -0.36624133516E+01  0.33765310858E+02  0.36273259220E+02  0.00000000000E+00 0. -1.
<mgrwt>
<rscale>  0 0.58005198E+02</rscale>
<asrwt>0</asrwt>
<pdfrwt beam="1">  1        2 0.36840044E-01 0.94881143E+02</pdfrwt>
<pdfrwt beam="2">  1       -2 0.18865489E-02 0.94881143E+02</pdfrwt>
<totfact> 0.10143523E+05</totfact>
</mgrwt>
</event>
<event>
 6    1  0.2995420E-002  0.9248566E+02  0.7546771E-02  0.1411365E+00
          2   -1    0    0  501    0  0.00000000000E+00  0.00000000000E+00  0.57494161560E+03  0.57494161560E+03  0.00000000000E+00 0. -1.
         -2   -1    0    0    0  501 -0.00000000000E+00 -0.00000000000E+00 -0.68954498702E+01  0.68954498702E+01  0.00000000000E+00 0.  1.
         23    2    1    2    0    0 -0.90435340691E+01  0.96721069948E+01  0.55690435947E+03  0.56453171921E+03  0.91532842433E+02 0.  0.
         13    1    3    3    0    0 -0.61380051786E+01  0.33522407381E+02  0.51576782511E+03  0.51689251912E+03  0.00000000000E+00 0. -1.
        -13    1    3    3    0    0 -0.29055288905E+01 -0.23850300386E+02  0.41136534353E+02  0.47639200090E+02  0.00000000000E+00 0.  1.
         22    1    1    2    0    0  0.90435340691E+01 -0.96721069948E+01  0.11141806259E+02  0.17305346252E+02  0.00000000000E+00 0.  1.
<mgrwt>
<rscale>  0 0.56890455E+02</rscale>
<asrwt>0</asrwt>
<pdfrwt beam="1">  1        2 0.88452519E-01 0.92485655E+02</pdfrwt>
<pdfrwt beam="2">  1       -2 0.10608389E-02 0.92485655E+02</pdfrwt>
<totfact> 0.90723635E+04</totfact>
</mgrwt>
</event>
<event>
 6    1  0.2995420E-002  0.9441200E+02  0.7546771E-02  0.1386882E+00
          4   -1    0    0  501    0  0.00000000000E+00  0.00000000000E+00  0.29105180142E+02  0.29105180142E+02  0.00000000000E+00 0. -1.
         -4   -1    0    0    0  501 -0.00000000000E+00 -0.00000000000E+00 -0.10930856405E+03  0.10930856405E+03  0.00000000000E+00 0.  1.
         23    2    1    2    0    0  0.14671542681E+02  0.11024182734E+02 -0.65687960054E+02  0.11501536179E+03  0.92611222759E+02 0.  0.
         13    1    3    3    0    0  0.87386843086E+00 -0.36749187769E+02 -0.58654391333E+01  0.37224586283E+02  0.00000000000E+00 0. -1.
        -13    1    3    3    0    0  0.13797674250E+02  0.47773370503E+02 -0.59822520920E+02  0.77790775502E+02  0.00000000000E+00 0.  1.
         22    1    1    2    0    0 -0.14671542681E+02 -0.11024182734E+02 -0.14515423855E+02  0.23398382407E+02  0.00000000000E+00 0.  1.
<mgrwt>
<rscale>  0 0.62688773E+02</rscale>
<asrwt>0</asrwt>
<pdfrwt beam="1">  1        4 0.44777202E-02 0.94411998E+02</pdfrwt>
<pdfrwt beam="2">  1       -4 0.16816702E-01 0.94411998E+02</pdfrwt>
<totfact> 0.12863997E+04</totfact>
</mgrwt>
</event>
<event>
 6    1  0.2995420E-002  0.9101407E+02  0.7546771E-02  0.1425848E+00
         -2   -1    0    0    0  501 -0.00000000000E+00  0.00000000000E+00  0.39866665049E+01  0.39866665049E+01  0.00000000000E+00 0.  1.
          2   -1    0    0  501    0  0.00000000000E+00 -0.00000000000E+00 -0.12580806651E+04  0.12580806651E+04  0.00000000000E+00 0. -1.
         23    2    1    2    0    0 -0.63865872766E+00 -0.11096096800E+02 -0.12431227358E+04  0.12464500381E+04  0.90332884063E+02 0.  0.
         13    1    3    3    0    0 -0.23655586523E+02  0.19010250057E+02 -0.17197472608E+03  0.17463184930E+03  0.00000000000E+00 0.  1.
        -13    1    3    3    0    0  0.23016927795E+02 -0.30106346857E+02 -0.10711480097E+04  0.10718181888E+04  0.00000000000E+00 0. -1.
         22    1    1    2    0    0  0.63865872766E+00  0.11096096800E+02 -0.10971262769E+02  0.15617293488E+02  0.00000000000E+00 0.  1.
<mgrwt>
<rscale>  0 0.53802631E+02</rscale>
<asrwt>0</asrwt>
<pdfrwt beam="1">  1        2 0.19355072E+00 0.91014071E+02</pdfrwt>
<pdfrwt beam="2">  1       -2 0.61333380E-03 0.91014071E+02</pdfrwt>
<totfact> 0.72142171E+04</totfact>
</mgrwt>
</event>
<event>
 6    1  0.2995420E-002  0.1025360E+03  0.7546771E-02  0.1317914E+00
          1   -1    0    0  501    0  0.00000000000E+00  0.00000000000E+00  0.27569249092E+03  0.27569249092E+03  0.00000000000E+00 0. -1.
         -1   -1    0    0    0  501 -0.00000000000E+00 -0.00000000000E+00 -0.20858282798E+02  0.20858282798E+02  0.00000000000E+00 0.  1.
         23    2    1    2    0    0  0.39302105001E+02  0.24497260024E+02  0.20018990129E+03  0.22492137001E+03  0.91481445679E+02 0.  0.
         11    1    3    3    0    0  0.66671984156E+02  0.19121296063E+02  0.17107890744E+03  0.18460436075E+03  0.00000000000E+00 0. -1.
        -11    1    3    3    0    0 -0.27369879154E+02  0.53759639602E+01  0.29110993847E+02  0.40317009266E+02  0.00000000000E+00 0.  1.
         22    1    1    2    0    0 -0.39302105001E+02 -0.24497260024E+02  0.54644306832E+02  0.71629403707E+02  0.00000000000E+00 0.  1.
<mgrwt>
<rscale>  0 0.84058148E+02</rscale>
<asrwt>0</asrwt>
<pdfrwt beam="1">  1        1 0.42414227E-01 0.10253597E+03</pdfrwt>
<pdfrwt beam="2">  1       -1 0.32089668E-02 0.10253597E+03</pdfrwt>
<totfact> 0.29911624E+04</totfact>
</mgrwt>
</event>
<event>
 6    1  0.2995420E-002  0.9514289E+02  0.7546771E-02  0.1374959E+00
          1   -1    0    0  501    0  0.00000000000E+00  0.00000000000E+00  0.28078277693E+02  0.28078277693E+02  0.00000000000E+00 0. -1.
         -1   -1    0    0    0  501 -0.00000000000E+00 -0.00000000000E+00 -0.14331331984E+03  0.14331331984E+03  0.00000000000E+00 0.  1.
         23    2    1    2    0    0 -0.19802984931E+02 -0.90572180660E+01 -0.61181306244E+02  0.11311640748E+03  0.92617374154E+02 0.  0.
         11    1    3    3    0    0 -0.27320086977E+02  0.23842663376E+02  0.71008643094E+01  0.36949722911E+02  0.00000000000E+00 0. -1.
        -11    1    3    3    0    0  0.75171020459E+01 -0.32899881442E+02 -0.68282170554E+02  0.76166684565E+02  0.00000000000E+00 0.  1.
         22    1    1    2    0    0  0.19802984931E+02  0.90572180660E+01 -0.54053735901E+02  0.58275190057E+02  0.00000000000E+00 0.  1.
<mgrwt>
<rscale>  0 0.65807662E+02</rscale>
<asrwt>0</asrwt>
<pdfrwt beam="1">  1        1 0.43197350E-02 0.95142889E+02</pdfrwt>
<pdfrwt beam="2">  1       -1 0.22048203E-01 0.95142889E+02</pdfrwt>
<totfact> 0.30783698E+04</totfact>
</mgrwt>
</event>
<event>
 6    1  0.2995420E-002  0.9004649E+02  0.7546771E-02  0.1351497E+00
          4   -1    0    0  501    0  0.00000000000E+00  0.00000000000E+00  0.10401936128E+02  0.10401936128E+02  0.00000000000E+00 0. -1.
         -4   -1    0    0    0  501 -0.00000000000E+00 -0.00000000000E+00 -0.40076835088E+03  0.40076835088E+03  0.00000000000E+00 0.  1.
         23    2    1    2    0    0 -0.11017875310E+02 -0.36399900566E+02 -0.24916313365E+03  0.26493515808E+03  0.81621225675E+02 0.  0.
         13    1    3    3    0    0 -0.45265997883E+02 -0.92818049157E+01 -0.13581519096E+03  0.14346054705E+03  0.00000000000E+00 0. -1.
        -13    1    3    3    0    0  0.34248122573E+02 -0.27118095651E+02 -0.11334794269E+03  0.12147461103E+03  0.00000000000E+00 0.  1.
         22    1    1    2    0    0  0.11017875310E+02  0.36399900566E+02 -0.14120328110E+03  0.14623512892E+03  0.00000000000E+00 0. -1.
<mgrwt>
<rscale>  0 0.72591227E+02</rscale>
<asrwt>0</asrwt>
<pdfrwt beam="1">  1        4 0.16002979E-02 0.90046493E+02</pdfrwt>
<pdfrwt beam="2">  1       -4 0.61656669E-01 0.90046493E+02</pdfrwt>
<totfact> 0.52694807E+03</totfact>
</mgrwt>
</event>
<event>
 6    1  0.2995420E-002  0.8766439E+02  0.7546771E-02  0.1424060E+00
         -2   -1    0    0    0  501 -0.00000000000E+00  0.00000000000E+00  0.10074309034E+02  0.10074309034E+02  0.00000000000E+00 0.  1.
          2   -1    0    0  501    0  0.00000000000E+00 -0.00000000000E+00 -0.26992133816E+03  0.26992133816E+03  0.00000000000E+00 0. -1.
         23    2    1    2    0    0  0.12383000670E+02  0.31690425610E+01 -0.24598877222E+03  0.26114272114E+03  0.86727522798E+02 0.  0.
         11    1    3    3    0    0  0.35720024095E+02 -0.73132264060E+01 -0.42264375411E+02  0.55818284018E+02  0.00000000000E+00 0.  1.
        -11    1    3    3    0    0 -0.23337023425E+02  0.10482268967E+02 -0.20372439681E+03  0.20532443712E+03  0.00000000000E+00 0. -1.
         22    1    1    2    0    0 -0.12383000670E+02 -0.31690425610E+01 -0.13858256912E+02  0.18852926059E+02  0.00000000000E+00 0.  1.
<mgrwt>
<rscale>  0 0.54171115E+02</rscale>
<asrwt>0</asrwt>
<pdfrwt beam="1">  1        2 0.41526357E-01 0.87664387E+02</pdfrwt>
<pdfrwt beam="2">  1       -2 0.15498938E-02 0.87664387E+02</pdfrwt>
<totfact> 0.11707008E+05</totfact>
</mgrwt>
</event>
<event>
 6    1  0.2995420E-002  0.9727428E+02  0.7546771E-02  0.1337201E+00
          2   -1    0    0  501    0  0.00000000000E+00  0.00000000000E+00  0.44296669345E+03  0.44296669345E+03  0.00000000000E+00 0. -1.
         -2   -1    0    0    0  501 -0.00000000000E+00 -0.00000000000E+00 -0.10680647358E+02  0.10680647358E+02  0.00000000000E+00 0.  1.
         23    2    1    2    0    0  0.11236021269E+02 -0.36910479701E+02  0.33945630078E+03  0.35311877124E+03  0.89295323353E+02 0.  0.
         13    1    3    3    0    0  0.13183715901E+02 -0.53475331837E+02  0.32867720892E+03  0.33325985228E+03  0.00000000000E+00 0. -1.
        -13    1    3    3    0    0 -0.19476946322E+01  0.16564852136E+02  0.10779091865E+02  0.19858918956E+02  0.00000000000E+00 0.  1.
         22    1    1    2    0    0 -0.11236021269E+02  0.36910479701E+02  0.92829745306E+02  0.10052856957E+03  0.00000000000E+00 0.  1.
<mgrwt>
<rscale>  0 0.77196381E+02</rscale>
<asrwt>0</asrwt>
<pdfrwt beam="1">  1        2 0.68148708E-01 0.97274285E+02</pdfrwt>
<pdfrwt beam="2">  1       -2 0.16431769E-02 0.97274285E+02</pdfrwt>
<totfact> 0.64990266E+04</totfact>
</mgrwt>
</event>
<event>
 6    1  0.2995420E-002  0.9293831E+02  0.7546771E-02  0.1376328E+00
          2   -1    0    0  501    0  0.00000000000E+00  0.00000000000E+00  0.42691085472E+03  0.42691085472E+03  0.00000000000E+00 0. -1.
         -2   -1    0    0    0  501 -0.00000000000E+00 -0.00000000000E+00 -0.15649971897E+02  0.15649971897E+02  0.00000000000E+00 0.  1.
         23    2    1    2    0    0 -0.18559545670E+02 -0.13318005095E+02  0.40920347897E+03  0.41962485256E+03  0.90087200462E+02 0.  0.
         13    1    3    3    0    0  0.36426379960E+02 -0.10190275159E+02  0.16070056930E+03  0.16509208291E+03  0.00000000000E+00 0.  1.
        -13    1    3    3    0    0 -0.54985925630E+02 -0.31277299365E+01  0.24850290967E+03  0.25453276965E+03  0.00000000000E+00 0. -1.
         22    1    1    2    0    0  0.18559545670E+02  0.13318005095E+02  0.20574038459E+01  0.22935974054E+02  0.00000000000E+00 0.  1.
<mgrwt>
<rscale>  0 0.65439021E+02</rscale>
<asrwt>0</asrwt>
<pdfrwt beam="1">  1        2 0.65678584E-01 0.92938311E+02</pdfrwt>
<pdfrwt beam="2">  1       -2 0.24076883E-02 0.92938311E+02</pdfrwt>
<totfact> 0.38800138E+04</totfact>
</mgrwt>
</event>
<event>
 6    1  0.2995420E-002  0.1046501E+03  0.7546771E-02  0.1311667E+00
         -2   -1    0    0    0  501 -0.00000000000E+00  0.00000000000E+00  0.15305554135E+02  0.15305554135E+02  0.00000000000E+00 0.  1.
          2   -1    0    0  501    0  0.00000000000E+00 -0.00000000000E+00 -0.38836241405E+03  0.38836241405E+03  0.00000000000E+00 0. -1.
         23    2    1    2    0    0  0.42759536557E+02  0.23412394507E+02 -0.23470804239E+03  0.25698152200E+03  0.92601940068E+02 0.  0.
         13    1    3    3    0    0  0.20775482185E+02 -0.13327446898E+02 -0.75324755654E+01  0.25806582280E+02  0.00000000000E+00 0.  1.
        -13    1    3    3    0    0  0.21984054372E+02  0.36739841405E+02 -0.22717556682E+03  0.23117493972E+03  0.00000000000E+00 0. -1.
         22    1    1    2    0    0 -0.42759536557E+02 -0.23412394507E+02 -0.13834881753E+03  0.14668644618E+03  0.00000000000E+00 0.  1.
<mgrwt>
<rscale>  0 0.86456428E+02</rscale>
<asrwt>0</asrwt>
<pdfrwt beam="1">  1        2 0.59748063E-01 0.10465007E+03</pdfrwt>
<pdfrwt beam="2">  1       -2 0.23547007E-02 0.10465007E+03</pdfrwt>
<totfact> 0.44918445E+04</totfact>
</mgrwt>
</event>
<event>
 6    1  0.2995420E-002  0.9223108E+02  0.7546771E-02  0.1407682E+00
         -1   -1    0    0    0  501 -0.00000000000E+00  0.00000000000E+00  0.14329432567E+02  0.14329432567E+02  0.00000000000E+00 0.  1.
          1   -1    0    0  501    0  0.00000000000E+00 -0.00000000000E+00 -0.20180640771E+03  0.20180640771E+03  0.00000000000E+00 0. -1.
         23    2    1    2    0    0  0.89087467987E+01 -0.10982855335E+02 -0.15008809568E+03  0.17616188390E+03  0.91140462991E+02 0.  0.
         11    1    3    3    0    0 -0.22980255992E+01  0.34712697144E+02 -0.10645051217E+03  0.11199090948E+03  0.00000000000E+00 0. -1.
        -11    1    3    3    0    0  0.11206772398E+02 -0.45695552478E+02 -0.43637583512E+02  0.64170974425E+02  0.00000000000E+00 0.  1.
         22    1    1    2    0    0 -0.89087467987E+01  0.10982855335E+02 -0.37388879466E+02  0.39973956378E+02  0.00000000000E+00 0. -1.
<mgrwt>
<rscale>  0 0.57714338E+02</rscale>
<asrwt>0</asrwt>
<pdfrwt beam="1">  1        1 0.31047139E-01 0.92231084E+02</pdfrwt>
<pdfrwt beam="2">  1       -1 0.22045282E-02 0.92231084E+02</pdfrwt>
<totfact> 0.74201344E+04</totfact>
</mgrwt>
</event>
<event>
 6    1  0.2995420E-002  0.9083200E+02  0.7546771E-02  0.1409990E+00
          4   -1    0    0  501    0  0.00000000000E+00  0.00000000000E+00  0.43909152747E+02  0.43909152747E+02  0.00000000000E+00 0. -1.
         -4   -1    0    0    0  501 -0.00000000000E+00 -0.00000000000E+00 -0.78159504967E+02  0.78159504967E+02  0.00000000000E+00 0.  1.
         23    2    1    2    0    0  0.83704064853E+01 -0.11570397804E+02 -0.67512520574E+01  0.91082558898E+02  0.89702370766E+02 0.  0.
         11    1    3    3    0    0  0.58987350715E+01 -0.26359537573E+02  0.36441728600E+02  0.45360995137E+02  0.00000000000E+00 0. -1.
        -11    1    3    3    0    0  0.24716714137E+01  0.14789139769E+02 -0.43192980657E+02  0.45721563761E+02  0.00000000000E+00 0.  1.
         22    1    1    2    0    0 -0.83704064853E+01  0.11570397804E+02 -0.27499100163E+02  0.30986098816E+02  0.00000000000E+00 0.  1.
<mgrwt>
<rscale>  0 0.57196097E+02</rscale>
<asrwt>0</asrwt>
<pdfrwt beam="1">  1        4 0.67552544E-02 0.90832005E+02</pdfrwt>
<pdfrwt beam="2">  1       -4 0.12024539E-01 0.90832005E+02</pdfrwt>
<totfact> 0.11721824E+04</totfact>
</mgrwt>
</event>
<event>
 6    1  0.2995420E-002  0.9532517E+02  0.7546771E-02  0.1366384E+00
         -2   -1    0    0    0  501 -0.00000000000E+00  0.00000000000E+00  0.87800059101E+01  0.87800059101E+01  0.00000000000E+00 0.  1.
          2   -1    0    0  501    0  0.00000000000E+00 -0.00000000000E+00 -0.42993775842E+03  0.42993775842E+03  0.00000000000E+00 0. -1.
         23    2    1    2    0    0  0.16313920217E+02  0.18877606051E+02 -0.36545061759E+03  0.37767849104E+03  0.92002068959E+02 0.  0.
         11    1    3    3    0    0 -0.32015264238E+02 -0.75322967457E+01 -0.72715211018E+02  0.79807359008E+02  0.00000000000E+00 0.  1.
        -11    1    3    3    0    0  0.48329184455E+02  0.26409902796E+02 -0.29273540657E+03  0.29787113203E+03  0.00000000000E+00 0. -1.
         22    1    1    2    0    0 -0.16313920217E+02 -0.18877606051E+02 -0.55707134919E+02  0.61039273292E+02  0.00000000000E+00 0.  1.
<mgrwt>
<rscale>  0 0.68182641E+02</rscale>
<asrwt>0</asrwt>
<pdfrwt beam="1">  1        2 0.66144283E-01 0.95325173E+02</pdfrwt>
<pdfrwt beam="2">  1       -2 0.13507699E-02 0.95325173E+02</pdfrwt>
<totfact> 0.88519070E+04</totfact>
</mgrwt>
</event>
<event>
 6    1  0.2995420E-002  0.9875450E+02  0.7546771E-02  0.1342256E+00
          1   -1    0    0  501    0  0.00000000000E+00  0.00000000000E+00  0.86815710722E+02  0.86815710722E+02  0.00000000000E+00 0. -1.
         -1   -1    0    0    0  501 -0.00000000000E+00 -0.00000000000E+00 -0.55049044460E+02  0.55049044460E+02  0.00000000000E+00 0.  1.
         23    2    1    2    0    0  0.42578695358E+01  0.33511514841E+02  0.40871853873E+02  0.10687825034E+03  0.92797095192E+02 0.  0.
         13    1    3    3    0    0 -0.19216251317E+02  0.59387652100E+02  0.34648744242E+02  0.71391126999E+02  0.00000000000E+00 0. -1.
        -13    1    3    3    0    0  0.23474120853E+02 -0.25876137259E+02  0.62231096303E+01  0.35487123337E+02  0.00000000000E+00 0.  1.
         22    1    1    2    0    0 -0.42578695358E+01 -0.33511514841E+02 -0.91051876105E+01  0.34986504846E+02  0.00000000000E+00 0.  1.
<mgrwt>
<rscale>  0 0.75524103E+02</rscale>
<asrwt>0</asrwt>
<pdfrwt beam="1">  1        1 0.13356263E-01 0.98754503E+02</pdfrwt>
<pdfrwt beam="2">  1       -1 0.84690838E-02 0.98754503E+02</pdfrwt>
<totfact> 0.30290918E+04</totfact>
</mgrwt>
</event>
<event>
 6    1  0.2995420E-002  0.9209167E+02  0.7546771E-02  0.1401836E+00
         -2   -1    0    0    0  501 -0.00000000000E+00  0.00000000000E+00  0.15748546167E+03  0.15748546167E+03  0.00000000000E+00 0.  1.
          2   -1    0    0  501    0  0.00000000000E+00 -0.00000000000E+00 -0.19620447800E+02  0.19620447800E+02  0.00000000000E+00 0. -1.
         23    2    1    2    0    0 -0.11405314981E+02  0.10604879429E+02  0.98866797642E+02  0.13511298689E+03  0.90765251467E+02 0.  0.
         13    1    3    3    0    0 -0.20657054509E+02 -0.20644755130E+02 -0.18413528935E+01  0.29262781751E+02  0.00000000000E+00 0. -1.
        -13    1    3    3    0    0  0.92517395277E+01  0.31249634559E+02  0.10070815054E+03  0.10585020514E+03  0.00000000000E+00 0.  1.
         22    1    1    2    0    0  0.11405314981E+02 -0.10604879429E+02  0.38998216226E+02  0.41992922575E+02  0.00000000000E+00 0.  1.
<mgrwt>
<rscale>  0 0.59056027E+02</rscale>
<asrwt>0</asrwt>
<pdfrwt beam="1">  1        2 0.30185305E-02 0.92091669E+02</pdfrwt>
<pdfrwt beam="2">  1       -2 0.24228532E-01 0.92091669E+02</pdfrwt>
<totfact> 0.40410059E+04</totfact>
</mgrwt>
</event>
<event>
 6    1  0.2995420E-002  0.9780972E+02  0.7546771E-02  0.1348065E+00
         -2   -1    0    0    0  501 -0.00000000000E+00  0.00000000000E+00  0.26570753086E+03  0.26570753086E+03  0.00000000000E+00 0. -1.
          2   -1    0    0  501    0  0.00000000000E+00 -0.00000000000E+00 -0.24311212483E+02  0.24311212483E+02  0.00000000000E+00 0.  1.
         23    2    1    2    0    0 -0.30435838223E+02 -0.79828351386E+01  0.82262602311E+02  0.12780405383E+03  0.92610337064E+02 0.  0.
         13    1    3    3    0    0 -0.47227814279E+02 -0.33305259438E+02  0.24971742341E+02  0.62954703267E+02  0.00000000000E+00 0. -1.
        -13    1    3    3    0    0  0.16791976056E+02  0.25322424300E+02  0.57290859970E+02  0.64849350563E+02  0.00000000000E+00 0.  1.
         22    1    1    2    0    0  0.30435838223E+02  0.79828351386E+01  0.15913371607E+03  0.16221468952E+03  0.00000000000E+00 0.  1.
<mgrwt>
<rscale>  0 0.73662170E+02</rscale>
<asrwt>0</asrwt>
<pdfrwt beam="1">  1        2 0.37401867E-02 0.97809715E+02</pdfrwt>
<pdfrwt beam="2">  1       -2 0.40878080E-01 0.97809715E+02</pdfrwt>
<totfact> 0.11957588E+04</totfact>
</mgrwt>
</event>
<event>
 6    1  0.2995420E-002  0.9218840E+02  0.7546771E-02  0.1339555E+00
         -2   -1    0    0    0  501 -0.00000000000E+00  0.00000000000E+00  0.37792406379E+02  0.37792406379E+02  0.00000000000E+00 0.  1.
          2   -1    0    0  501    0  0.00000000000E+00 -0.00000000000E+00 -0.13275733236E+03  0.13275733236E+03  0.00000000000E+00 0. -1.
         23    2    1    2    0    0 -0.38399348527E+02 -0.20464080777E+02 -0.86103129499E+02  0.12614455879E+03  0.81273687221E+02 0.  0.
         13    1    3    3    0    0  0.95036390469E+01 -0.39290344964E+02 -0.32901064327E+02  0.52120345321E+02  0.00000000000E+00 0. -1.
        -13    1    3    3    0    0 -0.47902987574E+02  0.18826264187E+02 -0.53202065172E+02  0.74024213473E+02  0.00000000000E+00 0.  1.
         22    1    1    2    0    0  0.38399348527E+02  0.20464080777E+02 -0.88617964849E+01  0.44405179949E+02  0.00000000000E+00 0.  1.
<mgrwt>
<rscale>  0 0.76411602E+02</rscale>
<asrwt>0</asrwt>
<pdfrwt beam="1">  1        2 0.20424205E-01 0.92188398E+02</pdfrwt>
<pdfrwt beam="2">  1       -2 0.58142163E-02 0.92188398E+02</pdfrwt>
<totfact> 0.36860077E+04</totfact>
</mgrwt>
</event>
<event>
 6    1  0.2995420E-002  0.9714737E+02  0.7546771E-02  0.1347766E+00
         -1   -1    0    0    0  501 -0.00000000000E+00  0.00000000000E+00  0.53372974688E+03  0.53372974688E+03  0.00000000000E+00 0.  1.
          1   -1    0    0  501    0  0.00000000000E+00 -0.00000000000E+00 -0.78585981088E+01  0.78585981088E+01  0.00000000000E+00 0. -1.
         23    2    1    2    0    0  0.33553476161E+01  0.32103003655E+02  0.40384204721E+03  0.41536250441E+03  0.91628324092E+02 0.  0.
         13    1    3    3    0    0 -0.79976916934E+01  0.10614563615E+02  0.27965958792E+01  0.13581346828E+02  0.00000000000E+00 0. -1.
        -13    1    3    3    0    0  0.11353039309E+02  0.21488440040E+02  0.40104545133E+03  0.40178115759E+03  0.00000000000E+00 0.  1.
         22    1    1    2    0    0 -0.33553476161E+01 -0.32103003655E+02  0.12202910156E+03  0.12622584058E+03  0.00000000000E+00 0.  1.
<mgrwt>
<rscale>  0 0.73756366E+02</rscale>
<asrwt>0</asrwt>
<pdfrwt beam="1">  1        1 0.12090155E-02 0.97147367E+02</pdfrwt>
<pdfrwt beam="2">  1       -1 0.82112240E-01 0.97147367E+02</pdfrwt>
<totfact> 0.17182500E+04</totfact>
</mgrwt>
</event>
<event>
 6    1  0.2995420E-002  0.8925219E+02  0.7546771E-02  0.1423175E+00
          2   -1    0    0  501    0  0.00000000000E+00  0.00000000000E+00  0.72673041086E+02  0.72673041086E+02  0.00000000000E+00 0. -1.
         -2   -1    0    0    0  501 -0.00000000000E+00 -0.00000000000E+00 -0.39218458086E+02  0.39218458086E+02  0.00000000000E+00 0.  1.
         23    2    1    2    0    0 -0.96634349068E+01 -0.75726111058E+01  0.40195216005E+02  0.97885695144E+02  0.88403775433E+02 0.  0.
         13    1    3    3    0    0  0.99793921806E+01  0.36715372192E+02  0.58411220371E+01  0.38493188100E+02  0.00000000000E+00 0.  1.
        -13    1    3    3    0    0 -0.19642827087E+02 -0.44287983297E+02  0.34354093968E+02  0.59392507043E+02  0.00000000000E+00 0. -1.
         22    1    1    2    0    0  0.96634349068E+01  0.75726111058E+01 -0.67406330058E+01  0.14005804028E+02  0.00000000000E+00 0.  1.
<mgrwt>
<rscale>  0 0.54354792E+02</rscale>
<asrwt>0</asrwt>
<pdfrwt beam="1">  1        2 0.11180468E-01 0.89252193E+02</pdfrwt>
<pdfrwt beam="2">  1       -2 0.60336089E-02 0.89252193E+02</pdfrwt>
<totfact> 0.69637707E+04</totfact>
</mgrwt>
</event>
<event>
 6    1  0.2995420E-002  0.9980047E+02  0.7546771E-02  0.1330591E+00
         -2   -1    0    0    0  501 -0.00000000000E+00  0.00000000000E+00  0.35242742367E+02  0.35242742367E+02  0.00000000000E+00 0.  1.
          2   -1    0    0  501    0  0.00000000000E+00 -0.00000000000E+00 -0.17209130600E+03  0.17209130600E+03  0.00000000000E+00 0. -1.
         23    2    1    2    0    0 -0.24690482299E+02 -0.31603161205E+02 -0.13406445659E+03  0.16713291696E+03  0.91387929722E+02 0.  0.
         13    1    3    3    0    0 -0.12079258845E+01  0.30614211148E+01 -0.12403523867E+03  0.12407889352E+03  0.00000000000E+00 0. -1.
        -13    1    3    3    0    0 -0.23482556415E+02 -0.34664582319E+02 -0.10029217917E+02  0.43054023449E+02  0.00000000000E+00 0.  1.
         22    1    1    2    0    0  0.24690482299E+02  0.31603161205E+02 -0.27841070516E+01  0.40201131407E+02  0.00000000000E+00 0.  1.
<mgrwt>
<rscale>  0 0.79459899E+02</rscale>
<asrwt>0</asrwt>
<pdfrwt beam="1">  1        2 0.26475586E-01 0.99800468E+02</pdfrwt>
<pdfrwt beam="2">  1       -2 0.54219603E-02 0.99800468E+02</pdfrwt>
<totfact> 0.31058128E+04</totfact>
</mgrwt>
</event>
<event>
 6    1  0.2995420E-002  0.9249636E+02  0.7546771E-02  0.1396086E+00
         -2   -1    0    0    0  501 -0.00000000000E+00  0.00000000000E+00  0.58503783902E+01  0.58503783902E+01  0.00000000000E+00 0. -1.
          2   -1    0    0  501    0  0.00000000000E+00 -0.00000000000E+00 -0.51552797225E+03  0.51552797225E+03  0.00000000000E+00 0.  1.
         23    2    1    2    0    0 -0.16809689901E+02 -0.97561172855E+00 -0.41151848047E+03  0.42178553447E+03  0.90950864869E+02 0.  0.
         11    1    3    3    0    0 -0.30836115368E+02 -0.20999049820E+02 -0.69377493922E+02  0.78772220784E+02  0.00000000000E+00 0. -1.
        -11    1    3    3    0    0  0.14026425466E+02  0.20023438092E+02 -0.34214098655E+03  0.34301331368E+03  0.00000000000E+00 0.  1.
         22    1    1    2    0    0  0.16809689901E+02  0.97561172855E+00 -0.98159113382E+02  0.99592816171E+02  0.00000000000E+00 0. -1.
<mgrwt>
<rscale>  0 0.60417949E+02</rscale>
<asrwt>0</asrwt>
<pdfrwt beam="1">  1        2 0.79312004E-01 0.92496364E+02</pdfrwt>
<pdfrwt beam="2">  1       -2 0.90005812E-03 0.92496364E+02</pdfrwt>
<totfact> 0.12904921E+05</totfact>
</mgrwt>
</event>
<event>
 6    1  0.2995420E-002  0.8116381E+02  0.7546771E-02  0.1441165E+00
         -2   -1    0    0    0  501 -0.00000000000E+00  0.00000000000E+00  0.21374819132E+02  0.21374819132E+02  0.00000000000E+00 0.  1.
          2   -1    0    0  501    0  0.00000000000E+00 -0.00000000000E+00 -0.18202635295E+03  0.18202635295E+03  0.00000000000E+00 0. -1.
         23    2    1    2    0    0 -0.12363727778E+02 -0.13634249627E+01 -0.16963872831E+03  0.18805547702E+03  0.80205009834E+02 0.  0.
         13    1    3    3    0    0 -0.34467743805E+02  0.57435805352E+01 -0.15849511132E+03  0.16230130743E+03  0.00000000000E+00 0. -1.
        -13    1    3    3    0    0  0.22104016027E+02 -0.71070054979E+01 -0.11143616987E+02  0.25754169589E+02  0.00000000000E+00 0.  1.
         22    1    1    2    0    0  0.12363727778E+02  0.13634249627E+01  0.89871944900E+01  0.15345695064E+02  0.00000000000E+00 0.  1.
<mgrwt>
<rscale>  0 0.50782652E+02</rscale>
<asrwt>0</asrwt>
<pdfrwt beam="1">  1        2 0.28004053E-01 0.81163811E+02</pdfrwt>
<pdfrwt beam="2">  1       -2 0.32884338E-02 0.81163811E+02</pdfrwt>
<totfact> 0.59460115E+04</totfact>
</mgrwt>
</event>
<event>
 6    1  0.2995420E-002  0.1060253E+03  0.7546771E-02  0.1309344E+00
         -2   -1    0    0    0  501 -0.00000000000E+00  0.00000000000E+00  0.92674588719E+01  0.92674588719E+01  0.00000000000E+00 0.  1.
          2   -1    0    0  501    0  0.00000000000E+00 -0.00000000000E+00 -0.65026153586E+03  0.65026153586E+03  0.00000000000E+00 0. -1.
         23    2    1    2    0    0  0.75712123355E+01 -0.48303981858E+02 -0.45842862763E+03  0.47052967934E+03  0.94078555414E+02 0.  0.
         11    1    3    3    0    0 -0.49960554164E+01 -0.56632199012E+02 -0.44934725185E+03  0.45292948600E+03  0.00000000000E+00 0. -1.
        -11    1    3    3    0    0  0.12567267752E+02  0.83282171545E+01 -0.90813757722E+01  0.17600193341E+02  0.00000000000E+00 0.  1.
         22    1    1    2    0    0 -0.75712123355E+01  0.48303981858E+02 -0.18256544936E+03  0.18899931539E+03  0.00000000000E+00 0.  1.
<mgrwt>
<rscale>  0 0.87371656E+02</rscale>
<asrwt>0</asrwt>
<pdfrwt beam="1">  1        2 0.10004023E+00 0.10602534E+03</pdfrwt>
<pdfrwt beam="2">  1       -2 0.14257630E-02 0.10602534E+03</pdfrwt>
<totfact> 0.52729806E+04</totfact>
</mgrwt>
</event>
<event>
 6    1  0.2995420E-002  0.9495341E+02  0.7546771E-02  0.1347310E+00
         -2   -1    0    0    0  501 -0.00000000000E+00  0.00000000000E+00  0.91661508355E+01  0.91661508355E+01  0.00000000000E+00 0.  1.
          2   -1    0    0  501    0  0.00000000000E+00 -0.00000000000E+00 -0.46432521538E+03  0.46432521538E+03  0.00000000000E+00 0. -1.
         23    2    1    2    0    0  0.34823326985E+02 -0.10279521198E+01 -0.31037459909E+03  0.32457440203E+03  0.88331364189E+02 0.  0.
         13    1    3    3    0    0  0.22587965804E+02 -0.28166580192E+00 -0.11317546655E+02  0.25266230369E+02  0.00000000000E+00 0.  1.
        -13    1    3    3    0    0  0.12235361181E+02 -0.74628631788E+00 -0.29905705244E+03  0.29930817166E+03  0.00000000000E+00 0. -1.
         22    1    1    2    0    0 -0.34823326985E+02  0.10279521198E+01 -0.14478446545E+03  0.14891696419E+03  0.00000000000E+00 0. -1.
<mgrwt>
<rscale>  0 0.73900569E+02</rscale>
<asrwt>0</asrwt>
<pdfrwt beam="1">  1        2 0.71434644E-01 0.94953413E+02</pdfrwt>
<pdfrwt beam="2">  1       -2 0.14101771E-02 0.94953413E+02</pdfrwt>
<totfact> 0.76651434E+04</totfact>
</mgrwt>
</event>
<event>
 6    1  0.2995420E-002  0.9620618E+02  0.7546771E-02  0.1381971E+00
          4   -1    0    0  501    0  0.00000000000E+00  0.00000000000E+00  0.12005873098E+02  0.12005873098E+02  0.00000000000E+00 0.  1.
         -4   -1    0    0    0  501 -0.00000000000E+00 -0.00000000000E+00 -0.30551676752E+03  0.30551676752E+03  0.00000000000E+00 0. -1.
         23    2    1    2    0    0 -0.14348920862E+02  0.12117068033E+02 -0.19742388633E+03  0.21961744161E+03  0.94355258999E+02 0.  0.
         11    1    3    3    0    0  0.30653692441E+02  0.17896964659E+02 -0.14936324400E+03  0.15352305645E+03  0.00000000000E+00 0. -1.
        -11    1    3    3    0    0 -0.45002613303E+02 -0.57798966265E+01 -0.48060642332E+02  0.66094385166E+02  0.00000000000E+00 0.  1.
         22    1    1    2    0    0  0.14348920862E+02 -0.12117068033E+02 -0.96087008096E+02  0.97905199006E+02  0.00000000000E+00 0. -1.
<mgrwt>
<rscale>  0 0.63948478E+02</rscale>
<asrwt>0</asrwt>
<pdfrwt beam="1">  1        4 0.18470575E-02 0.96206184E+02</pdfrwt>
<pdfrwt beam="2">  1       -4 0.47002576E-01 0.96206184E+02</pdfrwt>
<totfact> 0.75216937E+03</totfact>
</mgrwt>
</event>
<event>
 6    1  0.2995420E-002  0.9351738E+02  0.7546771E-02  0.1406181E+00
          4   -1    0    0  501    0  0.00000000000E+00  0.00000000000E+00  0.24323054544E+02  0.24323054544E+02  0.00000000000E+00 0. -1.
         -4   -1    0    0    0  501 -0.00000000000E+00 -0.00000000000E+00 -0.12272479769E+03  0.12272479769E+03  0.00000000000E+00 0.  1.
         23    2    1    2    0    0  0.57926941800E+01 -0.12623504962E+02 -0.75181208801E+02  0.11999047988E+03  0.92480229896E+02 0.  0.
         13    1    3    3    0    0 -0.92508922476E+01 -0.16373061979E+02 -0.93854434865E+02  0.95719961919E+02  0.00000000000E+00 0.  1.
        -13    1    3    3    0    0  0.15043586428E+02  0.37495570176E+01  0.18673226064E+02  0.24270517961E+02  0.00000000000E+00 0. -1.
         22    1    1    2    0    0 -0.57926941800E+01  0.12623504962E+02 -0.23220534342E+02  0.27057372350E+02  0.00000000000E+00 0.  1.
<mgrwt>
<rscale>  0 0.58054795E+02</rscale>
<asrwt>0</asrwt>
<pdfrwt beam="1">  1        4 0.37420084E-02 0.93517384E+02</pdfrwt>
<pdfrwt beam="2">  1       -4 0.18880738E-01 0.93517384E+02</pdfrwt>
<totfact> 0.13884072E+04</totfact>
</mgrwt>
</event>
<event>
 6    1  0.2995420E-002  0.9192748E+02  0.7546771E-02  0.1401809E+00
         -2   -1    0    0    0  501 -0.00000000000E+00  0.00000000000E+00  0.10063848278E+03  0.10063848278E+03  0.00000000000E+00 0.  1.
          2   -1    0    0  501    0  0.00000000000E+00 -0.00000000000E+00 -0.32170793005E+02  0.32170793005E+02  0.00000000000E+00 0. -1.
         23    2    1    2    0    0 -0.37489379707E+01  0.15208857731E+02  0.39866952700E+02  0.10019998185E+03  0.90583103041E+02 0.  0.
         11    1    3    3    0    0 -0.46242337661E+01 -0.23183430939E+02  0.54262298914E+02  0.59188276639E+02  0.00000000000E+00 0.  1.
        -11    1    3    3    0    0  0.87529579538E+00  0.38392288670E+02 -0.14395346214E+02  0.41011705215E+02  0.00000000000E+00 0. -1.
         22    1    1    2    0    0  0.37489379707E+01 -0.15208857731E+02  0.28600737072E+02  0.32609293928E+02  0.00000000000E+00 0.  1.
<mgrwt>
<rscale>  0 0.59062301E+02</rscale>
<asrwt>0</asrwt>
<pdfrwt beam="1">  1        2 0.49493528E-02 0.91927485E+02</pdfrwt>
<pdfrwt beam="2">  1       -2 0.15482843E-01 0.91927485E+02</pdfrwt>
<totfact> 0.44647314E+04</totfact>
</mgrwt>
</event>
<event>
 6    1  0.2995420E-002  0.9301013E+02  0.7546771E-02  0.1398699E+00
         -4   -1    0    0    0  501 -0.00000000000E+00  0.00000000000E+00  0.52005668611E+01  0.52005668611E+01  0.00000000000E+00 0.  1.
          4   -1    0    0  501    0  0.00000000000E+00 -0.00000000000E+00 -0.59881832960E+03  0.59881832960E+03  0.00000000000E+00 0. -1.
         23    2    1    2    0    0 -0.11894978223E+02  0.10530924988E+02 -0.54476155672E+03  0.55264458621E+03  0.91643298121E+02 0.  0.
         13    1    3    3    0    0 -0.21526530628E+02 -0.54988705059E+01 -0.28943972806E+02  0.36488116689E+02  0.00000000000E+00 0.  1.
        -13    1    3    3    0    0  0.96315524054E+01  0.16029795494E+02 -0.51581758392E+03  0.51615646952E+03  0.00000000000E+00 0. -1.
         22    1    1    2    0    0  0.11894978223E+02 -0.10530924988E+02 -0.48856206017E+02  0.51374310257E+02  0.00000000000E+00 0.  1.
<mgrwt>
<rscale>  0 0.59793904E+02</rscale>
<asrwt>0</asrwt>
<pdfrwt beam="1">  1        4 0.92125863E-01 0.93010134E+02</pdfrwt>
<pdfrwt beam="2">  1       -4 0.80008751E-03 0.93010134E+02</pdfrwt>
<totfact> 0.62953980E+03</totfact>
</mgrwt>
</event>
<event>
 6    1  0.2995420E-002  0.7535846E+02  0.7546771E-02  0.1430407E+00
         -4   -1    0    0    0  501 -0.00000000000E+00  0.00000000000E+00  0.13260623750E+03  0.13260623750E+03  0.00000000000E+00 0.  1.
          4   -1    0    0  501    0  0.00000000000E+00 -0.00000000000E+00 -0.21941423476E+02  0.21941423476E+02  0.00000000000E+00 0. -1.
         23    2    1    2    0    0  0.12632708221E+02  0.13197396662E+02  0.48172855942E+02  0.89440046824E+02  0.73110473467E+02 0.  0.
         11    1    3    3    0    0 -0.31756485757E+01 -0.33936537117E+00  0.63508006153E+02  0.63588259594E+02  0.00000000000E+00 0.  1.
        -11    1    3    3    0    0  0.15808356797E+02  0.13536762034E+02 -0.15335150211E+02  0.25851787229E+02  0.00000000000E+00 0. -1.
         22    1    1    2    0    0 -0.12632708221E+02 -0.13197396662E+02  0.62491958085E+02  0.65107614155E+02  0.00000000000E+00 0. -1.
<mgrwt>
<rscale>  0 0.52878333E+02</rscale>
<asrwt>0</asrwt>
<pdfrwt beam="1">  1        4 0.33756037E-02 0.75358463E+02</pdfrwt>
<pdfrwt beam="2">  1       -4 0.20400959E-01 0.75358463E+02</pdfrwt>
<totfact> 0.13276349E+04</totfact>
</mgrwt>
</event>
<event>
 6    1  0.2995420E-002  0.9733833E+02  0.7546771E-02  0.1393058E+00
         -2   -1    0    0    0  501 -0.00000000000E+00  0.00000000000E+00  0.15687006741E+02  0.15687006741E+02  0.00000000000E+00 0.  1.
          2   -1    0    0  501    0  0.00000000000E+00 -0.00000000000E+00 -0.23302512826E+03  0.23302512826E+03  0.00000000000E+00 0. -1.
         23    2    1    2    0    0  0.14879873807E+02 -0.29205995325E+01 -0.21082071544E+03  0.23220707129E+03  0.96149931621E+02 0.  0.
         11    1    3    3    0    0  0.23074818479E+02 -0.14013794400E+02 -0.69590684384E+01  0.27879424579E+02  0.00000000000E+00 0.  1.
        -11    1    3    3    0    0 -0.81949446728E+01  0.11093194868E+02 -0.20386164700E+03  0.20432764671E+03  0.00000000000E+00 0. -1.
         22    1    1    2    0    0 -0.14879873807E+02  0.29205995325E+01 -0.65174060758E+01  0.16505063710E+02  0.00000000000E+00 0.  1.
<mgrwt>
<rscale>  0 0.61152590E+02</rscale>
<asrwt>0</asrwt>
<pdfrwt beam="1">  1        2 0.35850015E-01 0.97338327E+02</pdfrwt>
<pdfrwt beam="2">  1       -2 0.24133860E-02 0.97338327E+02</pdfrwt>
<totfact> 0.73477097E+04</totfact>
</mgrwt>
</event>
<event>
 6    1  0.2995420E-002  0.9647260E+02  0.7546771E-02  0.1356227E+00
         -4   -1    0    0    0  501 -0.00000000000E+00  0.00000000000E+00  0.23709517654E+02  0.23709517654E+02  0.00000000000E+00 0.  1.
          4   -1    0    0  501    0  0.00000000000E+00 -0.00000000000E+00 -0.16997167250E+03  0.16997167250E+03  0.00000000000E+00 0. -1.
         23    2    1    2    0    0 -0.27407515320E+02 -0.79660931203E+01 -0.12594001783E+03  0.15864378459E+03  0.92153848338E+02 0.  0.
         11    1    3    3    0    0 -0.45568289156E+02  0.18395220443E+02 -0.30165527161E+02  0.57661184003E+02  0.00000000000E+00 0.  1.
        -11    1    3    3    0    0  0.18160773836E+02 -0.26361313563E+02 -0.95774490670E+02  0.10098260059E+03  0.00000000000E+00 0. -1.
         22    1    1    2    0    0  0.27407515320E+02  0.79660931203E+01 -0.20322137019E+02  0.35037405563E+02  0.00000000000E+00 0.  1.
<mgrwt>
<rscale>  0 0.71149699E+02</rscale>
<asrwt>0</asrwt>
<pdfrwt beam="1">  1        4 0.26149488E-01 0.96472599E+02</pdfrwt>
<pdfrwt beam="2">  1       -4 0.36476181E-02 0.96472599E+02</pdfrwt>
<totfact> 0.80969982E+03</totfact>
</mgrwt>
</event>
<event>
 6    1  0.2995420E-002  0.9186081E+02  0.7546771E-02  0.1424631E+00
         -2   -1    0    0    0  501 -0.00000000000E+00  0.00000000000E+00  0.17967093909E+02  0.17967093909E+02  0.00000000000E+00 0.  1.
          2   -1    0    0  501    0  0.00000000000E+00 -0.00000000000E+00 -0.40288217047E+03  0.40288217047E+03  0.00000000000E+00 0. -1.
         23    2    1    2    0    0 -0.84649575547E+01 -0.70442055016E+01 -0.39522727642E+03  0.40576225660E+03  0.91198314221E+02 0.  0.
         11    1    3    3    0    0 -0.13652121597E+02  0.22509617237E+00 -0.39650590814E+03  0.39674093094E+03  0.00000000000E+00 0. -1.
        -11    1    3    3    0    0  0.51871640418E+01 -0.72693016740E+01  0.12786317186E+01  0.90213256618E+01  0.00000000000E+00 0.  1.
         22    1    1    2    0    0  0.84649575547E+01  0.70442055016E+01  0.10312199864E+02  0.15087007774E+02  0.00000000000E+00 0.  1.
<mgrwt>
<rscale>  0 0.54052990E+02</rscale>
<asrwt>0</asrwt>
<pdfrwt beam="1">  1        2 0.61981871E-01 0.91860812E+02</pdfrwt>
<pdfrwt beam="2">  1       -2 0.27641683E-02 0.91860812E+02</pdfrwt>
<totfact> 0.33731615E+04</totfact>
</mgrwt>
</event>
<event>
 6    1  0.2995420E-002  0.9218445E+02  0.7546771E-02  0.1416537E+00
         -2   -1    0    0    0  501 -0.00000000000E+00  0.00000000000E+00  0.18424974486E+01  0.18424974486E+01  0.00000000000E+00 0.  1.
          2   -1    0    0  501    0  0.00000000000E+00 -0.00000000000E+00 -0.25471614630E+04  0.25471614630E+04  0.00000000000E+00 0. -1.
         23    2    1    2    0    0 -0.12339618551E+02  0.13648320738E+00 -0.25080799869E+04  0.25097735341E+04  0.91354733890E+02 0.  0.
         13    1    3    3    0    0  0.33242961777E+02 -0.17028146812E+02 -0.66338975008E+03  0.66444037565E+03  0.00000000000E+00 0.  1.
        -13    1    3    3    0    0 -0.45582580327E+02  0.17164630020E+02 -0.18446902368E+04  0.18453331585E+04  0.00000000000E+00 0. -1.
         22    1    1    2    0    0  0.12339618551E+02 -0.13648320738E+00 -0.37238978647E+02  0.39230426257E+02  0.00000000000E+00 0.  1.
<mgrwt>
<rscale>  0 0.55760327E+02</rscale>
<asrwt>0</asrwt>
<pdfrwt beam="1">  1        2 0.39186961E+00 0.92184447E+02</pdfrwt>
<pdfrwt beam="2">  1       -2 0.28346215E-03 0.92184447E+02</pdfrwt>
<totfact> 0.46624451E+04</totfact>
</mgrwt>
</event>
<event>
 6    1  0.2995420E-002  0.9122669E+02  0.7546771E-02  0.1431375E+00
          2   -1    0    0  501    0  0.00000000000E+00  0.00000000000E+00  0.65838306325E+03  0.65838306325E+03  0.00000000000E+00 0. -1.
         -2   -1    0    0    0  501 -0.00000000000E+00 -0.00000000000E+00 -0.47646375690E+01  0.47646375690E+01  0.00000000000E+00 0.  1.
         23    2    1    2    0    0 -0.22218192301E+01  0.99018608051E+01  0.63821400055E+03  0.64470103061E+03  0.90660493313E+02 0.  0.
         13    1    3    3    0    0  0.41136114326E+00  0.37510550637E+02  0.11957778350E+03  0.12532380833E+03  0.00000000000E+00 0.  1.
        -13    1    3    3    0    0 -0.26331803733E+01 -0.27608689831E+02  0.51863621705E+03  0.51937722228E+03  0.00000000000E+00 0. -1.
         22    1    1    2    0    0  0.22218192301E+01 -0.99018608051E+01  0.15404425136E+02  0.18446670211E+02  0.00000000000E+00 0.  1.
<mgrwt>
<rscale>  0 0.52685037E+02</rscale>
<asrwt>0</asrwt>
<pdfrwt beam="1">  1        2 0.10128963E+00 0.91226687E+02</pdfrwt>
<pdfrwt beam="2">  1       -2 0.73302169E-03 0.91226687E+02</pdfrwt>
<totfact> 0.13103816E+05</totfact>
</mgrwt>
</event>
<event>
 6    1  0.2995420E-002  0.1206345E+03  0.7546771E-02  0.1378217E+00
         -2   -1    0    0    0  501 -0.00000000000E+00  0.00000000000E+00  0.24565028506E+01  0.24565028506E+01  0.00000000000E+00 0. -1.
          2   -1    0    0  501    0  0.00000000000E+00 -0.00000000000E+00 -0.21804717544E+04  0.21804717544E+04  0.00000000000E+00 0.  1.
         23    2    1    2    0    0  0.71790590257E+00  0.10101854126E+02 -0.21451198507E+04  0.21485092183E+04  0.12020867014E+03 0.  0.
         13    1    3    3    0    0 -0.22293285023E+02 -0.50713152628E+02 -0.92326536621E+03  0.92492580830E+03  0.00000000000E+00 0. -1.
        -13    1    3    3    0    0  0.23011190925E+02  0.60815006754E+02 -0.12218544845E+04  0.12235834100E+04  0.00000000000E+00 0.  1.
         22    1    1    2    0    0 -0.71790590257E+00 -0.10101854126E+02 -0.32895400828E+02  0.34419038936E+02  0.00000000000E+00 0. -1.
<mgrwt>
<rscale>  0 0.64934792E+02</rscale>
<asrwt>0</asrwt>
<pdfrwt beam="1">  1        2 0.33545690E+00 0.12063452E+03</pdfrwt>
<pdfrwt beam="2">  1       -2 0.37792385E-03 0.12063452E+03</pdfrwt>
<totfact> 0.49311836E+04</totfact>
</mgrwt>
</event>
<event>
 6    1  0.2995420E-002  0.9403250E+02  0.7546771E-02  0.1371636E+00
         -2   -1    0    0    0  501 -0.00000000000E+00  0.00000000000E+00  0.50763390164E+02  0.50763390164E+02  0.00000000000E+00 0.  1.
          2   -1    0    0  501    0  0.00000000000E+00 -0.00000000000E+00 -0.72751844618E+02  0.72751844618E+02  0.00000000000E+00 0. -1.
         23    2    1    2    0    0  0.85387044000E+01  0.22243231786E+02 -0.29470051228E+02  0.98542347015E+02  0.90963945620E+02 0.  0.
         13    1    3    3    0    0  0.28698542212E+02  0.60059219892E+01 -0.54910310287E+02  0.62248048964E+02  0.00000000000E+00 0. -1.
        -13    1    3    3    0    0 -0.20159837812E+02  0.16237309797E+02  0.25440259059E+02  0.36294298051E+02  0.00000000000E+00 0.  1.
         22    1    1    2    0    0 -0.85387044000E+01 -0.22243231786E+02  0.74815967734E+01  0.24972887766E+02  0.00000000000E+00 0. -1.
<mgrwt>
<rscale>  0 0.66714547E+02</rscale>
<asrwt>0</asrwt>
<pdfrwt beam="1">  1        2 0.11192591E-01 0.94032496E+02</pdfrwt>
<pdfrwt beam="2">  1       -2 0.78097523E-02 0.94032496E+02</pdfrwt>
<totfact> 0.47416240E+04</totfact>
</mgrwt>
</event>
<event>
 6    1  0.2995420E-002  0.9058409E+02  0.7546771E-02  0.1430632E+00
          1   -1    0    0  501    0  0.00000000000E+00  0.00000000000E+00  0.48298149963E+02  0.48298149963E+02  0.00000000000E+00 0. -1.
         -1   -1    0    0    0  501 -0.00000000000E+00 -0.00000000000E+00 -0.53997377208E+02  0.53997377208E+02  0.00000000000E+00 0.  1.
         23    2    1    2    0    0 -0.10087162496E+02 -0.28528615869E+01 -0.48020178441E+00  0.90585365208E+02  0.89975486271E+02 0.  0.
         13    1    3    3    0    0  0.30115603148E+02 -0.24967595665E+02  0.15385127499E+02  0.42036086098E+02  0.00000000000E+00 0. -1.
        -13    1    3    3    0    0 -0.40202765644E+02  0.22114734078E+02 -0.15865329283E+02  0.48549279110E+02  0.00000000000E+00 0.  1.
         22    1    1    2    0    0  0.10087162496E+02  0.28528615869E+01 -0.52190254603E+01  0.11710161963E+02  0.00000000000E+00 0. -1.
<mgrwt>
<rscale>  0 0.52833400E+02</rscale>
<asrwt>0</asrwt>
<pdfrwt beam="1">  1        1 0.74304846E-02 0.90584092E+02</pdfrwt>
<pdfrwt beam="2">  1       -1 0.83072888E-02 0.90584092E+02</pdfrwt>
<totfact> 0.66483757E+04</totfact>
</mgrwt>
</event>
<event>
 6    1  0.2995420E-002  0.9169023E+02  0.7546771E-02  0.1405361E+00
          3   -1    0    0  501    0  0.00000000000E+00  0.00000000000E+00  0.31095811940E+03  0.31095811940E+03  0.00000000000E+00 0. -1.
         -3   -1    0    0    0  501 -0.00000000000E+00 -0.00000000000E+00 -0.11430918013E+02  0.11430918013E+02  0.00000000000E+00 0.  1.
         23    2    1    2    0    0 -0.10464470848E+02 -0.10644798223E+02  0.29120469079E+03  0.30529865819E+03  0.90467020931E+02 0.  0.
         13    1    3    3    0    0 -0.14931915216E+02 -0.83255965166E+01  0.29707458385E+03  0.29756610361E+03  0.00000000000E+00 0. -1.
        -13    1    3    3    0    0  0.44674443679E+01 -0.23192017061E+01 -0.58698930619E+01  0.77325545774E+01  0.00000000000E+00 0.  1.
         22    1    1    2    0    0  0.10464470848E+02  0.10644798223E+02  0.83225105976E+01  0.17090379223E+02  0.00000000000E+00 0.  1.
<mgrwt>
<rscale>  0 0.58241938E+02</rscale>
<asrwt>0</asrwt>
<pdfrwt beam="1">  1        3 0.47839704E-01 0.91690233E+02</pdfrwt>
<pdfrwt beam="2">  1       -3 0.17586030E-02 0.91690233E+02</pdfrwt>
<totfact> 0.10505008E+04</totfact>
</mgrwt>
</event>
<event>
 6    1  0.2995420E-002  0.1069139E+03  0.7546771E-02  0.1305818E+00
          2   -1    0    0  501    0  0.00000000000E+00  0.00000000000E+00  0.49651553833E+03  0.49651553833E+03  0.00000000000E+00 0. -1.
         -2   -1    0    0    0  501 -0.00000000000E+00 -0.00000000000E+00 -0.17091052739E+02  0.17091052739E+02  0.00000000000E+00 0.  1.
         23    2    1    2    0    0  0.39979038255E+02 -0.31420409468E+02  0.17583002271E+03  0.20578332437E+03  0.94047934960E+02 0.  0.
         11    1    3    3    0    0 -0.17092024251E+02  0.22327637508E+02  0.54564289908E+02  0.61383405110E+02  0.00000000000E+00 0. -1.
        -11    1    3    3    0    0  0.57071062506E+02 -0.53748046976E+02  0.12126573280E+03  0.14439991926E+03  0.00000000000E+00 0.  1.
         22    1    1    2    0    0 -0.39979038255E+02  0.31420409468E+02  0.30359446287E+03  0.30782326670E+03  0.00000000000E+00 0. -1.
<mgrwt>
<rscale>  0 0.88786113E+02</rscale>
<asrwt>0</asrwt>
<pdfrwt beam="1">  1        2 0.76386995E-01 0.10691389E+03</pdfrwt>
<pdfrwt beam="2">  1       -2 0.26293931E-02 0.10691389E+03</pdfrwt>
<totfact> 0.29499965E+04</totfact>
</mgrwt>
</event>
<event>
 6    1  0.2995420E-002  0.9559062E+02  0.7546771E-02  0.1383740E+00
         -2   -1    0    0    0  501 -0.00000000000E+00  0.00000000000E+00  0.32231541629E+02  0.32231541629E+02  0.00000000000E+00 0.  1.
          2   -1    0    0  501    0  0.00000000000E+00 -0.00000000000E+00 -0.20464397798E+03  0.20464397798E+03  0.00000000000E+00 0. -1.
         23    2    1    2    0    0  0.10984950579E+02 -0.15014132676E+02 -0.18909776093E+03  0.21188565416E+03  0.93762860089E+02 0.  0.
         11    1    3    3    0    0  0.15262802356E+02  0.73454931682E+01  0.40378168022E+01  0.17413023005E+02  0.00000000000E+00 0.  1.
        -11    1    3    3    0    0 -0.42778517763E+01 -0.22359625845E+02 -0.19313557773E+03  0.19447263116E+03  0.00000000000E+00 0. -1.
         22    1    1    2    0    0 -0.10984950579E+02  0.15014132676E+02  0.16685324573E+02  0.24989865453E+02  0.00000000000E+00 0.  1.
<mgrwt>
<rscale>  0 0.63490774E+02</rscale>
<asrwt>0</asrwt>
<pdfrwt beam="1">  1        2 0.31483688E-01 0.95590623E+02</pdfrwt>
<pdfrwt beam="2">  1       -2 0.49586988E-02 0.95590623E+02</pdfrwt>
<totfact> 0.29302345E+04</totfact>
</mgrwt>
</event>
<event>
 6    1  0.2995420E-002  0.9111617E+02  0.7546771E-02  0.1416722E+00
          2   -1    0    0  501    0  0.00000000000E+00  0.00000000000E+00  0.21976808084E+02  0.21976808084E+02  0.00000000000E+00 0. -1.
         -2   -1    0    0    0  501 -0.00000000000E+00 -0.00000000000E+00 -0.12537149299E+03  0.12537149299E+03  0.00000000000E+00 0.  1.
         23    2    1    2    0    0 -0.12687091079E+02  0.11936414589E+01 -0.82731924260E+02  0.12307204235E+03  0.90220669789E+02 0.  0.
         13    1    3    3    0    0  0.38489188173E+02  0.85052091552E+01 -0.35339170576E+02  0.52939712561E+02  0.00000000000E+00 0. -1.
        -13    1    3    3    0    0 -0.51176279252E+02 -0.73115676963E+01 -0.47392753684E+02  0.70132329792E+02  0.00000000000E+00 0.  1.
         22    1    1    2    0    0  0.12687091079E+02 -0.11936414589E+01 -0.20662760642E+02  0.24276258718E+02  0.00000000000E+00 0. -1.
<mgrwt>
<rscale>  0 0.55720566E+02</rscale>
<asrwt>0</asrwt>
<pdfrwt beam="1">  1        2 0.33810474E-02 0.91116169E+02</pdfrwt>
<pdfrwt beam="2">  1       -2 0.19287922E-01 0.91116169E+02</pdfrwt>
<totfact> 0.51102815E+04</totfact>
</mgrwt>
</event>
<event>
 6    1  0.2995420E-002  0.9075391E+02  0.7546771E-02  0.1428120E+00
          2   -1    0    0  501    0  0.00000000000E+00  0.00000000000E+00  0.13526779624E+04  0.13526779624E+04  0.00000000000E+00 0. -1.
         -2   -1    0    0    0  501 -0.00000000000E+00 -0.00000000000E+00 -0.36192113604E+01  0.36192113604E+01  0.00000000000E+00 0.  1.
         23    2    1    2    0    0 -0.49359228456E+01  0.96386583380E+01  0.13370517281E+04  0.13401282014E+04  0.90105523467E+02 0.  0.
         13    1    3    3    0    0  0.30817210342E+02 -0.20308220408E+02  0.86274732411E+03  0.86353637418E+03  0.00000000000E+00 0. -1.
        -13    1    3    3    0    0 -0.35753133188E+02  0.29946878746E+02  0.47430440403E+03  0.47659182721E+03  0.00000000000E+00 0.  1.
         22    1    1    2    0    0  0.49359228456E+01 -0.96386583380E+01  0.12007022920E+02  0.16168972394E+02  0.00000000000E+00 0.  1.
<mgrwt>
<rscale>  0 0.53339142E+02</rscale>
<asrwt>0</asrwt>
<pdfrwt beam="1">  1        2 0.20810390E+00 0.90753911E+02</pdfrwt>
<pdfrwt beam="2">  1       -2 0.55680283E-03 0.90753911E+02</pdfrwt>
<totfact> 0.73625163E+04</totfact>
</mgrwt>
</event>
